INSANE! Membrane UpperLeaflet>loPI:POPI:DPPI:PYPI:ERGO=30.0:5.0:3.0:2.0:10.0 LowerLeaflet>loPI:POPI:DPPI:PYPI:ERGO=30.0:5.0:3.0:2.0:10.0
48670
    1loPI    C1    1  12.174   0.303  10.689 -0.2224  0.1232 -0.0508
    1loPI    C2    2  12.544   0.452  10.668 -0.1996  0.0775  0.0252
    1loPI    C3    3  12.258   0.593  10.426 -0.0201 -0.2144 -0.3682
    1loPI   PO4    4  12.151   0.055  10.529 -0.2411 -0.0681 -0.1379
    1loPI   GL1    5  12.080   0.145  10.163  0.2068  0.1786 -0.0608
    1loPI   GL2    6  11.820   0.340  10.268  0.0118  0.0106 -0.2224
    1loPI   C1A    7  12.198   0.232   9.731 -0.0591  0.0163 -0.0176
    1loPI   C2A    8  12.477   0.292   9.351  0.2524 -0.0019 -0.0755
    1loPI   C3A    9  12.509   0.372   8.894  0.0601  0.1509 -0.0614
    1loPI   C4A   10  12.452   0.183   8.554 -0.0497  0.0874 -0.1020
    1loPI   C5A   11  12.187  -0.049   8.381 -0.1154 -0.2759  0.0104
    1loPI   C6A   12  11.960  -0.093   8.110 -0.0759  0.4317  0.1792
    1loPI   C1B   13  11.659   0.269   9.762 -0.1199  0.0090  0.2315
    1loPI   C2B   14  11.787   0.086   9.424  0.1965  0.2580  0.1618
    1loPI   C3B   15  11.625   0.011   9.031 -0.1813  0.0336  0.1025
    1loPI   C4B   16  11.623   0.058   8.566  0.1392 -0.0938  0.3198
    2loPI    C1   17   1.210   8.897  10.849  0.1097  0.2955  0.0687
    2loPI    C2   18   1.125   9.089  11.190  0.2490  0.2226  0.1454
    2loPI    C3   19   1.448   8.854  11.168  0.2667  0.2633 -0.0515
    2loPI   PO4   20   0.955   8.952  10.720  0.1287 -0.5707  0.0214
    2loPI   GL1   21   1.062   9.271  10.252  0.2959  0.0972  0.1563
    2loPI   GL2   22   0.734   9.246  10.106  0.0536  0.1158  0.0713
    2loPI   C1A   23   1.108   9.451   9.775  0.1888  0.0172 -0.2442
    2loPI   C2A   24   1.244   9.531   9.360 -0.1914  0.1113  0.0935
    2loPI   C3A   25   1.416   9.406   8.960 -0.0851 -0.1011  0.0757
    2loPI   C4A   26   1.289   9.124   8.632  0.0450  0.2964  0.0612
    2loPI   C5A   27   0.917   9.038   8.461 -0.1172  0.4599 -0.2601
    2loPI   C6A   28   0.599   9.099   8.228  0.1072  0.1181 -0.1809
    2loPI   C1B   29   0.752   8.998   9.711 -0.2105  0.1346  0.2909
    2loPI   C2B   30   0.769   8.851   9.334  0.1018 -0.1924 -0.0785
    2loPI   C3B   31   0.487   8.671   9.004  0.1425  0.2426  0.2291
    2loPI   C4B   32   0.643   8.591   8.569  0.1769 -0.0219 -0.0275
    3loPI    C1   33  14.972  16.626  10.687 -0.0354  0.1971  0.0380
    3loPI    C2   34  14.933  16.228  10.689 -0.1866  0.2115  0.0722
    3loPI    C3   35  15.228  16.401  10.896 -0.1370  0.1188  0.0797
    3loPI   PO4   36  14.956  16.700  10.418  0.1730  0.1443  0.0410
    3loPI   GL1   37  14.959  16.546  10.077  0.1032  0.0769 -0.2473
    3loPI   GL2   38  14.668  16.528   9.965 -0.0211 -0.2555  0.2363
    3loPI   C1A   39  15.318  16.637   9.847  0.1454 -0.0052  0.2519
    3loPI   C2A   40  15.409  16.561   9.399 -0.0301 -0.1276 -0.2010
    3loPI   C3A   41  15.502  16.695   9.042 -0.1517 -0.1371  0.1015
    3loPI   C4A   42  15.702  16.637   8.689 -0.1577  0.0814  0.2452
    3loPI   C5A   43  15.895  16.437   8.259 -0.2784 -0.1107 -0.1468
    3loPI   C6A   44  16.289  16.601   8.161  0.0711 -0.0958  0.0464
    3loPI   C1B   45  14.916  16.453   9.590 -0.0017 -0.2306  0.0152
    3loPI   C2B   46  15.003  16.586   9.151 -0.1004 -0.0713 -0.1333
    3loPI   C3B   47  15.104  16.940   8.865 -0.1357 -0.1308  0.3082
    3loPI   C4B   48  14.943  16.945   8.442  0.2632  0.0119  0.0774
    4loPI    C1   49  17.114   8.389  10.703  0.0517 -0.0743 -0.0156
    4loPI    C2   50  17.342   8.356  11.030  0.0285 -0.1756 -0.0093
    4loPI    C3   51  17.127   8.687  10.969  0.0319 -0.1570  0.0787
    4loPI   PO4   52  17.246   8.354  10.460 -0.0162  0.1137  0.0840
    4loPI   GL1   53  17.234   8.371  10.069  0.1324  0.3305  0.4731
    4loPI   GL2   54  17.014   8.567   9.994 -0.1047  0.0423 -0.0725
    4loPI   C1A   55  17.355   8.425   9.657  0.0690 -0.1400  0.0429
    4loPI   C2A   56  17.350   8.479   9.268  0.1110  0.1318  0.1178
    4loPI   C3A   57  17.506   8.579   8.931 -0.0009  0.1307  0.2112
    4loPI   C4A   58  17.670   8.577   8.543 -0.0214  0.0146  0.0885
    4loPI   C5A   59  17.757   8.951   8.275  0.0465 -0.2753 -0.3664
    4loPI   C6A   60  17.972   9.230   7.937 -0.0360  0.1555 -0.0318
    4loPI   C1B   61  16.850   8.415   9.651  0.0836  0.3581 -0.0769
    4loPI   C2B   62  16.778   8.458   9.281 -0.2293  0.1966 -0.2796
    4loPI   C3B   63  16.963   8.503   8.882 -0.0987 -0.0109  0.3560
    4loPI   C4B   64  16.984   8.633   8.408  0.1144  0.0803 -0.3042
    5loPI    C1   65   3.151  17.027  11.150 -0.0468  0.2533 -0.3491
    5loPI    C2   66   2.850  17.002  11.412  0.1435 -0.1446 -0.1611
    5loPI    C3   67   3.126  17.288  11.452 -0.0648  0.0623 -0.1832
    5loPI   PO4   68   3.173  17.054  10.943 -0.1616  0.0941 -0.2895
    5loPI   GL1   69   3.267  16.899  10.524 -0.1770 -0.3843 -0.0554
    5loPI   GL2   70   2.967  16.996  10.406  0.1397 -0.2375 -0.0574
    5loPI   C1A   71   3.487  16.833  10.140  0.1715 -0.2384  0.0843
    5loPI   C2A   72   3.496  16.748   9.697 -0.0849 -0.0443 -0.0886
    5loPI   C3A   73   3.467  16.736   9.265 -0.0358 -0.0443 -0.2465
    5loPI   C4A   74   3.595  16.809   8.828  0.0164  0.1088 -0.0441
    5loPI   C5A   75   3.883  16.959   8.439 -0.1227 -0.2912 -0.0128
    5loPI   C6A   76   4.261  17.071   8.128  0.1605  0.0449  0.1204
    5loPI   C1B   77   2.954  16.930  10.012  0.1350  0.0603  0.1667
    5loPI   C2B   78   3.039  16.988   9.583 -0.0518  0.0073  0.3494
    5loPI   C3B   79   3.094  16.979   9.091  0.3511  0.0499 -0.1649
    5loPI   C4B   80   3.180  17.019   8.717  0.0636  0.1499 -0.0786
    6loPI    C1   81   8.536  10.382  10.756 -0.0119 -0.0142 -0.1322
    6loPI    C2   82   8.767  10.525  11.049 -0.1129 -0.0031 -0.0574
    6loPI    C3   83   8.613  10.157  11.077 -0.2450  0.0538 -0.0259
    6loPI   PO4   84   8.259  10.541  10.642 -0.0842 -0.0070  0.0506
    6loPI   GL1   85   8.035  10.473  10.309  0.2004  0.0827  0.4033
    6loPI   GL2   86   7.913  10.769  10.101  0.1286  0.1119  0.0014
    6loPI   C1A   87   7.873  10.297   9.874 -0.0657  0.0140 -0.0560
    6loPI   C2A   88   7.807  10.302   9.442  0.1638  0.1056 -0.1873
    6loPI   C3A   89   8.037  10.438   8.984  0.1350 -0.0377  0.2497
    6loPI   C4A   90   7.979  10.446   8.547  0.1765  0.1632  0.0281
    6loPI   C5A   91   8.208  10.710   8.150  0.2044 -0.1781  0.0215
    6loPI   C6A   92   8.620  10.778   8.181  0.2202  0.1452 -0.0115
    6loPI   C1B   93   7.972  10.732   9.680 -0.0531 -0.0681 -0.1129
    6loPI   C2B   94   8.021  10.801   9.274  0.2051 -0.1722 -0.2666
    6loPI   C3B   95   7.794  10.907   8.917  0.0661  0.3352 -0.2764
    6loPI   C4B   96   7.329  11.006   8.929 -0.0103  0.2070 -0.3366
    7loPI    C1   97   7.508   8.933  10.551  0.1432 -0.2771  0.0297
    7loPI    C2   98   7.217   8.668  10.477 -0.0577 -0.0683  0.0607
    7loPI    C3   99   7.453   8.622  10.797 -0.1093 -0.1942  0.0811
    7loPI   PO4  100   7.389   9.192  10.583  0.0767 -0.1118  0.0189
    7loPI   GL1  101   7.496   9.533  10.334  0.0255 -0.0935 -0.0253
    7loPI   GL2  102   7.653   9.317  10.136  0.0381 -0.0840  0.0647
    7loPI   C1A  103   7.365   9.641   9.918  0.0192  0.0826  0.0668
    7loPI   C2A  104   7.265   9.619   9.494  0.2820  0.1319 -0.0310
    7loPI   C3A  105   7.211   9.630   9.152 -0.1819  0.0457 -0.0396
    7loPI   C4A  106   7.094   9.548   8.785 -0.0196 -0.0802  0.3066
    7loPI   C5A  107   7.126   9.380   8.352 -0.0755 -0.0611 -0.0419
    7loPI   C6A  108   6.983   9.334   7.922  0.0019 -0.0762 -0.2823
    7loPI   C1B  109   7.688   9.224   9.755  0.1784 -0.3292 -0.1385
    7loPI   C2B  110   7.649   9.297   9.360 -0.0003  0.1678  0.0847
    7loPI   C3B  111   7.471   9.185   8.944 -0.0635 -0.0534 -0.1208
    7loPI   C4B  112   7.549   9.152   8.493 -0.2031  0.0970  0.0338
    8loPI    C1  113  11.593  15.578  10.766 -0.0335  0.0824 -0.0394
    8loPI    C2  114  11.972  15.647  10.874 -0.0255  0.0496 -0.0465
    8loPI    C3  115  11.700  15.549  11.151 -0.0503  0.1687 -0.0280
    8loPI   PO4  116  11.661  15.509  10.529  0.0359 -0.1215  0.1121
    8loPI   GL1  117  11.551  15.401  10.139  0.1007 -0.3499  0.0526
    8loPI   GL2  118  11.745  15.168  10.162  0.2403  0.1425  0.1317
    8loPI   C1A  119  11.527  15.565   9.714  0.1175  0.0672  0.0807
    8loPI   C2A  120  11.443  15.340   9.388 -0.1037  0.2585  0.0718
    8loPI   C3A  121  11.463  15.145   9.016  0.1455 -0.1173 -0.1552
    8loPI   C4A  122  11.385  15.002   8.604  0.2302 -0.0463 -0.3005
    8loPI   C5A  123  11.273  14.717   8.251 -0.0593  0.3691  0.1810
    8loPI   C6A  124  11.131  14.504   7.914  0.3670  0.2295 -0.0244
    8loPI   C1B  125  11.812  15.159   9.718 -0.3696  0.3310  0.1235
    8loPI   C2B  126  11.888  15.511   9.373 -0.1026 -0.0870 -0.0170
    8loPI   C3B  127  11.743  15.580   8.964  0.0080  0.0587 -0.2453
    8loPI   C4B  128  11.574  15.547   8.514 -0.1938 -0.1950 -0.0061
    9loPI    C1  129  11.161  10.033  10.681  0.0873 -0.0878  0.0499
    9loPI    C2  130  10.941  10.365  10.725  0.1936  0.0117 -0.1556
    9loPI    C3  131  10.952  10.092  11.018 -0.1166  0.0561 -0.0989
    9loPI   PO4  132  11.357  10.101  10.556 -0.0616  0.2171 -0.1482
    9loPI   GL1  133  11.305   9.785  10.180  0.0374 -0.2209 -0.0848
    9loPI   GL2  134  10.890   9.927  10.251  0.3390 -0.0722 -0.1095
    9loPI   C1A  135  11.387   9.746   9.841  0.0683 -0.2121  0.1457
    9loPI   C2A  136  11.364   9.853   9.444  0.1835  0.1794  0.1502
    9loPI   C3A  137  11.284   9.954   9.023 -0.2151  0.3245 -0.0344
    9loPI   C4A  138  11.122  10.057   8.600 -0.1605  0.1730  0.1576
    9loPI   C5A  139  10.829   9.941   8.293  0.0167  0.2830  0.4425
    9loPI   C6A  140  10.704   9.831   7.945 -0.0030  0.2359 -0.1323
    9loPI   C1B  141  10.952  10.129   9.887  0.1585 -0.0684 -0.0522
    9loPI   C2B  142  10.981  10.193   9.526  0.0383 -0.1243 -0.0928
    9loPI   C3B  143  10.923  10.307   9.088 -0.2171 -0.1341  0.2990
    9loPI   C4B  144  10.728  10.287   8.627 -0.3258  0.1694 -0.2646
   10loPI    C1  145   9.232   0.720  10.658  0.3881  0.1129 -0.0599
   10loPI    C2  146   9.550   0.579  10.856  0.0209 -0.3585  0.2156
   10loPI    C3  147   9.208   0.652  11.052 -0.0648  0.0888 -0.0862
   10loPI   PO4  148   9.279   0.958  10.547 -0.1729 -0.1310  0.4443
   10loPI   GL1  149   8.938   1.034  10.306 -0.0647 -0.1078  0.0114
   10loPI   GL2  150   9.009   0.945  10.008 -0.2383  0.3588 -0.0553
   10loPI   C1A  151   8.558   1.151  10.079  0.0411  0.1479  0.0114
   10loPI   C2A  152   8.494   1.115   9.668  0.0227 -0.0068  0.0663
   10loPI   C3A  153   8.222   1.355   9.299 -0.2994 -0.1508 -0.3303
   10loPI   C4A  154   8.088   1.398   8.812 -0.2329 -0.2289 -0.0636
   10loPI   C5A  155   8.068   1.688   8.490  0.0754  0.2260 -0.1252
   10loPI   C6A  156   8.045   1.880   8.035 -0.0824 -0.1763  0.1541
   10loPI   C1B  157   8.945   0.793   9.708 -0.0521 -0.1220  0.0946
   10loPI   C2B  158   8.733   0.867   9.304 -0.4218 -0.2054  0.2389
   10loPI   C3B  159   8.529   1.152   8.950 -0.2534 -0.0753  0.1387
   10loPI   C4B  160   8.530   1.373   8.506 -0.1605 -0.0590  0.0504
   11loPI    C1  161   1.565  12.988  10.985  0.3445  0.0082 -0.1212
   11loPI    C2  162   1.617  12.700  11.258  0.2127  0.0804 -0.0187
   11loPI    C3  163   1.524  13.071  11.374  0.0549  0.0885 -0.1670
   11loPI   PO4  164   1.788  12.861  10.790 -0.0328 -0.0209 -0.3811
   11loPI   GL1  165   1.912  12.664  10.440 -0.1324 -0.2366  0.2654
   11loPI   GL2  166   2.108  12.431  10.464  0.2512 -0.0151 -0.0882
   11loPI   C1A  167   1.652  12.696  10.099 -0.3788  0.2480 -0.0453
   11loPI   C2A  168   1.809  12.741   9.729 -0.2451 -0.1718  0.2740
   11loPI   C3A  169   1.949  12.911   9.222 -0.0970 -0.0488 -0.1501
   11loPI   C4A  170   1.918  12.916   8.757  0.1785 -0.0725  0.0506
   11loPI   C5A  171   1.743  13.002   8.382 -0.4056  0.0118 -0.4192
   11loPI   C6A  172   1.560  13.346   8.150  0.0725 -0.0474  0.0676
   11loPI   C1B  173   1.976  12.335  10.050  0.0959 -0.2124  0.2189
   11loPI   C2B  174   2.041  12.267   9.556  0.1937 -0.0923 -0.1109
   11loPI   C3B  175   2.017  12.425   9.140  0.1176  0.0924 -0.0323
   11loPI   C4B  176   1.916  12.410   8.733 -0.1890 -0.0255  0.3157
   12loPI    C1  177  13.792  17.648  10.845  0.0647 -0.0596 -0.1934
   12loPI    C2  178  13.885  17.927  11.117 -0.0057 -0.1044 -0.1230
   12loPI    C3  179  13.700  17.591  11.230  0.1606 -0.2212 -0.1935
   12loPI   PO4  180  13.719  17.699  10.653 -0.1734  0.0719  0.2324
   12loPI   GL1  181  13.731  17.653  10.180  0.2190  0.2956  0.1269
   12loPI   GL2  182  13.452  17.564  10.124 -0.0397 -0.0907 -0.0345
   12loPI   C1A  183  13.873  17.959   9.843  0.0173  0.0768  0.1507
   12loPI   C2A  184  14.018  17.898   9.446  0.0187  0.0440  0.1164
   12loPI   C3A  185  14.282  17.985   9.087  0.1575 -0.1889  0.2234
   12loPI   C4A  186  14.349  18.150   8.802  0.0888  0.0208  0.0080
   12loPI   C5A  187  14.500  17.979   8.379  0.1498 -0.1350 -0.0976
   12loPI   C6A  188  14.410  18.156   7.908 -0.3025  0.2461 -0.1785
   12loPI   C1B  189  13.568  17.536   9.695 -0.2925  0.0946 -0.0595
   12loPI   C2B  190  13.652  17.533   9.274  0.2539 -0.3265  0.0400
   12loPI   C3B  191  13.812  17.737   8.942  0.0830  0.0776 -0.1127
   12loPI   C4B  192  13.807  17.758   8.503 -0.1925 -0.1861  0.2632
   13loPI    C1  193   6.858   1.332  11.257 -0.1152  0.1993  0.1339
   13loPI    C2  194   7.201   1.333  11.462 -0.0949 -0.1154  0.1053
   13loPI    C3  195   6.871   1.173  11.623 -0.2601  0.2877  0.1784
   13loPI   PO4  196   6.997   1.264  11.019  0.1671  0.2701  0.1147
   13loPI   GL1  197   6.906   1.240  10.556 -0.1826  0.1284  0.2042
   13loPI   GL2  198   7.207   1.314  10.376  0.4894  0.0606 -0.2022
   13loPI   C1A  199   6.830   0.884  10.278 -0.1228  0.1630 -0.3273
   13loPI   C2A  200   6.881   0.947   9.844 -0.1602 -0.0217 -0.0081
   13loPI   C3A  201   6.636   0.897   9.564 -0.0413  0.1207 -0.1591
   13loPI   C4A  202   6.521   1.060   9.097  0.0808 -0.0085 -0.0705
   13loPI   C5A  203   6.643   0.966   8.678 -0.0435 -0.0309  0.0701
   13loPI   C6A  204   6.561   0.802   8.319 -0.1719  0.0869  0.0162
   13loPI   C1B  205   7.027   1.482  10.069  0.1308 -0.2455 -0.1629
   13loPI   C2B  206   6.687   1.382   9.768 -0.0441  0.1960  0.0228
   13loPI   C3B  207   6.659   1.428   9.325  0.1811 -0.2749  0.0109
   13loPI   C4B  208   6.678   1.425   8.874 -0.2905 -0.0984  0.0305
   14loPI    C1  209  13.795  13.514  10.863  0.0522  0.1487 -0.0643
   14loPI    C2  210  13.759  13.610  11.249 -0.0285  0.0826 -0.0552
   14loPI    C3  211  13.595  13.272  11.111 -0.1002  0.1641 -0.1707
   14loPI   PO4  212  13.667  13.764  10.699  0.0060 -0.1028  0.0096
   14loPI   GL1  213  13.635  13.807  10.227  0.0248  0.1105 -0.0958
   14loPI   GL2  214  13.976  13.944  10.073 -0.0113  0.0913  0.1122
   14loPI   C1A  215  13.450  13.807   9.789 -0.2778 -0.0751  0.1232
   14loPI   C2A  216  13.314  13.770   9.370  0.0521  0.4094  0.1486
   14loPI   C3A  217  13.033  13.733   9.134 -0.1659  0.1637  0.0329
   14loPI   C4A  218  13.101  13.469   8.831  0.0538 -0.0154  0.0938
   14loPI   C5A  219  13.110  13.227   8.492 -0.2081  0.1953  0.1939
   14loPI   C6A  220  13.359  12.939   8.190  0.4474  0.1696 -0.0337
   14loPI   C1B  221  13.913  14.080   9.586 -0.1769  0.3651  0.0218
   14loPI   C2B  222  13.900  14.124   9.160  0.2389 -0.0387 -0.1181
   14loPI   C3B  223  13.867  14.289   8.739 -0.0250  0.1243  0.0271
   14loPI   C4B  224  13.744  14.199   8.401 -0.2309  0.0287 -0.0813
   15loPI    C1  225  12.172  13.276  11.048 -0.1219  0.0600 -0.0486
   15loPI    C2  226  11.824  13.391  11.207 -0.0276  0.0621  0.1586
   15loPI    C3  227  12.011  13.066  11.348 -0.0761 -0.0946 -0.1306
   15loPI   PO4  228  12.193  13.419  10.782  0.1577  0.2018 -0.1075
   15loPI   GL1  229  12.159  13.510  10.330  0.1610  0.0189  0.1071
   15loPI   GL2  230  11.747  13.354  10.289 -0.1320 -0.3266  0.0102
   15loPI   C1A  231  12.073  13.404   9.860  0.2204 -0.2552  0.1986
   15loPI   C2A  232  12.280  13.271   9.542 -0.2170 -0.0365  0.3195
   15loPI   C3A  233  12.353  13.219   9.157  0.2568 -0.1935 -0.0925
   15loPI   C4A  234  12.174  13.268   8.701 -0.0244  0.0479 -0.1487
   15loPI   C5A  235  12.360  13.385   8.192  0.1236  0.1374  0.0868
   15loPI   C6A  236  12.714  13.556   8.093  0.0514 -0.1651  0.3176
   15loPI   C1B  237  11.672  13.033   9.958  0.0180 -0.0272 -0.0766
   15loPI   C2B  238  11.749  13.121   9.599 -0.0413  0.0529 -0.2197
   15loPI   C3B  239  11.846  13.224   9.241 -0.0704 -0.0075 -0.0925
   15loPI   C4B  240  11.690  13.170   8.878  0.0405  0.0941 -0.3052
   16loPI    C1  241   8.701   7.776  10.647 -0.0503  0.0150 -0.1743
   16loPI    C2  242   8.711   7.955  11.005  0.3792 -0.1435 -0.1006
   16loPI    C3  243   8.669   7.558  10.980 -0.0595 -0.0940 -0.2462
   16loPI   PO4  244   8.502   7.817  10.477  0.1660 -0.0424  0.0135
   16loPI   GL1  245   8.545   7.943  10.146  0.0033 -0.1685  0.3579
   16loPI   GL2  246   8.711   8.206  10.132  0.0068  0.1263  0.1462
   16loPI   C1A  247   8.768   7.780   9.825  0.0399 -0.1812  0.1508
   16loPI   C2A  248   8.835   7.791   9.419  0.0180 -0.1396 -0.0003
   16loPI   C3A  249   8.792   7.998   9.044 -0.0061 -0.3256  0.1948
   16loPI   C4A  250   8.820   8.094   8.544  0.1528  0.3888  0.1419
   16loPI   C5A  251   8.885   7.742   8.285  0.1370 -0.1075  0.2876
   16loPI   C6A  252   8.840   7.242   8.256 -0.1762  0.1604  0.1005
   16loPI   C1B  253   8.646   8.254   9.639  0.1690  0.4874  0.1391
   16loPI   C2B  254   8.413   8.320   9.186 -0.1168  0.0024 -0.1868
   16loPI   C3B  255   8.376   8.266   8.783  0.0389  0.0209 -0.0200
   16loPI   C4B  256   8.371   7.991   8.293  0.1920 -0.1234 -0.1235
   17loPI    C1  257  16.830   4.505  10.670  0.0662 -0.0006 -0.1132
   17loPI    C2  258  16.560   4.383  10.938  0.0427 -0.0114 -0.1419
   17loPI    C3  259  16.949   4.319  11.003  0.0144 -0.3521 -0.2870
   17loPI   PO4  260  16.757   4.395  10.422  0.0358  0.2143  0.1212
   17loPI   GL1  261  16.751   4.041  10.085 -0.1310 -0.2666 -0.0676
   17loPI   GL2  262  16.992   4.036  10.147 -0.0886  0.1451  0.0034
   17loPI   C1A  263  16.605   4.302   9.766 -0.1676 -0.1137  0.2369
   17loPI   C2A  264  16.700   4.184   9.397 -0.2012 -0.2136  0.0775
   17loPI   C3A  265  16.578   4.182   9.032 -0.0001  0.2097 -0.2946
   17loPI   C4A  266  16.722   4.071   8.607 -0.1946 -0.0449 -0.1200
   17loPI   C5A  267  17.111   3.991   8.422  0.2390  0.1053 -0.0212
   17loPI   C6A  268  17.591   3.838   8.358 -0.3432  0.0136 -0.0899
   17loPI   C1B  269  17.093   3.930   9.746  0.2563 -0.0698 -0.0402
   17loPI   C2B  270  17.019   3.830   9.273 -0.2865 -0.0490  0.1709
   17loPI   C3B  271  16.895   3.592   9.000  0.1382  0.2033 -0.0948
   17loPI   C4B  272  16.814   3.488   8.621 -0.2183 -0.2203 -0.2730
   18loPI    C1  273   3.668  13.781  11.198  0.1299 -0.0767 -0.0201
   18loPI    C2  274   3.782  13.424  11.058 -0.0237 -0.1197 -0.0373
   18loPI    C3  275   3.555  13.447  11.387  0.0491 -0.0343  0.0075
   18loPI   PO4  276   3.692  13.987  10.922 -0.0411 -0.0949 -0.3733
   18loPI   GL1  277   3.675  14.218  10.568  0.2396 -0.1111  0.0726
   18loPI   GL2  278   3.236  14.150  10.562 -0.4160  0.1266  0.0372
   18loPI   C1A  279   3.380  14.502  10.265  0.2669 -0.2477  0.0342
   18loPI   C2A  280   3.059  14.484  10.008 -0.1783 -0.2748  0.0045
   18loPI   C3A  281   2.913  14.502   9.569  0.1583 -0.0450 -0.0003
   18loPI   C4A  282   2.648  14.658   9.239  0.0091  0.0891 -0.0946
   18loPI   C5A  283   2.718  14.712   8.789  0.0220 -0.4267  0.0973
   18loPI   C6A  284   2.663  15.003   8.411 -0.0005  0.2650 -0.1681
   18loPI   C1B  285   3.362  14.036  10.180 -0.0746  0.1459  0.1323
   18loPI   C2B  286   3.363  14.090   9.817 -0.0441  0.1483 -0.4193
   18loPI   C3B  287   3.213  14.156   9.418  0.0164  0.1378  0.1920
   18loPI   C4B  288   3.130  14.471   9.083  0.0585  0.0665 -0.0485
   19loPI    C1  289   8.069   7.925  11.262 -0.0533 -0.1662  0.0158
   19loPI    C2  290   8.410   7.764  11.396  0.0551  0.0162 -0.0384
   19loPI    C3  291   8.064   7.682  11.580  0.1545 -0.0157  0.1358
   19loPI   PO4  292   8.176   7.877  10.968  0.3422 -0.0810 -0.3477
   19loPI   GL1  293   8.010   7.964  10.558  0.1613  0.0814 -0.2203
   19loPI   GL2  294   8.122   8.186  10.342  0.1448 -0.3897 -0.0242
   19loPI   C1A  295   7.844   7.799  10.172 -0.2608  0.2064 -0.0610
   19loPI   C2A  296   7.629   7.854   9.815 -0.2127 -0.0144 -0.0696
   19loPI   C3A  297   7.522   7.716   9.392  0.0830  0.1839 -0.0556
   19loPI   C4A  298   7.563   7.695   8.982  0.0866 -0.0057 -0.0260
   19loPI   C5A  299   7.495   7.683   8.586  0.1383  0.2132 -0.1886
   19loPI   C6A  300   7.656   7.560   8.081 -0.1264 -0.2006 -0.2168
   19loPI   C1B  301   8.159   8.029   9.792 -0.2535 -0.1111  0.1783
   19loPI   C2B  302   7.976   7.984   9.346 -0.3304  0.0706 -0.0350
   19loPI   C3B  303   7.944   7.988   8.964  0.0094 -0.1396  0.3247
   19loPI   C4B  304   7.951   7.841   8.643 -0.4087 -0.1920 -0.1279
   20loPI    C1  305  14.564   7.073  10.813  0.0327  0.0639  0.0784
   20loPI    C2  306  14.187   6.966  10.893  0.1246 -0.1294  0.2622
   20loPI    C3  307  14.411   7.137  11.177  0.1618  0.0283  0.1394
   20loPI   PO4  308  14.614   7.009  10.546 -0.0818 -0.1620  0.1072
   20loPI   GL1  309  14.355   7.022  10.077 -0.0318 -0.3063 -0.1384
   20loPI   GL2  310  14.507   7.269  10.117 -0.0807  0.0047  0.2221
   20loPI   C1A  311  14.235   6.894   9.689 -0.0947 -0.0552  0.1984
   20loPI   C2A  312  13.992   6.949   9.295 -0.0410 -0.0157  0.1348
   20loPI   C3A  313  13.881   6.672   8.901 -0.0094 -0.3064  0.1316
   20loPI   C4A  314  13.767   6.586   8.395  0.2262  0.2649 -0.0204
   20loPI   C5A  315  13.855   6.123   8.207 -0.0031 -0.0484 -0.1044
   20loPI   C6A  316  13.852   5.967   7.806 -0.1109  0.1222 -0.1236
   20loPI   C1B  317  14.646   7.174   9.699 -0.1033  0.0855 -0.0311
   20loPI   C2B  318  14.896   7.045   9.398 -0.0407 -0.1600 -0.2272
   20loPI   C3B  319  15.284   7.052   9.332  0.0629  0.0076 -0.0213
   20loPI   C4B  320  15.581   6.856   9.141 -0.1027 -0.1706 -0.2350
   21loPI    C1  321  10.921   5.672  10.783  0.0687  0.1166 -0.0993
   21loPI    C2  322  10.709   6.006  10.719 -0.0652  0.0485 -0.0159
   21loPI    C3  323  11.067   6.027  10.897 -0.1294  0.1356  0.1042
   21loPI   PO4  324  10.951   5.479  10.523 -0.1264  0.1106 -0.1053
   21loPI   GL1  325  11.163   5.631  10.173  0.0401  0.2330 -0.0152
   21loPI   GL2  326  11.033   5.799   9.867  0.2334  0.1491 -0.1777
   21loPI   C1A  327  11.163   5.362   9.782  0.1483  0.0280 -0.0117
   21loPI   C2A  328  11.063   5.521   9.326  0.3994 -0.2668 -0.0762
   21loPI   C3A  329  11.022   5.392   8.939 -0.1321  0.1119  0.0845
   21loPI   C4A  330  10.655   5.322   8.552  0.1637  0.0102 -0.0461
   21loPI   C5A  331  10.488   5.172   8.325  0.0837  0.0494  0.0854
   21loPI   C6A  332  10.194   5.309   8.002  0.2422  0.1724 -0.1854
   21loPI   C1B  333  11.200   5.988   9.472  0.1514 -0.1647  0.0753
   21loPI   C2B  334  11.136   6.238   9.128 -0.1323 -0.0963  0.0840
   21loPI   C3B  335  11.212   6.346   8.726  0.1286 -0.1007  0.2505
   21loPI   C4B  336  11.242   6.448   8.294  0.0811  0.1810  0.2875
   22loPI    C1  337  11.697   0.448  10.780 -0.1161  0.3394 -0.0825
   22loPI    C2  338  11.894   0.317  11.103 -0.0125  0.1653 -0.2143
   22loPI    C3  339  11.521   0.459  11.139 -0.0279  0.0809 -0.0292
   22loPI   PO4  340  11.830   0.674  10.629  0.1770 -0.0510 -0.1764
   22loPI   GL1  341  11.900   0.923  10.251  0.0849 -0.0481 -0.1297
   22loPI   GL2  342  12.166   1.134  10.260 -0.0447  0.0393  0.2614
   22loPI   C1A  343  11.965   0.695   9.873 -0.3057 -0.0625  0.1094
   22loPI   C2A  344  11.961   0.566   9.429  0.0347  0.2303 -0.0552
   22loPI   C3A  345  12.016   0.447   9.036  0.1962 -0.3876 -0.3365
   22loPI   C4A  346  11.971   0.438   8.549  0.1502  0.1415 -0.2549
   22loPI   C5A  347  11.985   0.820   8.322 -0.1240  0.0251 -0.1168
   22loPI   C6A  348  11.977   1.257   8.400 -0.2322 -0.1253 -0.2204
   22loPI   C1B  349  12.359   0.995   9.879  0.0817  0.1557  0.0587
   22loPI   C2B  350  12.564   1.162   9.576 -0.0494  0.1781 -0.2883
   22loPI   C3B  351  12.821   1.342   9.255  0.0435  0.0911  0.0554
   22loPI   C4B  352  12.904   1.427   8.786  0.3245  0.1334 -0.0868
   23loPI    C1  353   5.661  10.593  10.856 -0.0148  0.0171  0.0041
   23loPI    C2  354   5.835  10.815  11.140 -0.0863  0.0407  0.0296
   23loPI    C3  355   5.468  10.667  11.198  0.0366 -0.2465  0.0928
   23loPI   PO4  356   5.892  10.528  10.721  0.1723 -0.3509 -0.1195
   23loPI   GL1  357   5.895  10.330  10.413 -0.2272  0.0225 -0.1590
   23loPI   GL2  358   5.913  10.040  10.319 -0.3032  0.1359  0.0953
   23loPI   C1A  359   5.926  10.623   9.996  0.0613  0.1674  0.1000
   23loPI   C2A  360   5.914  10.773   9.556  0.0076  0.0098 -0.0042
   23loPI   C3A  361   5.991  10.877   9.245 -0.2349  0.0248 -0.0914
   23loPI   C4A  362   5.975  11.015   8.823  0.2387 -0.2734  0.1057
   23loPI   C5A  363   5.720  11.347   8.567 -0.0713 -0.0959  0.1120
   23loPI   C6A  364   5.335  11.597   8.560  0.2166 -0.3670 -0.1027
   23loPI   C1B  365   5.765  10.073   9.907  0.0028 -0.0810  0.1560
   23loPI   C2B  366   5.790  10.023   9.475 -0.1588 -0.1063  0.0075
   23loPI   C3B  367   5.713  10.023   9.038  0.1384 -0.0557 -0.0310
   23loPI   C4B  368   5.923  10.021   8.696 -0.0051  0.1565 -0.2923
   24loPI    C1  369  14.853   7.986  10.551  0.1241 -0.2391 -0.1112
   24loPI    C2  370  14.586   7.955  10.847  0.0048 -0.1610 -0.2094
   24loPI    C3  371  14.967   7.850  10.909  0.0316  0.0724  0.0403
   24loPI   PO4  372  14.769   8.005  10.406 -0.1744  0.2420  0.0503
   24loPI   GL1  373  14.777   8.215   9.995  0.2729 -0.1376 -0.2987
   24loPI   GL2  374  14.981   8.417   9.866 -0.0729  0.2429  0.1472
   24loPI   C1A  375  15.075   7.976   9.696  0.1828 -0.1872  0.0377
   24loPI   C2A  376  15.339   8.090   9.323  0.1593  0.4326 -0.0992
   24loPI   C3A  377  15.433   8.044   8.726  0.1379 -0.1127 -0.1068
   24loPI   C4A  378  15.608   8.076   8.279  0.1076 -0.1151 -0.0848
   24loPI   C5A  379  15.750   8.500   8.117  0.4669 -0.0446  0.1861
   24loPI   C6A  380  15.827   8.728   7.766  0.1910  0.2676  0.1160
   24loPI   C1B  381  14.886   8.250   9.344 -0.0490  0.1081  0.1798
   24loPI   C2B  382  14.997   8.229   8.965 -0.0848  0.0599  0.0971
   24loPI   C3B  383  14.989   8.014   8.572  0.0172 -0.1705  0.0611
   24loPI   C4B  384  14.914   7.693   8.260 -0.0939 -0.1910  0.0911
   25loPI    C1  385  10.523   4.600  10.552 -0.0974 -0.1123 -0.1053
   25loPI    C2  386  10.531   4.762  10.918 -0.1428 -0.1411 -0.0915
   25loPI    C3  387  10.192   4.604  10.776 -0.1011 -0.2157 -0.1084
   25loPI   PO4  388  10.593   4.756  10.385 -0.5078  0.2028  0.2948
   25loPI   GL1  389  11.025   4.722  10.161 -0.0892  0.1827  0.0217
   25loPI   GL2  390  10.808   5.095  10.037 -0.0226  0.1214 -0.2797
   25loPI   C1A  391  11.184   4.577   9.729 -0.3476  0.2136 -0.2903
   25loPI   C2A  392  11.198   4.626   9.304 -0.1485 -0.1132 -0.1598
   25loPI   C3A  393  11.348   4.719   9.016 -0.0431  0.2336  0.3286
   25loPI   C4A  394  11.364   4.797   8.613 -0.0675 -0.2356 -0.3618
   25loPI   C5A  395  11.547   4.688   8.284 -0.0517  0.2434  0.1891
   25loPI   C6A  396  11.887   4.683   8.061  0.1616  0.0332 -0.0474
   25loPI   C1B  397  10.823   4.962   9.641  0.0128  0.0141 -0.0879
   25loPI   C2B  398  10.896   4.971   9.146  0.3131  0.3465  0.0273
   25loPI   C3B  399  10.890   4.864   8.681  0.1513 -0.1636  0.0859
   25loPI   C4B  400  11.008   4.751   8.186 -0.0149 -0.1039 -0.0127
   26loPI    C1  401   8.614  15.885  10.872 -0.0297  0.0177  0.1991
   26loPI    C2  402   8.906  15.802  11.132 -0.0857  0.2205  0.3293
   26loPI    C3  403   8.935  16.124  10.896  0.1143 -0.1347 -0.1465
   26loPI   PO4  404   8.514  15.639  10.742  0.1321 -0.0261 -0.2484
   26loPI   GL1  405   8.570  15.551  10.338  0.1340  0.0592  0.0469
   26loPI   GL2  406   8.807  15.425  10.291  0.1264  0.0621  0.1538
   26loPI   C1A  407   8.271  15.684  10.016 -0.1057 -0.0343 -0.0826
   26loPI   C2A  408   8.087  15.727   9.670 -0.0678 -0.1541 -0.2734
   26loPI   C3A  409   7.802  15.691   9.333 -0.1727  0.0055  0.0601
   26loPI   C4A  410   7.617  15.696   8.892  0.1548 -0.1077  0.0675
   26loPI   C5A  411   7.415  15.910   8.530  0.0369 -0.0340 -0.1180
   26loPI   C6A  412   7.219  15.758   8.190 -0.1057 -0.0413  0.1839
   26loPI   C1B  413   8.770  15.354   9.836 -0.2415 -0.0035 -0.1879
   26loPI   C2B  414   8.773  15.214   9.388 -0.4395  0.2361  0.2396
   26loPI   C3B  415   9.092  15.212   9.067  0.2457  0.2436  0.2524
   26loPI   C4B  416   9.241  14.993   8.739 -0.0161  0.2490  0.2240
   27loPI    C1  417   1.767   9.895  10.911  0.1762  0.3497  0.0607
   27loPI    C2  418   1.375   9.841  10.852  0.2130 -0.1740  0.2413
   27loPI    C3  419   1.504  10.029  11.181  0.1098  0.2974  0.0223
   27loPI   PO4  420   1.830   9.898  10.660  0.2081  0.3410  0.3327
   27loPI   GL1  421   1.886   9.776  10.227  0.0903 -0.2876 -0.0507
   27loPI   GL2  422   2.171   9.594  10.428  0.0803 -0.4012 -0.0901
   27loPI   C1A  423   1.533   9.882   9.973 -0.0224  0.4016  0.0218
   27loPI   C2A  424   1.564   9.913   9.564 -0.1306 -0.0671 -0.0241
   27loPI   C3A  425   1.528   9.845   9.121 -0.0706 -0.2116  0.1234
   27loPI   C4A  426   1.490   9.866   8.776 -0.0590 -0.2783  0.1893
   27loPI   C5A  427   1.364  10.076   8.504 -0.3448  0.1374  0.1998
   27loPI   C6A  428   1.353  10.032   8.038  0.2562  0.1781 -0.2446
   27loPI   C1B  429   2.594   9.464  10.276  0.0651  0.0249 -0.2339
   27loPI   C2B  430   2.931   9.290  10.077  0.3867 -0.1224 -0.1073
   27loPI   C3B  431   3.047   9.226   9.632 -0.0738  0.1169 -0.0763
   27loPI   C4B  432   3.350   9.239   9.383  0.0375 -0.0224 -0.3236
   28loPI    C1  433  10.645   1.894  10.755  0.3154 -0.0475  0.0046
   28loPI    C2  434  10.831   2.226  10.880  0.0683 -0.1009  0.5366
   28loPI    C3  435  10.431   2.215  10.859  0.0949 -0.1007 -0.2710
   28loPI   PO4  436  10.752   1.809  10.510 -0.1642 -0.1589  0.1512
   28loPI   GL1  437  10.869   2.008  10.148  0.3891 -0.0419  0.1860
   28loPI   GL2  438  11.030   1.841   9.922 -0.1358 -0.1486 -0.1152
   28loPI   C1A  439  10.642   2.071   9.756 -0.0039 -0.0224  0.0637
   28loPI   C2A  440  10.693   1.968   9.326  0.1455  0.0567 -0.1001
   28loPI   C3A  441  10.648   1.838   8.939  0.2764 -0.1183  0.2217
   28loPI   C4A  442  10.576   1.498   8.821 -0.0690 -0.2286 -0.3924
   28loPI   C5A  443  10.409   1.158   8.587  0.3171  0.0831  0.3101
   28loPI   C6A  444  10.518   0.832   8.404  0.1699  0.0571 -0.1424
   28loPI   C1B  445  11.153   1.845   9.531  0.0487 -0.1305  0.1877
   28loPI   C2B  446  11.197   1.873   9.130  0.3575  0.3386 -0.4086
   28loPI   C3B  447  11.508   1.945   8.855 -0.0316 -0.1968 -0.2904
   28loPI   C4B  448  11.662   1.794   8.489  0.2530  0.1785 -0.2715
   29loPI    C1  449  16.983  15.695  10.920  0.0586 -0.1893 -0.2865
   29loPI    C2  450  17.278  15.431  10.979 -0.0377 -0.2399 -0.0198
   29loPI    C3  451  16.896  15.316  11.015 -0.0815 -0.0844  0.0179
   29loPI   PO4  452  17.041  15.874  10.659 -0.0139  0.0997 -0.2827
   29loPI   GL1  453  17.222  15.789  10.266 -0.1065 -0.5077 -0.0476
   29loPI   GL2  454  17.454  15.595  10.122  0.0735 -0.3220 -0.0472
   29loPI   C1A  455  17.113  16.199  10.034  0.1423  0.0471  0.1583
   29loPI   C2A  456  17.107  16.668   9.834 -0.0142 -0.0465  0.0496
   29loPI   C3A  457  17.081  16.911   9.477  0.0367 -0.0280  0.1750
   29loPI   C4A  458  17.015  17.213   9.180  0.0050 -0.1504  0.0171
   29loPI   C5A  459  17.026  17.196   8.695 -0.0908  0.0947  0.0958
   29loPI   C6A  460  17.025  17.175   8.279  0.1482  0.0056 -0.0229
   29loPI   C1B  461  17.348  15.567   9.632  0.2083 -0.0882  0.1600
   29loPI   C2B  462  17.350  15.624   9.100  0.1182  0.0989  0.5419
   29loPI   C3B  463  17.327  15.857   8.711 -0.0836  0.0395 -0.0723
   29loPI   C4B  464  17.069  16.285   8.516 -0.2763  0.1148 -0.2143
   30loPI    C1  465   4.664   4.105  10.906  0.1497 -0.0990 -0.1059
   30loPI    C2  466   4.429   3.909  11.164  0.0120 -0.0644 -0.2042
   30loPI    C3  467   4.587   4.262  11.266  0.0379 -0.0973 -0.1301
   30loPI   PO4  468   4.526   3.921  10.703  0.0499  0.2337 -0.0658
   30loPI   GL1  469   4.355   3.771  10.325  0.0934  0.1038  0.1633
   30loPI   GL2  470   4.064   3.478  10.312  0.1941  0.1120  0.2052
   30loPI   C1A  471   4.403   4.027  10.015 -0.1511 -0.1257  0.4140
   30loPI   C2A  472   4.251   4.026   9.628  0.1199  0.0321  0.0872
   30loPI   C3A  473   4.086   3.947   9.200  0.0979  0.0760 -0.4290
   30loPI   C4A  474   3.777   4.138   8.919  0.1011  0.0490 -0.0378
   30loPI   C5A  475   3.541   4.271   8.704 -0.0893 -0.2704  0.1326
   30loPI   C6A  476   3.069   4.201   8.669  0.0169 -0.1058 -0.0321
   30loPI   C1B  477   4.069   3.449   9.950  0.1787  0.3105  0.0370
   30loPI   C2B  478   3.922   3.637   9.608 -0.1779  0.0621 -0.1687
   30loPI   C3B  479   3.572   3.839   9.274  0.3300  0.0546  0.0359
   30loPI   C4B  480   3.310   4.167   9.137  0.3051  0.1849  0.3414
   31loPI    C1  481  15.051  11.402  10.350 -0.1652  0.2982  0.2976
   31loPI    C2  482  14.957  11.210  10.689  0.1808 -0.0603  0.1976
   31loPI    C3  483  15.137  11.014  10.390  0.0612  0.2996 -0.1198
   31loPI   PO4  484  14.832  11.563  10.260  0.2258  0.0659  0.1935
   31loPI   GL1  485  14.712  11.609   9.811 -0.0238  0.0186  0.0005
   31loPI   GL2  486  14.360  11.648   9.743  0.1015  0.0161  0.1738
   31loPI   C1A  487  14.698  12.035   9.544 -0.0128  0.2731  0.2763
   31loPI   C2A  488  14.817  12.195   9.262  0.1076 -0.2439 -0.1302
   31loPI   C3A  489  14.819  12.345   8.910  0.1123 -0.0961 -0.1046
   31loPI   C4A  490  14.628  12.224   8.526  0.0507 -0.2497 -0.1386
   31loPI   C5A  491  14.244  12.064   8.252 -0.1974 -0.0561  0.4122
   31loPI   C6A  492  14.109  11.693   7.992 -0.1314  0.0913  0.0061
   31loPI   C1B  493  14.450  11.693   9.292  0.2938 -0.2531  0.0037
   31loPI   C2B  494  14.386  11.764   8.818  0.0048 -0.2053 -0.0945
   31loPI   C3B  495  14.384  11.592   8.439 -0.1201  0.0789  0.0036
   31loPI   C4B  496  14.395  11.238   8.041 -0.1682  0.0440 -0.0415
   32loPI    C1  497   4.241   2.914  10.950 -0.4381 -0.2583 -0.4006
   32loPI    C2  498   4.135   2.557  11.096 -0.1235 -0.1138  0.2154
   32loPI    C3  499   3.934   2.886  11.204  0.1241 -0.0019  0.3455
   32loPI   PO4  500   4.291   2.892  10.678 -0.2197 -0.2214  0.2188
   32loPI   GL1  501   4.484   2.785  10.360 -0.0001  0.0406 -0.1775
   32loPI   GL2  502   4.523   3.061  10.193  0.1152 -0.0181  0.1069
   32loPI   C1A  503   4.345   2.641   9.953 -0.2764 -0.4148 -0.0579
   32loPI   C2A  504   4.318   2.725   9.592  0.2297  0.3712 -0.1148
   32loPI   C3A  505   4.417   2.733   9.172  0.0027  0.4335 -0.0396
   32loPI   C4A  506   4.808   2.891   8.946  0.0758 -0.3427  0.1624
   32loPI   C5A  507   4.552   3.250   8.856  0.0661  0.1517 -0.1750
   32loPI   C6A  508   4.157   3.378   8.527 -0.1256 -0.1527 -0.2693
   32loPI   C1B  509   4.497   3.142   9.799 -0.4364  0.3021  0.3703
   32loPI   C2B  510   4.492   3.557   9.625  0.2556 -0.0442 -0.1268
   32loPI   C3B  511   4.529   3.772   9.232 -0.0309  0.0722  0.0149
   32loPI   C4B  512   4.703   3.895   8.821  0.2401  0.4210  0.0604
   33loPI    C1  513   2.420  16.338  10.994  0.3012 -0.2062  0.0799
   33loPI    C2  514   2.601  16.650  11.167 -0.1056  0.1451 -0.1084
   33loPI    C3  515   2.251  16.517  11.309  0.0489 -0.2109 -0.0496
   33loPI   PO4  516   2.438  16.423  10.758 -0.0964 -0.2189  0.3586
   33loPI   GL1  517   2.612  16.378  10.424 -0.5664  0.0741 -0.1553
   33loPI   GL2  518   2.659  16.610  10.278 -0.1145 -0.2307  0.0762
   33loPI   C1A  519   2.310  16.219  10.045 -0.1660 -0.0992  0.1335
   33loPI   C2A  520   2.265  16.314   9.578  0.0714 -0.2157 -0.1838
   33loPI   C3A  521   2.257  16.415   9.133  0.0802 -0.1260 -0.1793
   33loPI   C4A  522   2.315  16.293   8.764 -0.0806 -0.1322  0.0913
   33loPI   C5A  523   2.338  15.959   8.443 -0.1139 -0.1469  0.0009
   33loPI   C6A  524   2.569  15.599   8.284  0.2474 -0.1748 -0.0031
   33loPI   C1B  525   2.666  16.556   9.851 -0.0344  0.0608  0.1358
   33loPI   C2B  526   2.634  16.649   9.389  0.1513 -0.0041 -0.1530
   33loPI   C3B  527   2.674  16.727   8.894  0.1969  0.0854 -0.1805
   33loPI   C4B  528   2.726  16.874   8.447 -0.1978  0.3256 -0.0680
   34loPI    C1  529   2.347  17.832  10.996 -0.1122 -0.0725 -0.0962
   34loPI    C2  530   2.084  18.053  11.202  0.2797  0.2860  0.0323
   34loPI    C3  531   2.272  17.748  11.380  0.0147  0.0781 -0.0378
   34loPI   PO4  532   2.242  17.810  10.785  0.1989  0.0187  0.0462
   34loPI   GL1  533   2.194  17.651  10.337  0.1976  0.0486  0.0631
   34loPI   GL2  534   1.889  17.694  10.444  0.1874 -0.0941  0.2702
   34loPI   C1A  535   2.386  17.699   9.960 -0.1476 -0.1709  0.0298
   34loPI   C2A  536   2.459  17.669   9.558  0.0327  0.0354  0.3589
   34loPI   C3A  537   2.568  17.682   9.172 -0.0873 -0.1496  0.2289
   34loPI   C4A  538   2.646  17.755   8.715 -0.1345  0.3393 -0.1700
   34loPI   C5A  539   2.911  17.896   8.366  0.2742  0.0443 -0.0306
   34loPI   C6A  540   3.349  17.971   8.511 -0.2979  0.3346  0.3642
   34loPI   C1B  541   1.920  17.852   9.997 -0.1248 -0.1635 -0.0221
   34loPI   C2B  542   1.961  17.860   9.607  0.2014  0.2928 -0.1697
   34loPI   C3B  543   2.064  17.804   9.175 -0.2117 -0.2151 -0.0138
   34loPI   C4B  544   2.061  17.728   8.693 -0.2613  0.0414  0.1179
   35loPI    C1  545   6.749  13.022  10.791 -0.1927  0.3193 -0.0465
   35loPI    C2  546   6.805  13.051  11.186  0.0263 -0.1043 -0.0417
   35loPI    C3  547   7.013  13.285  10.936  0.1022 -0.0394  0.0816
   35loPI   PO4  548   6.589  12.721  10.844 -0.3419  0.0594  0.4008
   35loPI   GL1  549   6.511  12.596  10.441 -0.1468  0.1008 -0.0142
   35loPI   GL2  550   6.313  12.280  10.327 -0.1539  0.2857  0.0172
   35loPI   C1A  551   6.400  12.711   9.967 -0.1897  0.0339 -0.0056
   35loPI   C2A  552   6.585  12.671   9.597  0.0588  0.0050  0.0380
   35loPI   C3A  553   6.528  12.662   9.153 -0.3174 -0.0930 -0.0022
   35loPI   C4A  554   6.597  12.767   8.788 -0.0728  0.1606  0.0434
   35loPI   C5A  555   6.770  12.991   8.418  0.3426 -0.0386 -0.0312
   35loPI   C6A  556   6.693  13.383   8.258 -0.0530 -0.0734 -0.0783
   35loPI   C1B  557   6.259  12.255   9.840 -0.0747 -0.0620  0.0685
   35loPI   C2B  558   6.368  12.223   9.407 -0.1280  0.1057  0.1226
   35loPI   C3B  559   6.676  12.199   9.029 -0.0362 -0.1604  0.0174
   35loPI   C4B  560   6.855  12.276   8.722 -0.1152 -0.0105 -0.0052
   36loPI    C1  561  15.963   8.681  10.860  0.0257 -0.1314  0.0997
   36loPI    C2  562  15.581   8.755  10.954 -0.1154 -0.2995 -0.3168
   36loPI    C3  563  15.747   8.404  11.051  0.1166 -0.0177  0.3730
   36loPI   PO4  564  15.943   8.715  10.491  0.1363 -0.2725  0.0808
   36loPI   GL1  565  15.859   8.458  10.104 -0.3348  0.0282 -0.0281
   36loPI   GL2  566  16.040   8.240  10.047  0.0551 -0.0231 -0.1750
   36loPI   C1A  567  15.851   8.520   9.687 -0.0524 -0.2669 -0.2058
   36loPI   C2A  568  15.841   8.346   9.344 -0.1066  0.1379  0.1261
   36loPI   C3A  569  15.637   8.405   8.945 -0.1268 -0.0259  0.0521
   36loPI   C4A  570  15.428   8.512   8.521 -0.3425 -0.0537  0.0961
   36loPI   C5A  571  15.247   8.363   8.131  0.0993  0.0920 -0.0343
   36loPI   C6A  572  14.857   8.502   7.750  0.0541 -0.0527 -0.0871
   36loPI   C1B  573  16.049   8.031   9.629 -0.0765  0.2579  0.0231
   36loPI   C2B  574  15.815   7.840   9.379 -0.2120 -0.1947 -0.2426
   36loPI   C3B  575  15.829   7.928   9.039  0.0575  0.2474  0.0009
   36loPI   C4B  576  15.811   7.727   8.651  0.2318 -0.2481  0.0622
   37loPI    C1  577   5.453  12.802  11.125 -0.0781 -0.0725  0.3222
   37loPI    C2  578   5.481  12.408  11.188  0.0244 -0.0918  0.1598
   37loPI    C3  579   5.153  12.560  11.017  0.0787 -0.1345  0.0156
   37loPI   PO4  580   5.711  12.769  10.902 -0.1586  0.2374  0.0817
   37loPI   GL1  581   5.905  12.872  10.556 -0.0875  0.0436 -0.1985
   37loPI   GL2  582   6.219  12.963  10.516 -0.0934  0.1659 -0.0096
   37loPI   C1A  583   5.923  12.623  10.266  0.0654 -0.1218 -0.1099
   37loPI   C2A  584   5.893  12.606   9.899  0.2958  0.0095  0.2691
   37loPI   C3A  585   5.777  12.572   9.411 -0.0414  0.1417 -0.2033
   37loPI   C4A  586   5.661  12.589   9.030 -0.0876  0.2346 -0.2467
   37loPI   C5A  587   5.359  12.360   8.749 -0.1072  0.1080  0.4663
   37loPI   C6A  588   5.274  12.188   8.430 -0.1027  0.0301  0.0554
   37loPI   C1B  589   6.084  13.082  10.067  0.0701  0.0150  0.0186
   37loPI   C2B  590   6.075  13.018   9.663 -0.0034  0.0255  0.0829
   37loPI   C3B  591   6.112  12.987   9.244  0.1333  0.1680 -0.2436
   37loPI   C4B  592   6.042  12.962   8.810  0.2814  0.0102 -0.1027
   38loPI    C1  593   8.357  13.003  10.681  0.2330 -0.2490  0.0086
   38loPI    C2  594   8.076  13.077  10.956  0.1060 -0.0223 -0.1785
   38loPI    C3  595   8.384  12.839  11.045  0.2781  0.3599  0.2924
   38loPI   PO4  596   8.248  12.936  10.451 -0.3129 -0.1072 -0.0206
   38loPI   GL1  597   8.125  12.967  10.142 -0.0231 -0.2688  0.1439
   38loPI   GL2  598   7.855  12.755  10.176  0.0113  0.0312 -0.0485
   38loPI   C1A  599   8.208  13.011   9.632  0.0189  0.0951  0.3681
   38loPI   C2A  600   8.344  12.927   9.150  0.0524 -0.0237  0.1420
   38loPI   C3A  601   8.265  12.627   8.825  0.0688 -0.0247 -0.0459
   38loPI   C4A  602   8.093  12.388   8.444 -0.1030  0.1957  0.0901
   38loPI   C5A  603   8.097  12.064   8.203  0.1120 -0.0444 -0.0268
   38loPI   C6A  604   8.209  11.636   8.194  0.0092  0.1705  0.4198
   38loPI   C1B  605   7.898  12.644   9.795 -0.1271  0.2996  0.1507
   38loPI   C2B  606   7.987  12.606   9.314  0.6047 -0.1506 -0.3111
   38loPI   C3B  607   7.778  12.776   8.882  0.0028  0.2654  0.4305
   38loPI   C4B  608   7.814  12.833   8.530 -0.1512 -0.0569  0.0056
   39loPI    C1  609  17.115  14.489  10.574  0.3625  0.1675 -0.1127
   39loPI    C2  610  17.022  14.173  10.801 -0.0384  0.0974 -0.3638
   39loPI    C3  611  17.257  14.462  10.946  0.1428 -0.2009 -0.0502
   39loPI   PO4  612  17.239  14.445  10.357  0.2648  0.1276  0.0085
   39loPI   GL1  613  17.342  14.226  10.003  0.0556  0.0265  0.0015
   39loPI   GL2  614  17.525  14.494   9.998 -0.2704  0.0516 -0.1502
   39loPI   C1A  615  17.478  14.146   9.537 -0.0052 -0.0231 -0.2666
   39loPI   C2A  616  17.541  13.909   9.228  0.0128  0.3077 -0.0939
   39loPI   C3A  617  17.353  13.654   8.895  0.0482 -0.1191  0.1195
   39loPI   C4A  618  17.130  13.574   8.555 -0.5380 -0.0678  0.0074
   39loPI   C5A  619  17.057  13.301   8.208  0.0319  0.2217  0.1121
   39loPI   C6A  620  17.244  13.325   7.851  0.1648  0.0552 -0.3015
   39loPI   C1B  621  17.430  14.637   9.565 -0.0253  0.0286 -0.1094
   39loPI   C2B  622  17.440  14.455   9.182 -0.1263 -0.0829 -0.2231
   39loPI   C3B  623  17.585  14.210   8.854 -0.2205  0.0918  0.2847
   39loPI   C4B  624  17.540  13.925   8.475  0.1590 -0.2467  0.0410
   40loPI    C1  625  11.933  13.856  10.984 -0.0229 -0.1025  0.0562
   40loPI    C2  626  12.271  13.771  11.181  0.0451 -0.1644 -0.0850
   40loPI    C3  627  11.956  13.920  11.378  0.1852 -0.0184  0.0322
   40loPI   PO4  628  11.944  13.978  10.764  0.0720  0.1405 -0.3332
   40loPI   GL1  629  11.803  13.875  10.268 -0.2136 -0.0408 -0.1157
   40loPI   GL2  630  11.579  14.028  10.369 -0.1550 -0.1673 -0.2070
   40loPI   C1A  631  11.605  13.636   9.930  0.1616  0.0987 -0.0365
   40loPI   C2A  632  11.440  13.492   9.531  0.0458 -0.1004  0.1103
   40loPI   C3A  633  11.435  13.514   9.190  0.0720  0.1698  0.0583
   40loPI   C4A  634  11.220  13.633   8.787  0.0488  0.1531  0.0696
   40loPI   C5A  635  11.073  13.623   8.366  0.0881 -0.0466 -0.1725
   40loPI   C6A  636  10.791  13.546   8.032 -0.0412 -0.0450  0.1359
   40loPI   C1B  637  11.298  14.023   9.929 -0.0559 -0.2145  0.1570
   40loPI   C2B  638  11.110  13.878   9.477  0.0846 -0.0150 -0.1445
   40loPI   C3B  639  10.988  14.083   9.045 -0.1341 -0.2152 -0.1737
   40loPI   C4B  640  10.876  13.991   8.620  0.0974  0.1681 -0.1832
   41loPI    C1  641   1.343  16.084  11.101  0.0160  0.0341 -0.1664
   41loPI    C2  642   1.550  16.337  11.332  0.0972 -0.0644 -0.1306
   41loPI    C3  643   1.164  16.264  11.410  0.2103 -0.3567  0.1841
   41loPI   PO4  644   1.470  16.144  10.837 -0.0423 -0.1281  0.1446
   41loPI   GL1  645   1.548  15.884  10.466  0.0595 -0.0771 -0.3962
   41loPI   GL2  646   1.714  16.173  10.347  0.2675 -0.1119  0.1313
   41loPI   C1A  647   1.532  15.796  10.045  0.0139  0.0474 -0.1418
   41loPI   C2A  648   1.467  15.852   9.563 -0.2760 -0.0244  0.1009
   41loPI   C3A  649   1.448  15.943   9.241 -0.1913  0.1440 -0.0608
   41loPI   C4A  650   1.368  16.135   8.871  0.0769 -0.0513  0.2846
   41loPI   C5A  651   1.228  15.949   8.459  0.0528 -0.2702  0.1183
   41loPI   C6A  652   0.834  15.839   8.263  0.0047 -0.2474 -0.2113
   41loPI   C1B  653   1.724  16.262   9.921 -0.0760 -0.0108  0.0349
   41loPI   C2B  654   1.786  16.312   9.516 -0.1048 -0.0125 -0.0364
   41loPI   C3B  655   1.796  16.347   9.026  0.0530 -0.3569 -0.2689
   41loPI   C4B  656   1.831  16.392   8.682 -0.0015 -0.2017 -0.2639
   42loPI    C1  657   1.489  16.676  10.954 -0.0208 -0.0361 -0.0013
   42loPI    C2  658   1.130  16.501  10.920 -0.0391  0.0040 -0.0154
   42loPI    C3  659   1.196  16.769  11.210  0.1154 -0.3356  0.2697
   42loPI   PO4  660   1.591  16.640  10.656 -0.1482 -0.0337 -0.0063
   42loPI   GL1  661   1.483  16.620  10.219  0.0019 -0.0361  0.1014
   42loPI   GL2  662   1.174  16.720  10.177  0.2272  0.0094  0.1212
   42loPI   C1A  663   1.473  16.729   9.736 -0.0358  0.1026  0.2202
   42loPI   C2A  664   1.647  16.844   9.294 -0.0651  0.0894 -0.2915
   42loPI   C3A  665   1.743  16.862   8.875  0.0216  0.0513  0.1878
   42loPI   C4A  666   2.108  16.785   8.558 -0.0932  0.0896 -0.0405
   42loPI   C5A  667   2.319  16.735   8.140 -0.0556  0.1187  0.1278
   42loPI   C6A  668   2.226  17.001   7.613 -0.0982 -0.0178 -0.2961
   42loPI   C1B  669   1.010  16.918   9.817  0.0894  0.1816  0.1531
   42loPI   C2B  670   0.991  16.900   9.340  0.1211  0.0866  0.1472
   42loPI   C3B  671   0.818  16.987   8.849  0.1811  0.1996 -0.2646
   42loPI   C4B  672   0.691  17.129   8.465 -0.0868  0.1567  0.2809
   43loPI    C1  673  12.388  15.869  11.071  0.0303 -0.0905 -0.0220
   43loPI    C2  674  12.600  15.741  11.385  0.1135 -0.0543 -0.0632
   43loPI    C3  675  12.447  16.111  11.384  0.1058 -0.0575 -0.0614
   43loPI   PO4  676  12.454  15.763  10.868  0.0957  0.1718  0.1429
   43loPI   GL1  677  12.567  15.826  10.294 -0.0502  0.0448  0.0008
   43loPI   GL2  678  12.740  15.596  10.330 -0.0893 -0.0331  0.1120
   43loPI   C1A  679  12.803  16.192  10.093 -0.0566 -0.2116  0.0651
   43loPI   C2A  680  12.815  16.303   9.665 -0.0385 -0.2392 -0.2357
   43loPI   C3A  681  12.869  16.277   9.244 -0.0590 -0.1364 -0.0596
   43loPI   C4A  682  12.793  16.292   8.818 -0.1899  0.0944  0.2848
   43loPI   C5A  683  12.862  15.972   8.428  0.2906  0.0752 -0.0012
   43loPI   C6A  684  12.891  15.588   8.240 -0.2289 -0.1655 -0.1709
   43loPI   C1B  685  12.787  15.613   9.883  0.0343  0.1474  0.1812
   43loPI   C2B  686  12.788  15.815   9.439 -0.3373 -0.1005  0.3302
   43loPI   C3B  687  12.692  15.849   9.008  0.2281 -0.2377  0.1004
   43loPI   C4B  688  12.706  15.481   8.726  0.0989 -0.1254 -0.2550
   44loPI    C1  689  10.707  13.780  10.821 -0.1900 -0.0319  0.1162
   44loPI    C2  690  10.753  14.025  11.134  0.0045 -0.2075  0.2274
   44loPI    C3  691  11.058  13.796  11.012  0.0512  0.1281 -0.3234
   44loPI   PO4  692  10.534  13.904  10.599 -0.1427  0.1818 -0.0065
   44loPI   GL1  693  10.722  14.118  10.204  0.0631 -0.2043  0.2047
   44loPI   GL2  694  10.884  14.368  10.203 -0.1113 -0.0459  0.0461
   44loPI   C1A  695  10.715  14.259   9.737  0.2247  0.0973 -0.1565
   44loPI   C2A  696  10.625  14.423   9.282  0.2586 -0.0290  0.0486
   44loPI   C3A  697  10.548  14.367   8.888 -0.2501 -0.0954  0.0877
   44loPI   C4A  698  10.233  14.315   8.498 -0.0098 -0.0876  0.0204
   44loPI   C5A  699   9.912  13.992   8.361  0.1252  0.0896  0.1624
   44loPI   C6A  700   9.813  13.694   8.045 -0.1445  0.3124 -0.0755
   44loPI   C1B  701  10.471  14.624   9.988 -0.0772  0.0515 -0.0584
   44loPI   C2B  702  10.246  14.516   9.698 -0.1671 -0.1690  0.1286
   44loPI   C3B  703  10.118  14.631   9.225 -0.0523  0.0420 -0.0033
   44loPI   C4B  704   9.953  14.611   8.846 -0.0849  0.1647  0.2414
   45loPI    C1  705  13.224   3.163  10.622 -0.1853  0.0113 -0.2775
   45loPI    C2  706  13.415   3.504  10.535 -0.1006  0.0535  0.0598
   45loPI    C3  707  13.021   3.507  10.604 -0.1724  0.0163 -0.3283
   45loPI   PO4  708  13.382   2.996  10.478 -0.2071 -0.2661  0.2051
   45loPI   GL1  709  13.373   2.760  10.201 -0.1346 -0.0159 -0.0237
   45loPI   GL2  710  13.009   2.750  10.271  0.1399  0.2972 -0.0237
   45loPI   C1A  711  13.206   2.825   9.790 -0.0816  0.1311  0.2063
   45loPI   C2A  712  13.137   2.738   9.350  0.0637 -0.0398  0.1832
   45loPI   C3A  713  13.068   2.606   8.970 -0.1129 -0.2944  0.0810
   45loPI   C4A  714  12.883   2.721   8.585 -0.1353  0.2606 -0.1594
   45loPI   C5A  715  12.727   2.516   8.294 -0.2727  0.1874 -0.1937
   45loPI   C6A  716  12.441   2.073   8.164 -0.0958 -0.1568  0.1738
   45loPI   C1B  717  12.852   2.569   9.984  0.0841  0.2169 -0.0006
   45loPI   C2B  718  12.809   2.362   9.628  0.3615 -0.0248  0.2295
   45loPI   C3B  719  12.676   2.370   9.145 -0.0992  0.1855  0.2508
   45loPI   C4B  720  12.524   2.372   8.760  0.1149 -0.1208 -0.0558
   46loPI    C1  721   1.241  11.240  11.135  0.0470  0.0397  0.0569
   46loPI    C2  722   0.919  11.477  11.152  0.0225  0.0076  0.0395
   46loPI    C3  723   0.893  11.095  11.269  0.0013 -0.0527 -0.1581
   46loPI   PO4  724   1.358  11.376  10.877 -0.0508 -0.2621  0.0334
   46loPI   GL1  725   1.315  11.583  10.418  0.2916  0.1724 -0.2419
   46loPI   GL2  726   1.199  11.920  10.360  0.1858 -0.1837 -0.0353
   46loPI   C1A  727   1.354  11.320  10.025 -0.0573  0.0459  0.1338
   46loPI   C2A  728   1.495  11.338   9.635 -0.0751  0.0017  0.0310
   46loPI   C3A  729   1.593  11.345   9.203 -0.0133  0.2067 -0.0466
   46loPI   C4A  730   2.038  11.404   9.039 -0.1835 -0.0505  0.0404
   46loPI   C5A  731   2.247  11.131   8.723  0.1366  0.2536  0.2780
   46loPI   C6A  732   2.596  10.950   8.500 -0.0944 -0.0048 -0.0120
   46loPI   C1B  733   1.059  11.766   9.969 -0.1457 -0.1950  0.1052
   46loPI   C2B  734   0.985  11.483   9.674 -0.1333 -0.1848 -0.2192
   46loPI   C3B  735   1.022  11.433   9.302 -0.0061 -0.3247  0.1303
   46loPI   C4B  736   1.081  11.338   8.851 -0.3100 -0.2341 -0.0217
   47loPI    C1  737  14.707   0.193  10.761  0.1016  0.0000  0.0166
   47loPI    C2  738  14.688  -0.161  10.945  0.2341 -0.1486 -0.2499
   47loPI    C3  739  14.860   0.150  11.128 -0.0696 -0.1630  0.0702
   47loPI   PO4  740  14.483   0.172  10.549 -0.0391 -0.0585  0.1086
   47loPI   GL1  741  14.428   0.194  10.018  0.0481 -0.2971 -0.4399
   47loPI   GL2  742  14.496  -0.063   9.941  0.3309 -0.1810  0.2503
   47loPI   C1A  743  14.372   0.347   9.595 -0.2281 -0.2126  0.0506
   47loPI   C2A  744  14.303   0.614   9.181  0.0761  0.0275  0.0270
   47loPI   C3A  745  14.261   0.723   8.801  0.1102 -0.3033 -0.2100
   47loPI   C4A  746  14.109   0.437   8.433 -0.0631  0.0626  0.1736
   47loPI   C5A  747  13.952   0.145   8.141  0.0307 -0.0001  0.4202
   47loPI   C6A  748  14.004  -0.271   7.961  0.0795  0.1527 -0.1897
   47loPI   C1B  749  14.582  -0.110   9.513  0.0573 -0.0893 -0.0295
   47loPI   C2B  750  14.614  -0.295   9.046 -0.1692  0.0325  0.1152
   47loPI   C3B  751  14.707  -0.349   8.704 -0.0111 -0.4124 -0.0529
   47loPI   C4B  752  14.754  -0.514   8.348  0.2000 -0.1605 -0.1547
   48loPI    C1  753   5.671   7.163  10.913  0.2418 -0.0017 -0.1580
   48loPI    C2  754   5.516   7.530  10.946 -0.0557 -0.1516  0.1846
   48loPI    C3  755   5.770   7.395  11.223 -0.0311 -0.2439  0.1178
   48loPI   PO4  756   5.544   7.091  10.724  0.1912 -0.5161  0.0483
   48loPI   GL1  757   5.648   6.739  10.342  0.2963 -0.2835 -0.1373
   48loPI   GL2  758   5.628   6.333  10.226 -0.0458  0.1578 -0.1005
   48loPI   C1A  759   5.814   6.702   9.951 -0.1187  0.0073  0.0679
   48loPI   C2A  760   5.754   6.700   9.490  0.0458  0.2111 -0.0600
   48loPI   C3A  761   5.663   6.691   9.083  0.0407 -0.1480  0.0803
   48loPI   C4A  762   5.652   6.550   8.615  0.0526 -0.1131  0.1411
   48loPI   C5A  763   5.877   6.633   8.234 -0.0528  0.0975  0.1599
   48loPI   C6A  764   6.218   6.416   8.095 -0.1500  0.2594 -0.0823
   48loPI   C1B  765   5.729   6.190   9.801  0.2927 -0.1398 -0.2100
   48loPI   C2B  766   5.802   6.190   9.399 -0.0563 -0.0402  0.0944
   48loPI   C3B  767   5.899   6.133   8.986  0.0271 -0.0234 -0.0657
   48loPI   C4B  768   5.973   6.170   8.489 -0.0816  0.2869  0.0167
   49loPI    C1  769  16.421   9.645  10.497  0.1150 -0.0911  0.1756
   49loPI    C2  770  16.470   9.877  10.819 -0.1056  0.0117  0.1369
   49loPI    C3  771  16.217   9.568  10.833 -0.2400  0.1144  0.0138
   49loPI   PO4  772  16.478   9.806  10.286  0.2050  0.1906 -0.1827
   49loPI   GL1  773  16.673   9.981   9.908 -0.0004 -0.2132 -0.1781
   49loPI   GL2  774  16.997  10.005   9.845 -0.1755  0.0233 -0.1061
   49loPI   C1A  775  16.570   9.851   9.537  0.2171 -0.2971 -0.0203
   49loPI   C2A  776  16.641  10.012   9.209  0.2067  0.1577  0.2495
   49loPI   C3A  777  16.771  10.344   8.921  0.0310  0.1055  0.0151
   49loPI   C4A  778  17.091  10.645   9.013  0.0472 -0.5608  0.0073
   49loPI   C5A  779  17.434  10.897   8.811  0.2883 -0.0459  0.0059
   49loPI   C6A  780  17.752  11.269   8.617 -0.3043 -0.0518  0.0956
   49loPI   C1B  781  17.137   9.947   9.491  0.0145  0.1770 -0.1300
   49loPI   C2B  782  17.095   9.909   9.063  0.0791 -0.0314 -0.1050
   49loPI   C3B  783  17.073   9.942   8.596  0.0193  0.0589 -0.0262
   49loPI   C4B  784  17.026  10.229   8.285  0.1285  0.0924 -0.0067
   50loPI    C1  785   8.159  17.953  10.987 -0.1374 -0.0522  0.0704
   50loPI    C2  786   8.521  17.785  10.952 -0.0511  0.1403  0.0249
   50loPI    C3  787   8.432  18.002  11.276 -0.0440  0.2873 -0.0710
   50loPI   PO4  788   8.041  17.898  10.693 -0.4824 -0.1099 -0.2043
   50loPI   GL1  789   7.978  17.643  10.328  0.0289 -0.1442  0.2245
   50loPI   GL2  790   7.935  17.428  10.098  0.1324 -0.0084  0.1037
   50loPI   C1A  791   7.826  17.924   9.991  0.1646  0.0035  0.0162
   50loPI   C2A  792   7.776  17.997   9.481 -0.3059 -0.2121  0.2184
   50loPI   C3A  793   7.714  17.920   9.040  0.1376 -0.1674  0.0899
   50loPI   C4A  794   7.787  17.972   8.567  0.0767  0.2012 -0.3168
   50loPI   C5A  795   7.585  17.978   8.213  0.3965 -0.0054  0.2182
   50loPI   C6A  796   7.380  18.326   8.058 -0.2016  0.1031  0.2251
   50loPI   C1B  797   8.064  17.559   9.762  0.1460 -0.0287 -0.1595
   50loPI   C2B  798   7.936  17.518   9.367  0.0362  0.0568  0.1876
   50loPI   C3B  799   7.820  17.436   8.972 -0.1720  0.1534 -0.4085
   50loPI   C4B  800   7.500  17.567   8.681  0.1169 -0.1699 -0.0808
   51loPI    C1  801   9.546  14.485  10.998 -0.0667  0.0538 -0.0616
   51loPI    C2  802   9.746  14.207  11.204  0.0350  0.0509 -0.1631
   51loPI    C3  803   9.365  14.144  11.101 -0.0163  0.0523  0.0225
   51loPI   PO4  804   9.799  14.468  10.791 -0.0632 -0.3340 -0.0401
   51loPI   GL1  805   9.866  14.430  10.334  0.0133  0.1089 -0.1680
   51loPI   GL2  806   9.971  14.689  10.161  0.1091 -0.1523  0.0061
   51loPI   C1A  807  10.178  14.149   9.995 -0.1012 -0.1925  0.2761
   51loPI   C2A  808  10.342  13.798   9.676 -0.0637  0.3028  0.2267
   51loPI   C3A  809  10.428  13.413   9.548  0.1169  0.2056 -0.1599
   51loPI   C4A  810  10.343  13.207   9.099 -0.1072  0.2147  0.0294
   51loPI   C5A  811  10.212  12.957   8.806 -0.3528 -0.0814 -0.0852
   51loPI   C6A  812  10.366  12.759   8.398 -0.1195 -0.0234  0.1314
   51loPI   C1B  813   9.786  14.534   9.826  0.0387 -0.2123  0.3645
   51loPI   C2B  814   9.632  14.476   9.417  0.0578  0.0157 -0.3902
   51loPI   C3B  815   9.702  14.141   9.065 -0.1198  0.0096 -0.1684
   51loPI   C4B  816   9.744  13.766   8.794 -0.1161 -0.1455 -0.1198
   52loPI    C1  817  10.629  12.811  10.742 -0.2284 -0.0852 -0.0859
   52loPI    C2  818  10.734  12.471  10.925 -0.0156  0.0618  0.0691
   52loPI    C3  819  10.634  12.793  11.141 -0.0104  0.1611 -0.0746
   52loPI   PO4  820  10.792  12.845  10.561  0.0861 -0.0126 -0.1057
   52loPI   GL1  821  10.847  13.086  10.193 -0.2553 -0.0669 -0.0962
   52loPI   GL2  822  11.143  12.776  10.129  0.0077 -0.0780  0.1213
   52loPI   C1A  823  10.795  13.015   9.789  0.0599  0.0896 -0.2302
   52loPI   C2A  824  10.674  12.994   9.388 -0.1339 -0.0341  0.4983
   52loPI   C3A  825  10.707  12.780   8.940  0.2204  0.0380  0.2151
   52loPI   C4A  826  10.853  12.675   8.551  0.1157  0.0905 -0.0491
   52loPI   C5A  827  11.165  12.476   8.230 -0.1856  0.2481 -0.1374
   52loPI   C6A  828  11.428  12.595   7.808  0.0555  0.0954  0.0049
   52loPI   C1B  829  11.029  12.502   9.860 -0.0166  0.1435  0.0300
   52loPI   C2B  830  11.105  12.572   9.436  0.3516  0.0608  0.0088
   52loPI   C3B  831  11.172  12.619   8.976  0.1776  0.1116 -0.0839
   52loPI   C4B  832  11.328  12.791   8.616 -0.0692 -0.2535 -0.3771
   53loPI    C1  833  12.054  12.140  11.044  0.0656  0.0524 -0.0296
   53loPI    C2  834  12.376  12.373  11.088  0.1892 -0.1038 -0.0983
   53loPI    C3  835  12.299  12.085  11.355 -0.0415  0.1056  0.0647
   53loPI   PO4  836  12.072  12.145  10.733  0.1327  0.0157 -0.0572
   53loPI   GL1  837  12.088  12.143  10.351  0.2006  0.3458 -0.4368
   53loPI   GL2  838  12.446  12.031  10.273  0.1562  0.0273 -0.0098
   53loPI   C1A  839  12.202  12.274   9.914 -0.3763 -0.0918 -0.0747
   53loPI   C2A  840  11.959  12.354   9.551 -0.2687  0.0675  0.3198
   53loPI   C3A  841  11.841  12.103   9.272 -0.0812 -0.0762  0.1978
   53loPI   C4A  842  11.692  11.723   9.189  0.1241 -0.3197  0.1674
   53loPI   C5A  843  11.643  11.613   8.731  0.0292 -0.0280 -0.0638
   53loPI   C6A  844  11.891  11.565   8.288 -0.0776  0.0678 -0.1615
   53loPI   C1B  845  12.336  11.755   9.988 -0.2962 -0.0665  0.2295
   53loPI   C2B  846  12.410  11.860   9.605  0.1216 -0.1147 -0.4892
   53loPI   C3B  847  12.188  11.684   9.155 -0.2551 -0.2845  0.0703
   53loPI   C4B  848  12.173  11.593   8.803  0.1341  0.0056 -0.1564
   54loPI    C1  849   0.142   6.824  10.701 -0.2333  0.0436  0.0036
   54loPI    C2  850   0.408   6.686  10.967 -0.1646  0.0250 -0.0744
   54loPI    C3  851   0.213   7.028  11.038 -0.0904  0.0594 -0.0354
   54loPI   PO4  852   0.250   6.699  10.435  0.0676  0.0751 -0.1067
   54loPI   GL1  853   0.270   6.325  10.136  0.0444  0.0694  0.2005
   54loPI   GL2  854   0.338   5.990  10.085 -0.2242  0.1815 -0.0565
   54loPI   C1A  855   0.208   6.438   9.736 -0.1762 -0.1832  0.0409
   54loPI   C2A  856   0.098   6.419   9.274  0.0154 -0.3082  0.0542
   54loPI   C3A  857  -0.048   6.559   8.871 -0.0370 -0.1899  0.2711
   54loPI   C4A  858  -0.151   6.636   8.532 -0.0788 -0.2037  0.0571
   54loPI   C5A  859  -0.082   6.910   8.216  0.0288 -0.1155 -0.4956
   54loPI   C6A  860   0.146   7.298   8.140 -0.0175  0.3288 -0.1389
   54loPI   C1B  861   0.158   5.974   9.730 -0.0563  0.2838  0.0094
   54loPI   C2B  862   0.130   5.949   9.229  0.1760  0.0463 -0.3660
   54loPI   C3B  863   0.026   6.054   8.798 -0.4791 -0.1617  0.0205
   54loPI   C4B  864  -0.094   6.100   8.361 -0.1201  0.0221  0.0331
   55loPI    C1  865  13.159   3.982  10.525  0.1424  0.1319 -0.0767
   55loPI    C2  866  13.546   4.022  10.617  0.1114 -0.1413  0.1895
   55loPI    C3  867  13.283   3.922  10.901 -0.1318 -0.1108 -0.0215
   55loPI   PO4  868  13.089   3.878  10.241 -0.0875 -0.1931  0.0161
   55loPI   GL1  869  12.993   3.575   9.950 -0.3770  0.0535 -0.1458
   55loPI   GL2  870  13.241   3.300  10.079  0.0512  0.0806 -0.0160
   55loPI   C1A  871  13.189   3.921   9.586 -0.0967  0.1646  0.2628
   55loPI   C2A  872  13.258   4.079   9.164  0.2643  0.1067  0.0402
   55loPI   C3A  873  13.271   4.354   8.720  0.2486  0.0622 -0.0557
   55loPI   C4A  874  13.548   4.538   8.458  0.1731  0.0869  0.0898
   55loPI   C5A  875  13.772   4.492   8.070  0.2659 -0.3970 -0.1045
   55loPI   C6A  876  14.072   4.279   7.986 -0.3770  0.2462  0.0185
   55loPI   C1B  877  13.040   3.238   9.590 -0.2675 -0.0872 -0.1965
   55loPI   C2B  878  13.027   3.174   9.164 -0.0986  0.2287 -0.1070
   55loPI   C3B  879  12.981   3.154   8.790  0.0560  0.4337 -0.0040
   55loPI   C4B  880  12.741   3.239   8.579  0.0200  0.2299  0.1616
   56loPI    C1  881  11.248   3.151  10.740  0.1627  0.1327  0.0020
   56loPI    C2  882  11.201   3.439  11.015  0.2413  0.1783 -0.0319
   56loPI    C3  883  11.501   3.177  11.049  0.1918  0.1228 -0.0211
   56loPI   PO4  884  11.234   3.212  10.534  0.2590 -0.1390  0.1713
   56loPI   GL1  885  11.219   3.420  10.142 -0.1400  0.2563 -0.1524
   56loPI   GL2  886  10.785   3.334  10.215 -0.2868  0.1344  0.4017
   56loPI   C1A  887  11.112   3.286   9.639 -0.1885  0.0710 -0.1541
   56loPI   C2A  888  11.201   3.244   9.247  0.2434  0.2828 -0.1950
   56loPI   C3A  889  11.228   3.302   8.853  0.2019 -0.3297  0.1319
   56loPI   C4A  890  11.271   3.237   8.508 -0.1364 -0.1237 -0.0047
   56loPI   C5A  891  11.090   3.431   8.147 -0.2211 -0.0626  0.0314
   56loPI   C6A  892  10.830   3.568   7.839  0.0870 -0.1498 -0.1073
   56loPI   C1B  893  10.613   3.268   9.833 -0.0903  0.0902 -0.3092
   56loPI   C2B  894  10.680   3.169   9.408  0.2103  0.1635  0.2394
   56loPI   C3B  895  10.621   3.160   8.948  0.1735  0.0548 -0.1526
   56loPI   C4B  896  10.818   3.084   8.547 -0.1719  0.0244 -0.1780
   57loPI    C1  897   7.687   1.590  10.773  0.3330 -0.0858  0.1709
   57loPI    C2  898   7.287   1.598  10.791  0.3154  0.0140 -0.1853
   57loPI    C3  899   7.503   1.576  11.128  0.0135  0.0635  0.0149
   57loPI   PO4  900   7.693   1.474  10.523 -0.1664  0.0448  0.0648
   57loPI   GL1  901   7.479   1.701  10.283 -0.0465 -0.0623 -0.0543
   57loPI   GL2  902   7.207   1.872  10.308  0.1911  0.0654 -0.1350
   57loPI   C1A  903   7.402   1.710   9.838  0.1551 -0.1586 -0.1602
   57loPI   C2A  904   7.296   1.676   9.437  0.0011  0.3689 -0.3454
   57loPI   C3A  905   7.242   1.651   9.020  0.1846 -0.1139 -0.1429
   57loPI   C4A  906   7.087   1.386   8.644 -0.1733  0.1669  0.2547
   57loPI   C5A  907   6.939   1.103   8.277 -0.1378 -0.1771  0.1290
   57loPI   C6A  908   6.810   0.936   7.933  0.2162 -0.2335 -0.3678
   57loPI   C1B  909   7.013   2.051   9.925  0.7508 -0.3780 -0.1813
   57loPI   C2B  910   6.900   2.039   9.509 -0.1177  0.0822 -0.1614
   57loPI   C3B  911   6.783   1.902   9.066  0.0293 -0.1632  0.0203
   57loPI   C4B  912   6.990   1.923   8.668  0.0564 -0.0371  0.1231
   58loPI    C1  913   5.589   9.755  10.893  0.0113 -0.1001  0.1762
   58loPI    C2  914   5.908   9.986  10.821  0.0821 -0.2481  0.0095
   58loPI    C3  915   5.941   9.669  11.062 -0.0034 -0.1140  0.1999
   58loPI   PO4  916   5.465   9.707  10.610 -0.2044  0.1647 -0.1376
   58loPI   GL1  917   5.460   9.820  10.158 -0.0538  0.0536 -0.0447
   58loPI   GL2  918   5.639   9.519  10.206  0.1974 -0.0694  0.1814
   58loPI   C1A  919   5.319   9.940   9.780  0.0384  0.0118 -0.0808
   58loPI   C2A  920   5.327   9.983   9.371 -0.1618 -0.0165  0.1318
   58loPI   C3A  921   5.287   9.777   8.989 -0.2914  0.1471  0.0457
   58loPI   C4A  922   5.265   9.523   8.576 -0.2305 -0.2617  0.1636
   58loPI   C5A  923   4.909   9.457   8.277  0.0794 -0.0845 -0.2292
   58loPI   C6A  924   4.502   9.699   8.341  0.0864 -0.1591 -0.1198
   58loPI   C1B  925   5.677   9.591   9.734 -0.4181 -0.0738 -0.0212
   58loPI   C2B  926   5.722   9.510   9.345 -0.0023 -0.4642 -0.0155
   58loPI   C3B  927   5.734   9.526   8.915  0.0274 -0.2224  0.0741
   58loPI   C4B  928   5.696   9.229   8.523 -0.0240  0.3057 -0.1073
   59loPI    C1  929   4.364  17.676  10.896 -0.1368  0.0840  0.2187
   59loPI    C2  930   4.567  17.540  11.212 -0.0447 -0.0053  0.1220
   59loPI    C3  931   4.515  17.305  10.893 -0.0104  0.1358  0.0119
   59loPI   PO4  932   4.452  17.876  10.827 -0.0537  0.1044  0.1156
   59loPI   GL1  933   4.722  18.031  10.544  0.0209 -0.0075 -0.4049
   59loPI   GL2  934   4.845  18.374  10.556 -0.1381 -0.2571 -0.0601
   59loPI   C1A  935   4.783  18.263  10.119  0.2061 -0.0048  0.1271
   59loPI   C2A  936   4.593  18.312   9.701  0.0417 -0.0896  0.1590
   59loPI   C3A  937   4.536  18.389   9.237  0.1055  0.0974 -0.2264
   59loPI   C4A  938   4.279  18.441   8.875 -0.1447  0.1158 -0.1253
   59loPI   C5A  939   4.022  18.727   8.625  0.0881  0.2521  0.0898
   59loPI   C6A  940   3.823  19.113   8.463 -0.0637 -0.2280 -0.0458
   59loPI   C1B  941   4.720  18.741  10.172  0.2751 -0.0696 -0.1218
   59loPI   C2B  942   4.669  18.827   9.805  0.2058  0.0986  0.2361
   59loPI   C3B  943   4.703  18.819   9.346 -0.1280 -0.1108  0.1032
   59loPI   C4B  944   4.656  18.927   8.944 -0.0856  0.2691  0.0162
   60loPI    C1  945  11.736  17.841  10.907 -0.0496 -0.2057 -0.2398
   60loPI    C2  946  11.979  17.544  10.792  0.0256 -0.2645  0.0629
   60loPI    C3  947  12.089  17.790  11.089 -0.0430  0.0596 -0.1741
   60loPI   PO4  948  11.662  17.940  10.649  0.0955  0.1197  0.0699
   60loPI   GL1  949  11.730  17.750  10.319  0.0442  0.0360 -0.0149
   60loPI   GL2  950  11.482  17.485  10.210 -0.1066  0.0286 -0.0198
   60loPI   C1A  951  11.906  17.769   9.847  0.0707 -0.1168  0.1983
   60loPI   C2A  952  11.883  17.576   9.458 -0.0038 -0.3260  0.1679
   60loPI   C3A  953  11.754  17.482   9.049 -0.4596 -0.0204 -0.2624
   60loPI   C4A  954  12.071  17.349   8.810  0.1278  0.2057  0.0977
   60loPI   C5A  955  12.399  17.148   8.639 -0.4170 -0.1813 -0.2933
   60loPI   C6A  956  12.846  16.912   8.558  0.1680  0.1821  0.3679
   60loPI   C1B  957  11.622  17.352   9.856  0.2271 -0.0770  0.2096
   60loPI   C2B  958  11.737  17.134   9.411  0.3865 -0.0938 -0.4465
   60loPI   C3B  959  11.783  16.952   8.985  0.1657  0.0534 -0.1620
   60loPI   C4B  960  11.888  16.908   8.564 -0.0373 -0.0556 -0.3126
   61loPI    C1  961   4.669   2.184  11.296 -0.0834  0.1319  0.2129
   61loPI    C2  962   4.460   1.887  11.463 -0.0903  0.0359  0.0359
   61loPI    C3  963   4.303   2.254  11.442 -0.2485 -0.0389 -0.1094
   61loPI   PO4  964   4.779   2.092  10.994  0.0930 -0.0083  0.2235
   61loPI   GL1  965   4.727   2.148  10.638  0.3035 -0.1274  0.1581
   61loPI   GL2  966   4.415   1.869  10.504 -0.1483  0.3144 -0.1130
   61loPI   C1A  967   4.634   2.329  10.251 -0.2108  0.1839  0.2625
   61loPI   C2A  968   4.669   2.159   9.814 -0.2052 -0.1247 -0.2962
   61loPI   C3A  969   4.632   2.338   9.446 -0.2765  0.1173  0.1445
   61loPI   C4A  970   4.618   2.319   9.007 -0.2227 -0.0721  0.0509
   61loPI   C5A  971   4.749   2.464   8.548 -0.0939 -0.1160  0.0412
   61loPI   C6A  972   4.402   2.561   8.230 -0.3328  0.0425 -0.1335
   61loPI   C1B  973   4.868   1.843  10.216  0.1109 -0.2179  0.0678
   61loPI   C2B  974   5.012   1.814   9.766 -0.1825 -0.3281 -0.0832
   61loPI   C3B  975   5.011   2.004   9.317 -0.0832  0.1374 -0.0505
   61loPI   C4B  976   4.964   1.838   8.955  0.0447  0.0961 -0.1783
   62loPI    C1  977   5.431   1.050  10.831  0.1868  0.1137  0.0252
   62loPI    C2  978   5.557   0.957  11.199  0.0962  0.1213  0.0584
   62loPI    C3  979   5.413   1.323  11.124 -0.2223  0.0091  0.1044
   62loPI   PO4  980   5.353   0.887  10.713  0.5267  0.2605 -0.1835
   62loPI   GL1  981   5.395   0.800  10.392 -0.1624  0.1475 -0.3071
   62loPI   GL2  982   5.259   0.538  10.322 -0.0153 -0.1436  0.1355
   62loPI   C1A  983   5.111   1.015  10.004 -0.0618 -0.1955 -0.2683
   62loPI   C2A  984   5.184   1.013   9.655  0.3265 -0.2066 -0.3140
   62loPI   C3A  985   5.193   1.066   9.180  0.0268 -0.2132 -0.0766
   62loPI   C4A  986   5.116   1.216   8.749  0.0667  0.5291 -0.1803
   62loPI   C5A  987   5.374   1.232   8.431  0.0810  0.0509 -0.0449
   62loPI   C6A  988   5.804   1.234   8.266 -0.0916 -0.0207 -0.1295
   62loPI   C1B  989   5.161   0.487   9.921 -0.0475  0.3387 -0.0286
   62loPI   C2B  990   5.027   0.571   9.528  0.0877  0.0941  0.1476
   62loPI   C3B  991   5.072   0.645   9.053 -0.0963  0.3205 -0.1434
   62loPI   C4B  992   4.793   0.566   8.670  0.0275 -0.1566  0.0691
   63loPI    C1  993   0.152   7.461  10.486 -0.1303  0.0767  0.0186
   63loPI    C2  994   0.305   7.434  10.855  0.1545 -0.1392 -0.1117
   63loPI    C3  995   0.096   7.757  10.749  0.1704 -0.0230  0.2010
   63loPI   PO4  996   0.015   7.192  10.378  0.1417  0.3476 -0.3871
   63loPI   GL1  997  -0.004   7.036   9.990  0.2752 -0.0276 -0.0404
   63loPI   GL2  998   0.237   7.047   9.966  0.4525 -0.1536  0.0547
   63loPI   C1A  999  -0.289   6.789   9.780  0.0179 -0.1141  0.1263
   63loPI   C2A 1000  -0.301   6.690   9.397  0.1098 -0.0791 -0.1765
   63loPI   C3A 1001  -0.534   6.743   8.952  0.0370  0.1080  0.1383
   63loPI   C4A 1002  -0.650   6.704   8.493  0.1160  0.1672 -0.3552
   63loPI   C5A 1003  -0.442   6.594   8.097  0.1122  0.1167 -0.1084
   63loPI   C6A 1004  -0.365   6.182   7.929  0.1163  0.1413  0.2788
   63loPI   C1B 1005   0.179   6.929   9.576 -0.0337 -0.1282 -0.1118
   63loPI   C2B 1006   0.325   6.901   9.145  0.1720 -0.1194 -0.1594
   63loPI   C3B 1007   0.529   6.720   8.760  0.0043 -0.0341 -0.2767
   63loPI   C4B 1008   0.768   6.574   8.379 -0.0120  0.0285 -0.0394
   64loPI    C1 1009  16.321   0.052  11.101 -0.0563 -0.0108  0.0191
   64loPI    C2 1010  16.438  -0.280  11.291  0.1004 -0.0926 -0.2143
   64loPI    C3 1011  16.050  -0.218  11.216  0.0503 -0.1220  0.0115
   64loPI   PO4 1012  16.500   0.102  10.975 -0.1225 -0.1115  0.2286
   64loPI   GL1 1013  16.530   0.191  10.606 -0.0721 -0.1347  0.1208
   64loPI   GL2 1014  16.736  -0.077  10.532 -0.0643  0.0494 -0.2911
   64loPI   C1A 1015  16.361  -0.003  10.192  0.1360 -0.1640  0.1529
   64loPI   C2A 1016  16.120   0.063   9.709 -0.0218  0.0048 -0.2232
   64loPI   C3A 1017  15.863   0.031   9.325  0.0036 -0.3029 -0.0457
   64loPI   C4A 1018  15.959   0.047   8.845 -0.2652 -0.1403  0.2353
   64loPI   C5A 1019  16.104  -0.105   8.409  0.0482  0.1193 -0.0914
   64loPI   C6A 1020  15.960  -0.253   8.084 -0.0175 -0.0026 -0.0235
   64loPI   C1B 1021  16.878   0.184  10.100  0.1876  0.2222 -0.2054
   64loPI   C2B 1022  16.826   0.180   9.669  0.2220  0.1865  0.0126
   64loPI   C3B 1023  16.845   0.197   9.276 -0.1524 -0.2376 -0.0824
   64loPI   C4B 1024  16.743   0.242   8.888  0.0635 -0.2338  0.0997
   65loPI    C1 1025   9.305   7.763  10.735 -0.0783 -0.2222  0.0625
   65loPI    C2 1026   9.257   8.046  11.013 -0.0984 -0.0059 -0.1573
   65loPI    C3 1027   9.170   7.665  11.098 -0.1432  0.0635  0.1178
   65loPI   PO4 1028   9.284   7.928  10.504 -0.1868  0.0378  0.1775
   65loPI   GL1 1029   9.579   7.870  10.146 -0.0961 -0.2950 -0.1204
   65loPI   GL2 1030   9.319   7.723   9.961  0.2506  0.1007  0.1082
   65loPI   C1A 1031   9.641   7.992   9.743  0.0143 -0.1834  0.1056
   65loPI   C2A 1032   9.833   8.187   9.332  0.2223  0.1609 -0.1450
   65loPI   C3A 1033   9.849   8.384   8.948 -0.0456  0.1230  0.1106
   65loPI   C4A 1034  10.007   8.342   8.580  0.0390 -0.1169 -0.1182
   65loPI   C5A 1035  10.258   8.167   8.208 -0.0996  0.1625  0.2391
   65loPI   C6A 1036  10.350   7.815   8.027 -0.2519  0.0231  0.0617
   65loPI   C1B 1037   9.281   7.702   9.566 -0.1102  0.2445  0.1246
   65loPI   C2B 1038   9.231   7.779   9.099  0.1562 -0.0503  0.1563
   65loPI   C3B 1039   9.351   7.893   8.637 -0.0775  0.0686 -0.2329
   65loPI   C4B 1040   9.361   7.860   8.182 -0.1629  0.0913 -0.0640
   66loPI    C1 1041  12.085   3.011  10.561  0.0664  0.0791  0.1743
   66loPI    C2 1042  11.695   2.929  10.590  0.0524  0.1052  0.0654
   66loPI    C3 1043  11.823   3.202  10.327  0.1779 -0.1637 -0.1570
   66loPI   PO4 1044  12.184   2.715  10.557 -0.1567  0.0328  0.3012
   66loPI   GL1 1045  12.407   2.726  10.259 -0.1005  0.0149  0.2317
   66loPI   GL2 1046  12.229   3.012  10.115  0.0416 -0.1865  0.1557
   66loPI   C1A 1047  12.302   2.584   9.825 -0.4853  0.1000  0.0090
   66loPI   C2A 1048  12.325   2.652   9.362  0.0011 -0.1901 -0.1076
   66loPI   C3A 1049  12.109   2.591   9.028 -0.0768  0.1852 -0.0129
   66loPI   C4A 1050  11.945   2.640   8.664 -0.2436 -0.2112 -0.1708
   66loPI   C5A 1051  11.920   2.965   8.380 -0.2421  0.2057  0.3454
   66loPI   C6A 1052  12.117   3.206   8.040  0.0159  0.1017  0.0082
   66loPI   C1B 1053  12.166   3.038   9.653  0.0675 -0.0048  0.2061
   66loPI   C2B 1054  12.122   3.068   9.277  0.0643 -0.1657 -0.1272
   66loPI   C3B 1055  12.123   3.183   8.850 -0.1101 -0.1140 -0.0793
   66loPI   C4B 1056  12.250   3.344   8.483 -0.2691  0.0287  0.2800
   67loPI    C1 1057   9.846   7.851  10.615 -0.0983 -0.0044  0.0475
   67loPI    C2 1058  10.160   7.936  10.849 -0.0103  0.0937 -0.1047
   67loPI    C3 1059  10.084   8.160  10.526  0.0143 -0.1886 -0.3098
   67loPI   PO4 1060   9.820   7.663  10.564  0.1657  0.1002  0.1847
   67loPI   GL1 1061   9.831   7.417  10.154 -0.1773  0.3334  0.1812
   67loPI   GL2 1062  10.088   7.156  10.017 -0.1001 -0.1511  0.0999
   67loPI   C1A 1063   9.773   7.547   9.723  0.0822 -0.1815 -0.1514
   67loPI   C2A 1064   9.689   7.719   9.286  0.3084 -0.4087 -0.2595
   67loPI   C3A 1065   9.611   7.573   8.881  0.1541 -0.2313  0.1977
   67loPI   C4A 1066   9.686   7.183   8.721  0.2001  0.4177  0.0855
   67loPI   C5A 1067   9.797   7.266   8.337  0.2159 -0.3375  0.0385
   67loPI   C6A 1068   9.610   7.393   7.908  0.0015 -0.2137  0.1297
   67loPI   C1B 1069  10.131   7.254   9.602  0.0592  0.0777  0.0196
   67loPI   C2B 1070  10.043   7.235   9.169  0.2537  0.0127 -0.4078
   67loPI   C3B 1071  10.126   7.467   8.902 -0.0694 -0.3467 -0.2071
   67loPI   C4B 1072  10.240   7.534   8.437 -0.1344 -0.2655 -0.0072
   68loPI    C1 1073  11.189   2.637  10.782  0.1448 -0.1663 -0.2169
   68loPI    C2 1074  11.515   2.684  11.010  0.0684 -0.0818 -0.1239
   68loPI    C3 1075  11.256   2.389  11.089 -0.0045  0.0028 -0.0455
   68loPI   PO4 1076  11.347   2.636  10.464  0.0085  0.0333 -0.0728
   68loPI   GL1 1077  11.367   2.928  10.097 -0.3344  0.0635  0.2501
   68loPI   GL2 1078  11.062   2.791   9.941 -0.0371  0.1280 -0.1463
   68loPI   C1A 1079  11.546   3.179   9.866  0.1064  0.2239  0.2071
   68loPI   C2A 1080  11.699   3.327   9.522  0.0745  0.2195 -0.2052
   68loPI   C3A 1081  11.722   3.416   9.045  0.0001 -0.2530  0.0534
   68loPI   C4A 1082  11.733   3.423   8.668 -0.1770  0.0048  0.3728
   68loPI   C5A 1083  11.726   3.389   8.245 -0.0781 -0.6090 -0.0550
   68loPI   C6A 1084  11.542   3.517   7.861 -0.2194  0.0412  0.1980
   68loPI   C1B 1085  11.030   2.783   9.413 -0.1119  0.1241 -0.0161
   68loPI   C2B 1086  11.092   2.765   8.972 -0.0127 -0.0400  0.3523
   68loPI   C3B 1087  10.922   2.611   8.550  0.1620  0.1692 -0.2747
   68loPI   C4B 1088  10.995   2.822   8.193  0.0622  0.2086 -0.1173
   69loPI    C1 1089   1.579   9.313  10.991  0.1444 -0.1985 -0.0740
   69loPI    C2 1090   1.716   9.555  11.278  0.0541 -0.1371 -0.0822
   69loPI    C3 1091   1.814   9.168  11.280  0.0372 -0.1412  0.0432
   69loPI   PO4 1092   1.625   9.428  10.806  0.0392 -0.1185 -0.2697
   69loPI   GL1 1093   1.812   9.300  10.475  0.1746 -0.1270  0.2243
   69loPI   GL2 1094   1.476   9.099  10.482 -0.0210 -0.1082  0.2531
   69loPI   C1A 1095   2.027   9.291  10.038 -0.2452  0.0870  0.0417
   69loPI   C2A 1096   2.038   9.076   9.633  0.0854 -0.0881 -0.0580
   69loPI   C3A 1097   2.153   8.926   9.212  0.1299 -0.1879 -0.1582
   69loPI   C4A 1098   2.413   8.593   9.114 -0.1113  0.1548 -0.0057
   69loPI   C5A 1099   2.490   8.421   8.648 -0.0583 -0.2339 -0.6045
   69loPI   C6A 1100   2.230   8.254   8.235  0.0202 -0.1469  0.1628
   69loPI   C1B 1101   1.516   9.220  10.035  0.1927 -0.0859 -0.0018
   69loPI   C2B 1102   1.665   9.415   9.643  0.1062 -0.1310 -0.2927
   69loPI   C3B 1103   1.772   9.292   9.269  0.4138 -0.0883  0.2405
   69loPI   C4B 1104   1.768   9.042   8.858 -0.4492 -0.1955 -0.3238
   70loPI    C1 1105   9.963   8.652  10.688  0.0964 -0.1540  0.0751
   70loPI    C2 1106  10.323   8.712  10.525  0.0779 -0.0327  0.0779
   70loPI    C3 1107  10.282   8.456  10.829  0.1710 -0.0077  0.1120
   70loPI   PO4 1108   9.804   8.713  10.499 -0.3015  0.1252  0.2842
   70loPI   GL1 1109   9.908   8.602  10.045 -0.0258 -0.1458  0.0397
   70loPI   GL2 1110  10.204   8.719  10.022 -0.0907  0.1859 -0.3012
   70loPI   C1A 1111   9.669   8.572   9.678 -0.0047  0.2633 -0.0289
   70loPI   C2A 1112   9.558   8.629   9.280 -0.0630 -0.0017  0.2519
   70loPI   C3A 1113   9.661   8.856   8.951  0.1352  0.0386 -0.1521
   70loPI   C4A 1114   9.618   8.904   8.562 -0.0285  0.0589 -0.3103
   70loPI   C5A 1115   9.593   8.978   8.200 -0.1785 -0.2635 -0.0885
   70loPI   C6A 1116   9.375   8.676   7.875  0.2710  0.0159 -0.1174
   70loPI   C1B 1117  10.135   8.686   9.557 -0.3576 -0.0300  0.0138
   70loPI   C2B 1118  10.084   8.804   9.202  0.0713 -0.0694 -0.0086
   70loPI   C3B 1119  10.096   8.830   8.784 -0.3959 -0.4316  0.4142
   70loPI   C4B 1120  10.068   9.072   8.419  0.0910 -0.3067 -0.0115
   71loPI    C1 1121   8.088   4.457  10.680  0.1619  0.2800  0.1152
   71loPI    C2 1122   8.485   4.421  10.706  0.1361  0.0256  0.1914
   71loPI    C3 1123   8.249   4.194  10.935 -0.0577 -0.0785 -0.1057
   71loPI   PO4 1124   8.041   4.389  10.388 -0.1259 -0.0030 -0.1055
   71loPI   GL1 1125   8.093   4.191  10.050 -0.1347  0.5192  0.0326
   71loPI   GL2 1126   7.870   4.245   9.915 -0.1307 -0.3497 -0.1073
   71loPI   C1A 1127   8.164   3.957   9.660 -0.3234  0.0347  0.0012
   71loPI   C2A 1128   8.233   3.978   9.206 -0.2248  0.0289  0.3613
   71loPI   C3A 1129   8.386   3.884   8.898 -0.2784  0.0276  0.2780
   71loPI   C4A 1130   8.362   3.784   8.379  0.4189  0.1133 -0.0049
   71loPI   C5A 1131   8.616   3.602   8.038  0.1809  0.0460 -0.3086
   71loPI   C6A 1132   8.638   3.469   7.794 -0.2011 -0.1478 -0.0354
   71loPI   C1B 1133   8.100   4.453   9.606 -0.1653 -0.1039  0.0883
   71loPI   C2B 1134   8.043   4.632   9.214 -0.3600 -0.0189 -0.0996
   71loPI   C3B 1135   7.750   4.746   8.924  0.7262 -0.0673 -0.1856
   71loPI   C4B 1136   7.731   5.129   8.612 -0.1295  0.2323 -0.2202
   72loPI    C1 1137  13.780  12.599  10.371 -0.0953  0.2351 -0.0914
   72loPI    C2 1138  13.809  12.608  10.769 -0.1779 -0.1348 -0.0737
   72loPI    C3 1139  14.139  12.636  10.544 -0.1158 -0.0748  0.0238
   72loPI   PO4 1140  13.430  12.793  10.355 -0.3693  0.0297 -0.1578
   72loPI   GL1 1141  13.330  13.041  10.102 -0.0295 -0.2300 -0.2309
   72loPI   GL2 1142  13.082  13.055  10.060  0.1443 -0.0252 -0.2412
   72loPI   C1A 1143  13.632  13.355   9.994 -0.0178 -0.1317  0.0192
   72loPI   C2A 1144  13.803  13.568   9.572 -0.0574  0.1184 -0.1409
   72loPI   C3A 1145  13.811  13.627   9.181  0.0004  0.1577  0.0027
   72loPI   C4A 1146  13.585  13.841   8.862  0.1687 -0.1869 -0.1473
   72loPI   C5A 1147  13.371  13.900   8.551  0.0735 -0.0019  0.0200
   72loPI   C6A 1148  12.978  13.886   8.499  0.2619 -0.1126 -0.1163
   72loPI   C1B 1149  12.701  12.910   9.730  0.0479  0.0146 -0.1976
   72loPI   C2B 1150  12.632  12.830   9.291  0.0101  0.0655 -0.0997
   72loPI   C3B 1151  12.680  12.961   8.850  0.2203 -0.0737  0.2229
   72loPI   C4B 1152  12.664  12.999   8.435  0.0379  0.3513 -0.0495
   73loPI    C1 1153  14.217   7.337  10.510  0.1781 -0.1397  0.2265
   73loPI    C2 1154  13.907   7.399  10.756 -0.0631 -0.0371 -0.0964
   73loPI    C3 1155  14.278   7.489  10.875 -0.1946  0.1718  0.1661
   73loPI   PO4 1156  13.916   7.199  10.275 -0.1572  0.0602 -0.3054
   73loPI   GL1 1157  13.626   7.309   9.912  0.0291 -0.1824  0.2646
   73loPI   GL2 1158  13.505   7.617   9.903  0.1068 -0.0137 -0.1066
   73loPI   C1A 1159  13.535   7.135   9.514  0.1499  0.1091  0.2543
   73loPI   C2A 1160  13.507   6.927   9.116  0.3627 -0.0230 -0.2261
   73loPI   C3A 1161  13.441   6.816   8.696 -0.0126 -0.0658  0.4326
   73loPI   C4A 1162  13.335   6.855   8.342 -0.2335 -0.0445  0.0160
   73loPI   C5A 1163  13.339   6.644   7.931  0.1100  0.1140  0.2601
   73loPI   C6A 1164  13.025   6.600   7.610  0.0501  0.1938  0.0022
   73loPI   C1B 1165  13.760   7.679   9.556  0.0851  0.0873 -0.0128
   73loPI   C2B 1166  13.765   7.404   9.198 -0.1045 -0.1132 -0.1470
   73loPI   C3B 1167  13.805   7.207   8.819 -0.1768 -0.1925 -0.3315
   73loPI   C4B 1168  13.752   7.104   8.355 -0.3078  0.4044 -0.4301
   74loPI    C1 1169  14.927   8.510  10.519 -0.0476 -0.1354 -0.1196
   74loPI    C2 1170  15.093   8.665  10.849 -0.0807 -0.0777 -0.1298
   74loPI    C3 1171  14.836   8.360  10.879 -0.1428 -0.0223 -0.0956
   74loPI   PO4 1172  14.961   8.706  10.297  0.1039  0.1407  0.2459
   74loPI   GL1 1173  15.177   8.981  10.074  0.0464 -0.0809  0.0712
   74loPI   GL2 1174  15.031   9.268  10.133  0.1643 -0.1162  0.0137
   74loPI   C1A 1175  15.112   9.008   9.607  0.0467 -0.2015 -0.1059
   74loPI   C2A 1176  15.025   9.101   9.175 -0.0673  0.1211 -0.2471
   74loPI   C3A 1177  14.971   9.252   8.753  0.2128  0.0814 -0.3047
   74loPI   C4A 1178  14.931   9.384   8.370  0.0192  0.0878  0.0643
   74loPI   C5A 1179  15.115   9.339   8.053 -0.0605  0.3170  0.0275
   74loPI   C6A 1180  15.312   9.375   7.683  0.0658  0.3003 -0.1538
   74loPI   C1B 1181  14.770   9.371   9.776  0.0240 -0.1409 -0.4234
   74loPI   C2B 1182  14.597   9.252   9.398  0.0120  0.1702 -0.0623
   74loPI   C3B 1183  14.522   9.308   8.965  0.1310  0.0605  0.2753
   74loPI   C4B 1184  14.472   9.372   8.585 -0.0011 -0.2691 -0.1834
   75loPI    C1 1185  11.564  12.377  10.949 -0.0259 -0.1289 -0.1206
   75loPI    C2 1186  11.221  12.508  11.107  0.1236  0.0826  0.0338
   75loPI    C3 1187  11.412  12.197  11.272 -0.0471 -0.1041 -0.1167
   75loPI   PO4 1188  11.698  12.640  10.790 -0.1487 -0.3729  0.1504
   75loPI   GL1 1189  12.009  12.590  10.465 -0.4602  0.0488  0.1993
   75loPI   GL2 1190  12.124  12.983  10.487  0.0416  0.0070  0.1204
   75loPI   C1A 1191  11.798  12.607  10.139  0.0983 -0.0357 -0.2915
   75loPI   C2A 1192  11.536  12.524   9.791 -0.1241  0.0779  0.1665
   75loPI   C3A 1193  11.607  12.677   9.375 -0.0102  0.2110  0.0654
   75loPI   C4A 1194  11.625  12.552   8.931 -0.1212 -0.1965 -0.0885
   75loPI   C5A 1195  11.721  12.550   8.462 -0.0781  0.0296  0.2473
   75loPI   C6A 1196  11.591  12.822   8.187  0.0098  0.1965  0.1815
   75loPI   C1B 1197  12.329  12.936  10.123  0.0933  0.1983 -0.3086
   75loPI   C2B 1198  12.178  12.777   9.764  0.0564 -0.0177 -0.1618
   75loPI   C3B 1199  12.085  12.777   9.289  0.1151 -0.0359 -0.2284
   75loPI   C4B 1200  12.089  12.445   8.898 -0.0334  0.1009 -0.2520
   76loPI    C1 1201  12.447   1.495  10.814 -0.0309 -0.1337 -0.2033
   76loPI    C2 1202  12.783   1.493  11.032 -0.0124 -0.0334 -0.2306
   76loPI    C3 1203  12.438   1.374  11.196  0.0606 -0.2672 -0.2423
   76loPI   PO4 1204  12.490   1.411  10.522 -0.0822 -0.0589  0.2180
   76loPI   GL1 1205  12.522   1.516  10.090 -0.1192 -0.0384 -0.2324
   76loPI   GL2 1206  12.841   1.271  10.114  0.1954 -0.0518 -0.2145
   76loPI   C1A 1207  12.406   1.656   9.671 -0.0251  0.5893 -0.1838
   76loPI   C2A 1208  12.338   1.511   9.286  0.3710  0.1760  0.2175
   76loPI   C3A 1209  12.340   1.392   8.919  0.0877 -0.2554  0.1315
   76loPI   C4A 1210  12.530   1.233   8.450  0.3417  0.1251 -0.0320
   76loPI   C5A 1211  12.837   0.960   8.308  0.1173 -0.0477  0.3277
   76loPI   C6A 1212  13.076   0.607   8.318 -0.1903  0.1703  0.1246
   76loPI   C1B 1213  12.971   1.390   9.721 -0.2919  0.2608  0.1334
   76loPI   C2B 1214  13.272   1.433   9.391 -0.0018  0.1684  0.1542
   76loPI   C3B 1215  13.404   1.442   8.926 -0.1377 -0.1189 -0.0426
   76loPI   C4B 1216  13.652   1.335   8.536  0.2077 -0.2215  0.1869
   77loPI    C1 1217  14.358   5.091  10.660 -0.0390  0.1454 -0.0290
   77loPI    C2 1218  14.379   5.209  11.042 -0.0861 -0.3490  0.1335
   77loPI    C3 1219  14.030   5.085  10.889 -0.0357 -0.2962 -0.0258
   77loPI   PO4 1220  14.498   4.917  10.601 -0.1446 -0.5029  0.0258
   77loPI   GL1 1221  14.502   4.779  10.197 -0.0351  0.0326  0.2324
   77loPI   GL2 1222  14.292   5.000  10.143 -0.0238  0.2394  0.2908
   77loPI   C1A 1223  14.481   4.491   9.902  0.2147  0.2807 -0.0563
   77loPI   C2A 1224  14.236   4.191   9.641  0.4035  0.0544 -0.2518
   77loPI   C3A 1225  14.218   4.034   9.264  0.0731  0.4436  0.1107
   77loPI   C4A 1226  14.316   4.160   8.837  0.3144  0.1307  0.0415
   77loPI   C5A 1227  14.417   4.252   8.384  0.1529  0.1154 -0.1689
   77loPI   C6A 1228  14.772   4.064   8.090  0.0496 -0.1407  0.3600
   77loPI   C1B 1229  14.230   4.882   9.785  0.0601 -0.0491  0.0949
   77loPI   C2B 1230  14.358   4.642   9.443 -0.0516 -0.1377  0.4232
   77loPI   C3B 1231  14.396   4.650   9.036 -0.1197  0.1633 -0.0156
   77loPI   C4B 1232  14.555   4.638   8.678 -0.0005  0.3611 -0.1082
   78loPI    C1 1233   9.300   5.544  10.701 -0.0014  0.0651  0.1372
   78loPI    C2 1234   9.509   5.654  11.024 -0.1965 -0.0284  0.2974
   78loPI    C3 1235   9.345   5.290  11.007 -0.1183 -0.0539  0.0563
   78loPI   PO4 1236   9.402   5.689  10.433  0.3192 -0.1154  0.0896
   78loPI   GL1 1237   9.299   5.899  10.059 -0.2497  0.2578  0.1446
   78loPI   GL2 1238   9.563   5.813   9.919  0.0541  0.0666 -0.1090
   78loPI   C1A 1239   9.208   6.226   9.768  0.0334 -0.0748  0.1971
   78loPI   C2A 1240   9.066   6.392   9.444  0.3720  0.1316  0.0105
   78loPI   C3A 1241   9.083   6.189   9.065  0.1012 -0.1255 -0.1051
   78loPI   C4A 1242   9.250   6.264   8.714 -0.2441 -0.0368  0.0397
   78loPI   C5A 1243   9.336   6.322   8.192  0.2534 -0.1180 -0.0232
   78loPI   C6A 1244   9.477   6.140   7.879 -0.2691 -0.0834 -0.0412
   78loPI   C1B 1245   9.757   5.695   9.463 -0.1644  0.0826 -0.0938
   78loPI   C2B 1246   9.909   5.676   9.082 -0.1244  0.2236  0.0985
   78loPI   C3B 1247   9.974   5.902   8.639 -0.0309 -0.1764  0.1337
   78loPI   C4B 1248  10.106   5.703   8.256 -0.0898 -0.0834  0.1745
   79loPI    C1 1249  16.803  11.984  10.370  0.0559  0.0544 -0.0165
   79loPI    C2 1250  17.008  11.973  10.714  0.0378  0.0116 -0.0070
   79loPI    C3 1251  16.629  12.100  10.711  0.0681  0.1032 -0.0267
   79loPI   PO4 1252  16.977  12.016  10.225  0.0657 -0.2278 -0.1074
   79loPI   GL1 1253  17.155  11.841   9.990  0.0244 -0.0234  0.1426
   79loPI   GL2 1254  17.448  11.759   9.817 -0.3722  0.0127 -0.2101
   79loPI   C1A 1255  16.895  11.881   9.548  0.1537  0.2844 -0.1600
   79loPI   C2A 1256  16.616  11.934   9.236 -0.0305  0.0096 -0.1488
   79loPI   C3A 1257  16.671  12.065   8.765  0.1391 -0.0758  0.0588
   79loPI   C4A 1258  16.351  12.284   8.533 -0.2434 -0.1034  0.2692
   79loPI   C5A 1259  16.177  12.750   8.419 -0.0829 -0.3032  0.0933
   79loPI   C6A 1260  15.830  13.058   8.444 -0.1272 -0.3121  0.1186
   79loPI   C1B 1261  17.710  11.536   9.343  0.3106 -0.1830 -0.2238
   79loPI   C2B 1262  17.417  11.404   9.014  0.0610 -0.0207 -0.1569
   79loPI   C3B 1263  17.380  11.611   8.610 -0.1464 -0.1412 -0.3262
   79loPI   C4B 1264  17.575  11.609   8.275  0.1266 -0.1039 -0.1169
   80loPI    C1 1265   0.012  12.320  10.622  0.0187  0.0502  0.2089
   80loPI    C2 1266  -0.035  12.657  10.831 -0.1360  0.0316  0.2050
   80loPI    C3 1267   0.062  12.317  11.018  0.3451  0.1434  0.1720
   80loPI   PO4 1268   0.287  12.364  10.419  0.0860  0.0738  0.1938
   80loPI   GL1 1269   0.524  12.581  10.013  0.0945  0.0178 -0.1187
   80loPI   GL2 1270   0.272  12.821  10.090 -0.0495  0.0532 -0.1133
   80loPI   C1A 1271   0.669  12.637   9.611  0.2591 -0.2036  0.0982
   80loPI   C2A 1272   0.482  12.759   9.265  0.0022  0.0141 -0.0600
   80loPI   C3A 1273   0.542  13.000   8.847 -0.0454 -0.2658  0.0915
   80loPI   C4A 1274   0.693  13.387   8.645 -0.0416 -0.0520  0.0581
   80loPI   C5A 1275   0.887  13.689   8.447 -0.1890 -0.0891 -0.1439
   80loPI   C6A 1276   1.289  13.847   8.388  0.1005  0.2173 -0.1580
   80loPI   C1B 1277   0.032  12.764   9.723  0.0199 -0.0987 -0.1261
   80loPI   C2B 1278  -0.084  12.766   9.228  0.0037  0.0609 -0.1331
   80loPI   C3B 1279   0.150  12.646   8.867 -0.2570 -0.1229 -0.2704
   80loPI   C4B 1280   0.211  12.419   8.489  0.2672 -0.1183  0.1007
   81loPI    C1 1281   7.148  14.439  10.876 -0.1115 -0.0987 -0.1576
   81loPI    C2 1282   6.891  14.726  10.983 -0.1835 -0.1273 -0.2525
   81loPI    C3 1283   7.208  14.645  11.213 -0.2493 -0.0796 -0.1443
   81loPI   PO4 1284   7.175  14.426  10.587  0.0945 -0.0752  0.1740
   81loPI   GL1 1285   7.003  14.170  10.321  0.2766 -0.0317  0.2516
   81loPI   GL2 1286   7.082  13.844  10.334 -0.1237 -0.0217  0.2738
   81loPI   C1A 1287   6.775  14.323   9.902 -0.1105  0.0239  0.1937
   81loPI   C2A 1288   6.782  14.344   9.425  0.1084  0.1634  0.2844
   81loPI   C3A 1289   6.666  14.322   9.079  0.1255 -0.2261  0.1836
   81loPI   C4A 1290   6.555  14.130   8.708  0.1310 -0.0034  0.0177
   81loPI   C5A 1291   6.643  14.131   8.298 -0.4777 -0.1259 -0.0183
   81loPI   C6A 1292   6.799  14.091   7.985 -0.0970 -0.1031 -0.0489
   81loPI   C1B 1293   7.165  13.880   9.941  0.0625 -0.1284 -0.4071
   81loPI   C2B 1294   7.048  13.969   9.489  0.0859  0.1825  0.1753
   81loPI   C3B 1295   7.146  14.065   9.114 -0.0649 -0.0067  0.1639
   81loPI   C4B 1296   7.024  14.303   8.766 -0.1446 -0.1447 -0.0762
   82loPI    C1 1297   0.372  15.495  10.392  0.0549 -0.1295 -0.1263
   82loPI    C2 1298   0.189  15.644  10.715 -0.1204 -0.1370 -0.2210
   82loPI    C3 1299   0.263  15.251  10.690  0.0494 -0.1126 -0.1146
   82loPI   PO4 1300   0.593  15.739  10.375  0.1728 -0.2941  0.4455
   82loPI   GL1 1301   0.651  16.032  10.120 -0.0109 -0.0002 -0.0067
   82loPI   GL2 1302   0.294  16.168   9.998  0.0750 -0.1918  0.1444
   82loPI   C1A 1303   0.617  16.169   9.653  0.2727 -0.0585  0.0836
   82loPI   C2A 1304   0.653  16.152   9.271  0.0830 -0.1135  0.0117
   82loPI   C3A 1305   0.922  16.343   8.999  0.1945 -0.0342 -0.2505
   82loPI   C4A 1306   1.040  16.478   8.590  0.1173  0.0105  0.0790
   82loPI   C5A 1307   1.012  16.750   8.352 -0.1262  0.0107  0.0129
   82loPI   C6A 1308   1.211  17.112   8.205 -0.1420 -0.0151  0.1909
   82loPI   C1B 1309   0.072  16.200   9.531  0.1074 -0.2081 -0.1598
   82loPI   C2B 1310   0.076  16.216   9.117  0.0152  0.1272  0.0885
   82loPI   C3B 1311   0.272  16.085   8.750  0.2847 -0.0409 -0.0339
   82loPI   C4B 1312   0.656  15.998   8.742  0.2936 -0.0211  0.0547
   83loPI    C1 1313   6.012  15.269  11.006  0.2680 -0.3115  0.0314
   83loPI    C2 1314   5.747  15.306  11.303  0.1871  0.0591 -0.0811
   83loPI    C3 1315   5.983  14.984  11.285  0.0636 -0.0568  0.2772
   83loPI   PO4 1316   5.954  15.554  10.868  0.0948  0.0536 -0.1722
   83loPI   GL1 1317   5.991  15.686  10.436  0.0024  0.0889 -0.1345
   83loPI   GL2 1318   5.702  15.553  10.413  0.0866 -0.2474  0.1569
   83loPI   C1A 1319   5.981  15.682  10.001 -0.0114  0.0297  0.0314
   83loPI   C2A 1320   6.043  15.837   9.558  0.0961 -0.1483 -0.1631
   83loPI   C3A 1321   6.130  16.051   9.209 -0.2069  0.1840  0.2466
   83loPI   C4A 1322   6.414  16.171   8.959 -0.0641 -0.1292 -0.1478
   83loPI   C5A 1323   6.893  16.146   8.729  0.0326  0.0034  0.1590
   83loPI   C6A 1324   7.048  16.184   8.256  0.0607  0.0715 -0.0049
   83loPI   C1B 1325   5.565  15.889  10.218  0.0200  0.3155  0.0519
   83loPI   C2B 1326   5.572  15.860   9.764  0.0614  0.2647 -0.1346
   83loPI   C3B 1327   5.533  15.989   9.373 -0.1150 -0.0614  0.1071
   83loPI   C4B 1328   5.599  16.150   8.962  0.1372  0.1895 -0.1349
   84loPI    C1 1329  10.332  11.708  11.127 -0.0642  0.1287  0.2346
   84loPI    C2 1330  10.019  11.478  11.223 -0.0430  0.0507  0.1187
   84loPI    C3 1331  10.320  11.326  11.008  0.0010  0.1692  0.0958
   84loPI   PO4 1332  10.170  11.943  10.947 -0.0571 -0.1780  0.0458
   84loPI   GL1 1333  10.005  12.147  10.511  0.0928  0.0999 -0.1451
   84loPI   GL2 1334   9.840  12.043  10.320  0.0306 -0.0997 -0.0487
   84loPI   C1A 1335  10.324  12.043  10.283  0.2489  0.2856  0.0080
   84loPI   C2A 1336  10.222  11.912   9.947  0.1591  0.0781 -0.0933
   84loPI   C3A 1337  10.249  11.818   9.499  0.3270 -0.1187  0.0599
   84loPI   C4A 1338  10.169  11.719   9.003  0.3420 -0.0050 -0.0650
   84loPI   C5A 1339   9.907  11.614   8.656  0.0569  0.0548 -0.2185
   84loPI   C6A 1340   9.790  11.945   8.382 -0.1655  0.0631 -0.0124
   84loPI   C1B 1341   9.707  11.935   9.872 -0.3524 -0.1121 -0.1260
   84loPI   C2B 1342   9.330  11.726   9.811  0.1273 -0.1406 -0.0415
   84loPI   C3B 1343   8.974  11.690   9.645  0.2654 -0.0482 -0.1491
   84loPI   C4B 1344   8.695  11.364   9.482 -0.1549  0.0635 -0.5840
   85loPI    C1 1345   1.135   0.281  10.923 -0.1775  0.0541 -0.1495
   85loPI    C2 1346   1.381   0.483  11.165  0.1437 -0.3253 -0.1494
   85loPI    C3 1347   1.063   0.294  11.316  0.0002 -0.0598 -0.1122
   85loPI   PO4 1348   1.267   0.328  10.704  0.2913 -0.0748  0.0798
   85loPI   GL1 1349   1.509   0.018  10.384 -0.0031 -0.3402 -0.1707
   85loPI   GL2 1350   1.757   0.267  10.374  0.0365  0.3791  0.0919
   85loPI   C1A 1351   1.431   0.125  10.037 -0.1714 -0.1493  0.1838
   85loPI   C2A 1352   1.484   0.191   9.670  0.2494  0.0117 -0.1495
   85loPI   C3A 1353   1.576   0.241   9.239 -0.2749  0.0213 -0.2906
   85loPI   C4A 1354   1.778   0.207   8.873  0.0062 -0.0140 -0.0046
   85loPI   C5A 1355   1.706   0.020   8.463 -0.1909 -0.1948  0.1217
   85loPI   C6A 1356   1.906  -0.339   8.192 -0.0855 -0.0068  0.1576
   85loPI   C1B 1357   1.848   0.366  10.003 -0.5094 -0.0225 -0.1846
   85loPI   C2B 1358   1.951   0.413   9.566 -0.0517 -0.0277  0.1950
   85loPI   C3B 1359   2.035   0.521   9.155 -0.0017 -0.1523 -0.4233
   85loPI   C4B 1360   1.724   0.804   8.956 -0.2312  0.1915 -0.0350
   86loPI    C1 1361   8.601   6.214  10.783  0.1046  0.0713 -0.2974
   86loPI    C2 1362   8.608   6.597  10.895  0.2383  0.0335 -0.1741
   86loPI    C3 1363   8.393   6.332  11.103  0.0520  0.0619 -0.3280
   86loPI   PO4 1364   8.540   6.177  10.523  0.3467  0.0935 -0.0915
   86loPI   GL1 1365   8.798   6.095  10.152  0.0006  0.3206 -0.0193
   86loPI   GL2 1366   8.829   5.896   9.954  0.2320 -0.0322  0.2546
   86loPI   C1A 1367   8.676   6.388   9.827 -0.1576 -0.0426 -0.3491
   86loPI   C2A 1368   8.552   6.561   9.467  0.2422 -0.1185  0.1770
   86loPI   C3A 1369   8.325   6.568   9.071 -0.2421 -0.1059  0.5274
   86loPI   C4A 1370   8.102   6.916   8.760  0.0357  0.0163 -0.0918
   86loPI   C5A 1371   7.759   7.226   8.530  0.0738  0.0572 -0.1254
   86loPI   C6A 1372   7.381   7.119   8.250 -0.3666 -0.0512  0.2584
   86loPI   C1B 1373   8.747   5.905   9.569  0.0806 -0.0725  0.3704
   86loPI   C2B 1374   8.622   6.120   9.208 -0.0786 -0.0401 -0.3298
   86loPI   C3B 1375   8.706   6.184   8.737 -0.2713  0.2571  0.0671
   86loPI   C4B 1376   8.841   6.341   8.379  0.2686  0.2200 -0.0839
   87loPI    C1 1377   9.594   1.324  10.688 -0.0553 -0.2161  0.0366
   87loPI    C2 1378   9.483   1.057  10.964 -0.3926 -0.1487 -0.0294
   87loPI    C3 1379   9.454   1.448  11.042 -0.0877 -0.1283 -0.0068
   87loPI   PO4 1380   9.863   1.229  10.569 -0.1336  0.0220 -0.0555
   87loPI   GL1 1381   9.812   1.118  10.158 -0.1423  0.1628 -0.0866
   87loPI   GL2 1382   9.471   1.254  10.192  0.1730  0.0061  0.1037
   87loPI   C1A 1383   9.731   0.947   9.777  0.0481  0.0370 -0.3669
   87loPI   C2A 1384   9.555   0.881   9.344 -0.1230  0.1778 -0.2704
   87loPI   C3A 1385   9.647   0.979   8.926  0.2231 -0.2655  0.0583
   87loPI   C4A 1386   9.482   1.026   8.462  0.1685  0.1140  0.0364
   87loPI   C5A 1387   9.289   1.336   8.132 -0.0024  0.0669  0.2655
   87loPI   C6A 1388   9.204   1.348   7.625  0.0234 -0.2017 -0.1690
   87loPI   C1B 1389   9.376   1.274   9.768  0.0454  0.0063  0.1727
   87loPI   C2B 1390   9.221   1.208   9.382  0.1044 -0.0245  0.2033
   87loPI   C3B 1391   9.156   0.995   8.965 -0.1971  0.1973 -0.2996
   87loPI   C4B 1392   9.077   1.208   8.550  0.1418  0.2381  0.0511
   88loPI    C1 1393   0.152   8.194  10.506  0.0806 -0.1326 -0.0931
   88loPI    C2 1394   0.429   7.930  10.389 -0.0145 -0.2887  0.0293
   88loPI    C3 1395   0.073   7.942  10.206  0.0619 -0.1045 -0.1118
   88loPI   PO4 1396   0.242   8.459  10.466  0.1626 -0.0897  0.0336
   88loPI   GL1 1397   0.228   8.683   9.988 -0.2020 -0.3068  0.0870
   88loPI   GL2 1398   0.199   8.329   9.921  0.2876 -0.3371 -0.0439
   88loPI   C1A 1399   0.326   8.648   9.565  0.1443 -0.0523 -0.0288
   88loPI   C2A 1400   0.248   8.253   9.278  0.0875  0.0269  0.1532
   88loPI   C3A 1401   0.451   8.019   8.947 -0.3119  0.2602 -0.0617
   88loPI   C4A 1402   0.629   8.113   8.458 -0.2287 -0.1528 -0.0101
   88loPI   C5A 1403   0.481   8.225   7.979 -0.0187  0.1603  0.1854
   88loPI   C6A 1404   0.505   8.076   7.512 -0.3657 -0.1074  0.1496
   88loPI   C1B 1405   0.207   7.963   9.668  0.1366 -0.0355 -0.4295
   88loPI   C2B 1406   0.141   7.762   9.286 -0.1681  0.2968  0.2567
   88loPI   C3B 1407   0.203   7.443   8.962  0.3225  0.0394  0.0148
   88loPI   C4B 1408   0.054   7.500   8.565 -0.1311  0.1985 -0.0533
   89loPI    C1 1409   2.455  12.880  11.073  0.0853 -0.3152 -0.0297
   89loPI    C2 1410   2.263  12.738  11.394  0.0450 -0.2643 -0.0310
   89loPI    C3 1411   2.093  13.021  11.170  0.1486 -0.1742  0.0033
   89loPI   PO4 1412   2.576  12.614  10.870 -0.1085 -0.3330  0.3143
   89loPI   GL1 1413   2.582  12.505  10.543 -0.0958 -0.2039  0.0481
   89loPI   GL2 1414   2.825  12.279  10.290 -0.2059 -0.1626  0.0033
   89loPI   C1A 1415   2.357  12.725  10.190  0.2674 -0.1812  0.0689
   89loPI   C2A 1416   2.381  12.600   9.773 -0.1080 -0.0021 -0.1175
   89loPI   C3A 1417   2.350  12.672   9.373 -0.1444 -0.3068 -0.1207
   89loPI   C4A 1418   2.380  12.712   8.964 -0.1975  0.0435  0.0893
   89loPI   C5A 1419   2.741  12.827   8.669  0.0661 -0.0721 -0.0035
   89loPI   C6A 1420   2.773  12.987   8.220 -0.1110  0.1673  0.0518
   89loPI   C1B 1421   2.817  12.359   9.825 -0.0806 -0.0000  0.0085
   89loPI   C2B 1422   2.664  12.293   9.449  0.3011 -0.2330 -0.0708
   89loPI   C3B 1423   2.784  12.471   9.090 -0.0500  0.2255 -0.0561
   89loPI   C4B 1424   2.824  12.352   8.741  0.1761 -0.1289  0.2918
   90loPI    C1 1425   6.645   8.233  11.020  0.2476  0.1186 -0.1058
   90loPI    C2 1426   6.408   8.530  11.147 -0.0151 -0.2222  0.2236
   90loPI    C3 1427   6.795   8.525  11.250 -0.0426 -0.0711  0.3390
   90loPI   PO4 1428   6.569   8.229  10.733 -0.1031 -0.0092  0.0185
   90loPI   GL1 1429   6.727   8.159  10.344 -0.0200 -0.0753 -0.3081
   90loPI   GL2 1430   6.746   8.529  10.291 -0.0742 -0.1991  0.3078
   90loPI   C1A 1431   6.827   8.157   9.885  0.1948  0.1857  0.4729
   90loPI   C2A 1432   7.013   8.089   9.408  0.1688 -0.0612  0.0414
   90loPI   C3A 1433   7.119   7.968   9.047 -0.0492 -0.0552 -0.0856
   90loPI   C4A 1434   7.116   8.012   8.590  0.0187  0.1572  0.1143
   90loPI   C5A 1435   7.370   8.022   8.216 -0.0266 -0.1757 -0.1678
   90loPI   C6A 1436   7.518   8.061   7.789 -0.0224  0.3327  0.1431
   90loPI   C1B 1437   6.958   8.641   9.896 -0.4099  0.1278  0.1420
   90loPI   C2B 1438   7.023   8.579   9.411 -0.1096  0.0289  0.2827
   90loPI   C3B 1439   7.082   8.451   8.864  0.0873  0.0482 -0.3566
   90loPI   C4B 1440   7.053   8.524   8.427  0.3237 -0.0120  0.2446
   91loPI    C1 1441  15.318  13.491  10.733  0.1970 -0.1330  0.2650
   91loPI    C2 1442  15.212  13.500  11.119 -0.0755  0.1996  0.1871
   91loPI    C3 1443  15.402  13.812  10.956  0.2445 -0.0330  0.1047
   91loPI   PO4 1444  15.400  13.380  10.540  0.1042 -0.0187 -0.2434
   91loPI   GL1 1445  15.185  13.315  10.149 -0.0633 -0.0764  0.0862
   91loPI   GL2 1446  15.456  13.211  10.090 -0.0551  0.1193 -0.1907
   91loPI   C1A 1447  15.039  13.200   9.707  0.1051 -0.0135 -0.0561
   91loPI   C2A 1448  14.873  13.393   9.375 -0.1545  0.0759 -0.0110
   91loPI   C3A 1449  14.803  13.512   8.955  0.2521  0.2863 -0.2418
   91loPI   C4A 1450  14.496  13.516   8.599 -0.4221  0.0955  0.1953
   91loPI   C5A 1451  14.493  13.472   8.166  0.0555  0.0975  0.1009
   91loPI   C6A 1452  14.214  13.590   7.742  0.2229 -0.0653  0.1493
   91loPI   C1B 1453  15.459  12.952   9.734  0.1496 -0.3672  0.0142
   91loPI   C2B 1454  15.414  13.201   9.340 -0.1469  0.0712 -0.2342
   91loPI   C3B 1455  15.194  13.221   8.927 -0.1194 -0.1142  0.4420
   91loPI   C4B 1456  14.947  13.250   8.465 -0.0131 -0.1657 -0.1482
   92loPI    C1 1457   8.344  11.603  10.825  0.0614  0.0171 -0.0026
   92loPI    C2 1458   8.199  11.297  11.037  0.1136 -0.0831 -0.1098
   92loPI    C3 1459   8.564  11.441  11.117  0.0159  0.0738  0.0635
   92loPI   PO4 1460   8.160  11.551  10.595 -0.0755  0.0399  0.1410
   92loPI   GL1 1461   7.991  11.732  10.219 -0.0112 -0.0015  0.4200
   92loPI   GL2 1462   8.072  11.396  10.148  0.2646  0.0286 -0.3668
   92loPI   C1A 1463   8.065  11.666   9.734 -0.1176 -0.1913  0.0382
   92loPI   C2A 1464   8.375  11.772   9.449  0.1145 -0.0843 -0.4535
   92loPI   C3A 1465   8.807  11.741   9.142 -0.3859 -0.1309 -0.1105
   92loPI   C4A 1466   8.834  11.772   8.715  0.2672 -0.2004 -0.1775
   92loPI   C5A 1467   8.690  11.935   8.265 -0.1633 -0.2565 -0.0851
   92loPI   C6A 1468   9.048  11.814   7.848  0.0447 -0.1778 -0.0212
   92loPI   C1B 1469   8.120  11.202   9.857  0.1044 -0.4655  0.1604
   92loPI   C2B 1470   8.175  11.296   9.427  0.2519 -0.0508 -0.0555
   92loPI   C3B 1471   8.170  11.211   9.018  0.0354  0.0890 -0.2672
   92loPI   C4B 1472   8.262  10.862   8.659 -0.1676  0.0449  0.2373
   93loPI    C1 1473  17.806   4.083  10.977  0.2997  0.2084  0.0580
   93loPI    C2 1474  17.501   4.334  10.915  0.0608 -0.1011 -0.0510
   93loPI    C3 1475  17.675   4.315  11.275  0.0435  0.1746 -0.0259
   93loPI   PO4 1476  17.810   4.018  10.722 -0.2695  0.2104 -0.0910
   93loPI   GL1 1477  17.589   3.982  10.412  0.0624 -0.0766  0.1647
   93loPI   GL2 1478  17.442   3.712  10.348  0.0276  0.2507  0.2719
   93loPI   C1A 1479  17.684   4.072   9.884  0.0867  0.1772 -0.2965
   93loPI   C2A 1480  17.839   4.103   9.502  0.2925 -0.2158  0.2642
   93loPI   C3A 1481  17.774   4.152   9.076 -0.1214 -0.1133 -0.2270
   93loPI   C4A 1482  17.887   4.075   8.699  0.0640 -0.0242 -0.0615
   93loPI   C5A 1483  18.132   3.900   8.358 -0.0064  0.1746 -0.2336
   93loPI   C6A 1484  18.466   3.639   8.330 -0.0440  0.2634 -0.0729
   93loPI   C1B 1485  17.448   3.606   9.896 -0.0500  0.1846 -0.1222
   93loPI   C2B 1486  17.505   3.801   9.413  0.0968  0.0042  0.0414
   93loPI   C3B 1487  17.910   3.661   9.116  0.0870  0.0014  0.1103
   93loPI   C4B 1488  17.880   3.506   8.637 -0.1586 -0.3365 -0.1976
   94loPI    C1 1489  10.913  16.218  10.558 -0.2049 -0.1736  0.0733
   94loPI    C2 1490  11.114  16.560  10.609 -0.1687 -0.1803 -0.0225
   94loPI    C3 1491  11.264  16.217  10.750 -0.1995 -0.1588  0.0636
   94loPI   PO4 1492  10.903  16.204  10.338  0.1448 -0.2892 -0.0260
   94loPI   GL1 1493  10.700  16.194   9.926 -0.1438  0.1043  0.1292
   94loPI   GL2 1494  10.437  16.439   9.854 -0.1844 -0.1350  0.2365
   94loPI   C1A 1495  10.819  15.864   9.649  0.3529 -0.0031  0.1266
   94loPI   C2A 1496  10.778  15.818   9.077 -0.6173 -0.1298 -0.2216
   94loPI   C3A 1497  10.658  15.907   8.720 -0.0944 -0.0137 -0.1709
   94loPI   C4A 1498  10.433  15.821   8.296 -0.2208  0.0961  0.0959
   94loPI   C5A 1499  10.467  15.792   7.761 -0.5635 -0.0775  0.2121
   94loPI   C6A 1500  10.505  15.605   7.481 -0.1887 -0.1147  0.0642
   94loPI   C1B 1501  10.634  16.404   9.502 -0.1415 -0.0155  0.0255
   94loPI   C2B 1502  10.645  16.358   9.102 -0.0739  0.2807 -0.1043
   94loPI   C3B 1503  10.765  16.482   8.654  0.3081 -0.0930  0.1939
   94loPI   C4B 1504  10.447  16.405   8.389 -0.0517 -0.1135 -0.1723
   95loPI    C1 1505   6.056   7.672  10.931  0.0966 -0.0458 -0.1107
   95loPI    C2 1506   6.312   7.379  11.024 -0.0336 -0.1506 -0.0793
   95loPI    C3 1507   6.444   7.755  10.984  0.0918 -0.1707  0.1316
   95loPI   PO4 1508   5.930   7.609  10.706  0.0892  0.2386 -0.3371
   95loPI   GL1 1509   5.862   7.490  10.369 -0.2762 -0.1779  0.2042
   95loPI   GL2 1510   5.869   7.219  10.257  0.1781 -0.1465  0.3013
   95loPI   C1A 1511   5.883   7.716  10.036  0.1178 -0.0402 -0.0642
   95loPI   C2A 1512   5.888   7.708   9.546 -0.0465 -0.0070  0.0024
   95loPI   C3A 1513   5.817   7.675   9.158  0.1368  0.2524 -0.2321
   95loPI   C4A 1514   5.601   7.667   8.805  0.0521  0.1741  0.3306
   95loPI   C5A 1515   5.440   7.572   8.451 -0.0322  0.2544  0.1857
   95loPI   C6A 1516   5.381   7.409   8.003  0.0420  0.0644 -0.0859
   95loPI   C1B 1517   5.802   7.176   9.836 -0.0373  0.1465  0.0225
   95loPI   C2B 1518   5.747   7.238   9.332  0.0843 -0.0667  0.0403
   95loPI   C3B 1519   5.666   7.130   8.927  0.1143  0.0904  0.2949
   95loPI   C4B 1520   5.634   7.077   8.464  0.2428 -0.1850  0.1306
   96loPI    C1 1521   5.716  14.988  10.687 -0.1973 -0.0561  0.0320
   96loPI    C2 1522   5.492  14.993  11.019 -0.1760  0.1525  0.0447
   96loPI    C3 1523   5.506  15.315  10.782 -0.2057 -0.0014 -0.1697
   96loPI   PO4 1524   5.674  14.806  10.560  0.0966 -0.0917 -0.0673
   96loPI   GL1 1525   5.770  14.742  10.168  0.2311 -0.0490 -0.0274
   96loPI   GL2 1526   5.678  15.151  10.184  0.1252 -0.1583  0.0331
   96loPI   C1A 1527   5.748  14.742   9.709  0.1380  0.0988  0.2885
   96loPI   C2A 1528   5.847  14.889   9.329  0.1357 -0.2084 -0.2300
   96loPI   C3A 1529   5.739  15.151   8.948  0.1869  0.1428 -0.1466
   96loPI   C4A 1530   5.566  15.410   8.617 -0.2205 -0.0002  0.2746
   96loPI   C5A 1531   5.303  15.504   8.360 -0.1139 -0.0821 -0.1598
   96loPI   C6A 1532   4.811  15.610   8.393  0.0629  0.1889 -0.0345
   96loPI   C1B 1533   5.621  15.264   9.785  0.1973 -0.2221  0.0514
   96loPI   C2B 1534   5.699  15.528   9.385  0.0829  0.2397  0.2636
   96loPI   C3B 1535   5.854  15.696   9.067  0.2144 -0.1145 -0.0582
   96loPI   C4B 1536   6.197  15.525   8.847 -0.0999 -0.2400  0.0474
   97loPI    C1 1537  11.176  17.900  10.481 -0.0270  0.1573 -0.0709
   97loPI    C2 1538  11.231  18.023  10.858 -0.2022  0.1096 -0.0285
   97loPI    C3 1539  11.260  18.284  10.555  0.0591  0.1241  0.0059
   97loPI   PO4 1540  10.990  17.621  10.548  0.3648 -0.2499 -0.0273
   97loPI   GL1 1541  11.149  17.125  10.492  0.1092 -0.1003  0.2042
   97loPI   GL2 1542  11.384  16.989  10.312 -0.0896  0.0230 -0.0916
   97loPI   C1A 1543  11.122  17.164   9.976 -0.0883 -0.1336 -0.0063
   97loPI   C2A 1544  11.252  17.100   9.548 -0.3217  0.2016 -0.0048
   97loPI   C3A 1545  11.320  17.137   9.052  0.1849  0.1075 -0.0411
   97loPI   C4A 1546  11.425  17.201   8.672  0.1171  0.2370 -0.1750
   97loPI   C5A 1547  11.497  16.990   8.329 -0.0204  0.1519 -0.1100
   97loPI   C6A 1548  11.796  17.126   8.034  0.0813 -0.0596  0.1682
   97loPI   C1B 1549  11.438  16.805   9.989 -0.2016 -0.1312  0.0630
   97loPI   C2B 1550  11.542  16.685   9.597 -0.0967  0.2414  0.0483
   97loPI   C3B 1551  11.457  16.513   9.171 -0.0574  0.0863  0.1759
   97loPI   C4B 1552  11.134  16.190   8.989 -0.1142 -0.0327 -0.2245
   98loPI    C1 1553   4.407   5.779  10.923 -0.0650  0.0264  0.1656
   98loPI    C2 1554   4.760   5.699  11.093  0.1321  0.1366 -0.1814
   98loPI    C3 1555   4.623   5.466  10.799 -0.0468  0.1421 -0.1032
   98loPI   PO4 1556   4.369   6.005  10.794 -0.1946 -0.0827 -0.2583
   98loPI   GL1 1557   4.230   6.200  10.449 -0.2028 -0.0287 -0.0273
   98loPI   GL2 1558   4.628   6.315  10.411  0.0256 -0.0405  0.0262
   98loPI   C1A 1559   4.206   5.924  10.138  0.0044  0.0252 -0.2023
   98loPI   C2A 1560   4.341   5.968   9.754  0.0458  0.0276  0.1542
   98loPI   C3A 1561   4.421   6.013   9.333  0.3423 -0.1649 -0.0251
   98loPI   C4A 1562   4.466   5.982   8.905  0.1131  0.2526  0.2895
   98loPI   C5A 1563   4.230   6.130   8.532  0.0387  0.1126 -0.1435
   98loPI   C6A 1564   3.812   6.099   8.314 -0.1273 -0.0650 -0.4485
   98loPI   C1B 1565   4.737   6.284   9.971  0.1961  0.2813  0.0663
   98loPI   C2B 1566   4.796   6.285   9.631  0.0310  0.3484 -0.0875
   98loPI   C3B 1567   4.799   6.305   9.152  0.2044  0.2270  0.1505
   98loPI   C4B 1568   4.766   6.314   8.682 -0.2111  0.1370  0.2272
   99loPI    C1 1569   0.177   6.262  11.051 -0.0867 -0.0853  0.1237
   99loPI    C2 1570  -0.002   6.193  11.402 -0.0102 -0.0344  0.1729
   99loPI    C3 1571   0.289   5.949  11.274 -0.0505 -0.0634  0.1362
   99loPI   PO4 1572  -0.010   6.342  10.855 -0.1112 -0.1166  0.1530
   99loPI   GL1 1573  -0.036   6.139  10.471  0.1645 -0.2863  0.3114
   99loPI   GL2 1574  -0.146   5.877  10.255 -0.1403 -0.0899  0.4906
   99loPI   C1A 1575  -0.219   6.279  10.021 -0.0210  0.1345  0.1004
   99loPI   C2A 1576  -0.290   6.205   9.575 -0.0216 -0.0237 -0.1246
   99loPI   C3A 1577  -0.391   6.227   9.149 -0.1685 -0.0204  0.3532
   99loPI   C4A 1578  -0.443   6.242   8.722 -0.0472  0.1773 -0.0780
   99loPI   C5A 1579  -0.670   6.270   8.387  0.0832  0.1851  0.2542
   99loPI   C6A 1580  -0.872   5.887   8.136 -0.0694 -0.1873  0.0824
   99loPI   C1B 1581  -0.282   5.761   9.884  0.1520  0.3001 -0.3072
   99loPI   C2B 1582  -0.329   5.676   9.437  0.0012 -0.0041  0.1276
   99loPI   C3B 1583  -0.390   5.680   8.951 -0.2705  0.1491  0.1200
   99loPI   C4B 1584  -0.148   5.569   8.630 -0.0682  0.2490  0.1678
  100loPI    C1 1585   4.784   4.963  10.846  0.1740 -0.1090 -0.0736
  100loPI    C2 1586   4.469   5.007  11.089  0.0552 -0.0173 -0.2418
  100loPI    C3 1587   4.768   4.762  11.192  0.0119  0.0289  0.0011
  100loPI   PO4 1588   4.687   4.947  10.609 -0.0838 -0.1570  0.0772
  100loPI   GL1 1589   4.683   5.064  10.218 -0.1411  0.1486 -0.2385
  100loPI   GL2 1590   4.466   5.276  10.333  0.2276  0.1186  0.0038
  100loPI   C1A 1591   4.729   5.143   9.786 -0.2506 -0.1481  0.2501
  100loPI   C2A 1592   4.847   5.227   9.307  0.0541  0.0530  0.1210
  100loPI   C3A 1593   4.816   5.045   8.895  0.1576 -0.1085  0.1958
  100loPI   C4A 1594   4.901   4.940   8.441  0.4596 -0.1616  0.0511
  100loPI   C5A 1595   5.168   4.840   8.127  0.1629 -0.0005  0.1923
  100loPI   C6A 1596   5.545   4.897   8.054  0.1407  0.0492  0.0269
  100loPI   C1B 1597   4.359   5.498   9.991 -0.1325  0.0459 -0.2365
  100loPI   C2B 1598   4.441   5.447   9.521  0.0579 -0.1025  0.0989
  100loPI   C3B 1599   4.160   5.568   9.096 -0.1291 -0.0292  0.0483
  100loPI   C4B 1600   4.082   5.663   8.701 -0.3446  0.3091  0.2387
  101loPI    C1 1601   3.257   0.499  11.339 -0.0905  0.1293  0.0863
  101loPI    C2 1602   3.125   0.175  11.532 -0.0258  0.0097 -0.0684
  101loPI    C3 1603   3.149   0.525  11.724 -0.2717 -0.0349  0.0482
  101loPI   PO4 1604   3.138   0.444  11.104  0.1316  0.4611  0.0239
  101loPI   GL1 1605   3.077   0.189  10.720  0.2932  0.0282  0.2280
  101loPI   GL2 1606   3.272  -0.075  10.600 -0.1445  0.0466  0.0614
  101loPI   C1A 1607   3.045   0.206  10.292 -0.0369  0.1874 -0.0347
  101loPI   C2A 1608   2.849   0.016   9.936  0.0289 -0.3569 -0.1515
  101loPI   C3A 1609   2.864   0.014   9.574  0.2931 -0.1040 -0.1200
  101loPI   C4A 1610   2.900   0.116   9.170 -0.1981 -0.1462  0.1179
  101loPI   C5A 1611   2.851   0.293   8.764  0.0697 -0.1365 -0.0230
  101loPI   C6A 1612   2.579   0.386   8.442 -0.0270 -0.0981  0.0852
  101loPI   C1B 1613   3.263  -0.205  10.206 -0.1128 -0.0058  0.0534
  101loPI   C2B 1614   3.303  -0.164   9.776  0.1911 -0.0991  0.0014
  101loPI   C3B 1615   3.535  -0.080   9.332 -0.2603  0.1206  0.0750
  101loPI   C4B 1616   3.453  -0.104   8.984 -0.0688 -0.0360  0.1311
  102loPI    C1 1617   2.176   8.558  10.959  0.0607  0.1746 -0.0373
  102loPI    C2 1618   1.957   8.263  11.118  0.0658  0.1024 -0.1637
  102loPI    C3 1619   1.885   8.643  11.221 -0.0723  0.0733 -0.1507
  102loPI   PO4 1620   2.183   8.581  10.687  0.0279  0.0773 -0.0376
  102loPI   GL1 1621   1.914   8.805  10.374 -0.2260  0.1061 -0.3920
  102loPI   GL2 1622   1.670   8.673  10.249 -0.2795  0.2580  0.0172
  102loPI   C1A 1623   2.139   8.621   9.954 -0.2505  0.1102 -0.0994
  102loPI   C2A 1624   2.110   8.474   9.623  0.0427 -0.0580 -0.6103
  102loPI   C3A 1625   2.154   8.228   9.278  0.1753  0.2255  0.0008
  102loPI   C4A 1626   1.991   8.052   8.921  0.3365 -0.2156  0.1588
  102loPI   C5A 1627   1.959   7.863   8.460  0.2686 -0.2090 -0.0514
  102loPI   C6A 1628   1.827   7.728   8.047  0.3279 -0.0452  0.0246
  102loPI   C1B 1629   1.688   8.740   9.817 -0.2075  0.0736 -0.1704
  102loPI   C2B 1630   1.689   8.813   9.385 -0.0910 -0.0662  0.2732
  102loPI   C3B 1631   1.830   8.562   9.062  0.1013 -0.0553 -0.0540
  102loPI   C4B 1632   2.011   8.591   8.723 -0.2010  0.3858 -0.2127
  103loPI    C1 1633   9.139  10.321  10.775 -0.0390  0.0603  0.0425
  103loPI    C2 1634   9.081  10.010  11.020 -0.0826 -0.0310 -0.0827
  103loPI    C3 1635   9.205  10.360  11.168  0.0908 -0.1433  0.0431
  103loPI   PO4 1636   9.028  10.361  10.615  0.2851 -0.2297 -0.0061
  103loPI   GL1 1637   8.854  10.197  10.175 -0.0526  0.0121 -0.2602
  103loPI   GL2 1638   8.663  10.443  10.239  0.3245 -0.0738  0.0566
  103loPI   C1A 1639   8.781  10.196   9.767 -0.0343 -0.1956  0.0535
  103loPI   C2A 1640   8.845  10.283   9.370  0.2632  0.0800 -0.0189
  103loPI   C3A 1641   8.998  10.380   8.992 -0.1518 -0.1770  0.1501
  103loPI   C4A 1642   8.937  10.151   8.593  0.1600 -0.2309 -0.1529
  103loPI   C5A 1643   9.032   9.928   8.217  0.1351 -0.1750  0.2399
  103loPI   C6A 1644   8.802   9.519   8.131  0.1232 -0.1430  0.0180
  103loPI   C1B 1645   8.342  10.461   9.859  0.2879  0.0051  0.0295
  103loPI   C2B 1646   8.356  10.377   9.383 -0.1726 -0.4389 -0.0216
  103loPI   C3B 1647   8.509  10.270   8.956  0.1218 -0.2566  0.2827
  103loPI   C4B 1648   8.433  10.233   8.526 -0.0667 -0.2177 -0.1508
  104loPI    C1 1649   6.641   9.737  10.290  0.0484  0.2200 -0.0536
  104loPI    C2 1650   6.894   9.669  10.593  0.1876  0.2813 -0.1551
  104loPI    C3 1651   7.027   9.666  10.216  0.0337  0.3013 -0.2105
  104loPI   PO4 1652   6.437   9.909  10.405  0.1171  0.1338  0.0794
  104loPI   GL1 1653   6.363  10.224  10.108 -0.1439  0.3268 -0.2356
  104loPI   GL2 1654   6.623  10.135   9.988 -0.0677  0.1217  0.2310
  104loPI   C1A 1655   6.239  10.403   9.707  0.0691  0.0780 -0.1078
  104loPI   C2A 1656   6.159  10.293   9.256 -0.1704  0.0343  0.0185
  104loPI   C3A 1657   6.344  10.243   8.791  0.1160  0.0721  0.1367
  104loPI   C4A 1658   6.389  10.139   8.347  0.2053  0.0909  0.2482
  104loPI   C5A 1659   6.211   9.783   8.102 -0.1963 -0.1572 -0.0505
  104loPI   C6A 1660   5.918   9.436   8.089 -0.2092  0.0966 -0.0985
  104loPI   C1B 1661   6.896   9.837   9.761 -0.0564 -0.2287  0.4085
  104loPI   C2B 1662   6.850   9.842   9.281 -0.2077 -0.3458 -0.0412
  104loPI   C3B 1663   6.687   9.828   8.831  0.0323  0.2407 -0.2806
  104loPI   C4B 1664   6.703   9.702   8.363  0.2867 -0.1114  0.1778
  105loPI    C1 1665  17.843   4.613  10.718  0.1258 -0.0959 -0.1262
  105loPI    C2 1666  18.062   4.542  11.045 -0.1976 -0.2544  0.0616
  105loPI    C3 1667  17.737   4.774  11.069  0.0614  0.1559 -0.2592
  105loPI   PO4 1668  17.936   4.589  10.564  0.0560  0.1115  0.3655
  105loPI   GL1 1669  18.018   4.386  10.176  0.1593  0.0837  0.1007
  105loPI   GL2 1670  18.061   4.117  10.327 -0.3535  0.3260  0.0822
  105loPI   C1A 1671  18.157   4.477   9.722  0.1035  0.0387 -0.1382
  105loPI   C2A 1672  18.241   4.336   9.347 -0.1001 -0.0650  0.0799
  105loPI   C3A 1673  18.297   4.272   8.846  0.0562 -0.0865 -0.1380
  105loPI   C4A 1674  18.616   4.074   8.624 -0.0468 -0.1398  0.0634
  105loPI   C5A 1675  18.715   4.096   8.228  0.1145  0.0021 -0.0611
  105loPI   C6A 1676  18.719   4.560   7.992 -0.2520 -0.0010  0.0738
  105loPI   C1B 1677  18.183   3.988   9.882  0.0297 -0.3706  0.0218
  105loPI   C2B 1678  18.328   3.849   9.466 -0.2176  0.1992 -0.0918
  105loPI   C3B 1679  18.435   3.858   9.113 -0.1427  0.0108 -0.0390
  105loPI   C4B 1680  18.364   3.677   8.830 -0.2693 -0.0317 -0.0991
  106loPI    C1 1681  12.594   3.002  10.731 -0.0692 -0.0922  0.1885
  106loPI    C2 1682  12.872   3.097  11.002 -0.0011  0.0419  0.0727
  106loPI    C3 1683  12.486   3.172  11.077 -0.0017 -0.0928  0.2101
  106loPI   PO4 1684  12.755   3.124  10.469 -0.2202  0.1106  0.4986
  106loPI   GL1 1685  12.750   3.124   9.989 -0.0691  0.1043  0.2886
  106loPI   GL2 1686  12.545   3.303   9.747 -0.0252 -0.0044 -0.1419
  106loPI   C1A 1687  12.743   2.846   9.549 -0.0944 -0.1575 -0.3714
  106loPI   C2A 1688  12.605   2.865   9.025 -0.0814  0.2454 -0.0506
  106loPI   C3A 1689  12.384   2.843   8.622  0.2378  0.4016 -0.1417
  106loPI   C4A 1690  12.488   2.942   8.210  0.1010 -0.0354 -0.1728
  106loPI   C5A 1691  12.593   3.387   8.130  0.0924 -0.0904  0.3002
  106loPI   C6A 1692  12.626   3.700   7.853 -0.0622  0.0135 -0.0324
  106loPI   C1B 1693  12.577   3.242   9.351 -0.0424  0.2060  0.1710
  106loPI   C2B 1694  12.498   3.438   9.023  0.0844  0.2359 -0.2420
  106loPI   C3B 1695  12.155   3.697   8.839 -0.0106  0.2874  0.0133
  106loPI   C4B 1696  11.838   3.913   8.637 -0.2481  0.0867 -0.1241
  107loPI    C1 1697  13.490   9.533  10.651  0.0839  0.0307  0.1419
  107loPI    C2 1698  13.716   9.217  10.743  0.1016  0.0217  0.0675
  107loPI    C3 1699  13.381   9.289  10.949  0.0750 -0.0697  0.0569
  107loPI   PO4 1700  13.528   9.540  10.405  0.1147  0.2127 -0.0063
  107loPI   GL1 1701  13.584   9.783   9.992  0.3347 -0.1318 -0.0172
  107loPI   GL2 1702  13.758   9.497   9.937  0.2726 -0.1587 -0.4541
  107loPI   C1A 1703  13.602   9.845   9.639 -0.0686 -0.0062 -0.1466
  107loPI   C2A 1704  13.522   9.672   9.158  0.0761 -0.0252 -0.0542
  107loPI   C3A 1705  13.310   9.946   8.864 -0.0855 -0.1533  0.0746
  107loPI   C4A 1706  13.181   9.945   8.486  0.2092 -0.0791  0.0070
  107loPI   C5A 1707  12.893  10.022   8.157  0.1495  0.3028 -0.2082
  107loPI   C6A 1708  12.795  10.336   7.909  0.1534  0.2976 -0.0746
  107loPI   C1B 1709  13.810   9.261   9.549  0.1302 -0.1562 -0.0084
  107loPI   C2B 1710  14.130   9.292   9.269  0.0970 -0.1205 -0.0445
  107loPI   C3B 1711  14.031   9.418   8.886  0.3934 -0.1023  0.1240
  107loPI   C4B 1712  13.956   9.234   8.542  0.0662  0.0873  0.1514
  108loPI    C1 1713   3.728   3.369  10.897  0.1441 -0.0171  0.2055
  108loPI    C2 1714   3.479   3.129  11.098 -0.1537  0.0147 -0.1168
  108loPI    C3 1715   3.709   3.389  11.296 -0.0740 -0.2988  0.2119
  108loPI   PO4 1716   3.855   3.239  10.695  0.1348  0.0327 -0.1069
  108loPI   GL1 1717   3.678   3.024  10.325 -0.2497 -0.1371 -0.0061
  108loPI   GL2 1718   4.025   2.942  10.267 -0.0829 -0.0595  0.0953
  108loPI   C1A 1719   3.450   3.208   9.925 -0.0763 -0.0916  0.0078
  108loPI   C2A 1720   3.539   3.263   9.535  0.0115  0.2838 -0.1723
  108loPI   C3A 1721   3.817   3.418   9.180 -0.2369 -0.1950  0.2284
  108loPI   C4A 1722   3.884   3.651   8.860 -0.0126 -0.1453  0.1962
  108loPI   C5A 1723   3.746   3.770   8.472 -0.3394  0.0403  0.2087
  108loPI   C6A 1724   3.302   3.837   8.376  0.1154  0.0938  0.0689
  108loPI   C1B 1725   3.875   2.936   9.860  0.0439  0.4516 -0.0641
  108loPI   C2B 1726   3.866   2.855   9.487  0.2831 -0.2008  0.0225
  108loPI   C3B 1727   3.891   2.814   9.051 -0.0080  0.0741 -0.1661
  108loPI   C4B 1728   3.985   3.009   8.692  0.3935  0.1144 -0.1657
  109loPI    C1 1729   6.219   0.403  10.966 -0.1821  0.2122  0.0199
  109loPI    C2 1730   6.243   0.797  11.030  0.2730  0.1674  0.1673
  109loPI    C3 1731   6.421   0.543  11.282  0.2422 -0.1196 -0.0948
  109loPI   PO4 1732   6.297   0.370  10.758 -0.0592  0.2900 -0.1733
  109loPI   GL1 1733   6.093   0.522  10.432 -0.1576 -0.0023 -0.0498
  109loPI   GL2 1734   5.812   0.583  10.349 -0.1220 -0.1379 -0.2021
  109loPI   C1A 1735   6.421   0.508  10.077  0.1348 -0.4191 -0.0000
  109loPI   C2A 1736   6.576   0.402   9.687 -0.0361  0.1211 -0.0275
  109loPI   C3A 1737   6.451   0.471   9.380 -0.1192  0.2418  0.3513
  109loPI   C4A 1738   6.390   0.583   8.932 -0.1481  0.0781 -0.0284
  109loPI   C5A 1739   6.371   0.387   8.567 -0.0487 -0.3478 -0.0857
  109loPI   C6A 1740   6.738   0.253   8.231  0.0466  0.2572 -0.1229
  109loPI   C1B 1741   5.648   0.575   9.899 -0.3381  0.0405  0.1296
  109loPI   C2B 1742   5.565   0.650   9.480 -0.0013  0.1380 -0.0813
  109loPI   C3B 1743   5.588   0.710   9.119  0.1844  0.1960  0.0558
  109loPI   C4B 1744   5.429   0.831   8.737  0.0627 -0.0937 -0.3278
  110loPI    C1 1745   7.588  15.170  10.863 -0.0584  0.1003  0.3594
  110loPI    C2 1746   7.381  14.849  10.745  0.1976  0.0925 -0.0930
  110loPI    C3 1747   7.641  14.820  11.048  0.0668 -0.0722  0.0056
  110loPI   PO4 1748   7.733  15.264  10.667  0.2797  0.0342 -0.1945
  110loPI   GL1 1749   7.657  15.462  10.253 -0.2939 -0.1464 -0.2703
  110loPI   GL2 1750   7.455  15.127  10.255  0.0588 -0.0572 -0.0622
  110loPI   C1A 1751   7.730  15.436   9.851  0.0037 -0.1584 -0.0320
  110loPI   C2A 1752   7.813  15.178   9.406 -0.4306  0.2198  0.0265
  110loPI   C3A 1753   7.887  15.095   8.975  0.2567 -0.1882 -0.0364
  110loPI   C4A 1754   7.945  15.391   8.653  0.3142  0.0408 -0.2518
  110loPI   C5A 1755   7.747  15.511   8.381 -0.1362  0.2161 -0.0396
  110loPI   C6A 1756   7.439  15.318   8.342  0.0098  0.2173  0.1726
  110loPI   C1B 1757   7.544  14.966   9.896  0.2546 -0.2046 -0.1157
  110loPI   C2B 1758   7.424  14.871   9.480 -0.1436 -0.2471 -0.1593
  110loPI   C3B 1759   7.345  15.049   9.133  0.3550 -0.0326  0.1209
  110loPI   C4B 1760   7.232  15.323   8.890  0.0941 -0.2698 -0.0264
  111loPI    C1 1761  15.023   1.286  10.860 -0.2733  0.2702  0.0671
  111loPI    C2 1762  15.247   1.022  11.060 -0.2547  0.0478 -0.2413
  111loPI    C3 1763  14.875   1.102  11.183 -0.1408  0.1367  0.0530
  111loPI   PO4 1764  15.201   1.316  10.578 -0.2875 -0.1049 -0.0679
  111loPI   GL1 1765  15.294   1.633  10.222  0.5650 -0.1308 -0.1521
  111loPI   GL2 1766  15.023   1.548  10.103  0.1750  0.3310  0.0838
  111loPI   C1A 1767  15.389   1.540   9.818 -0.2254 -0.2022 -0.0712
  111loPI   C2A 1768  15.533   1.606   9.430  0.1351  0.1186 -0.2708
  111loPI   C3A 1769  15.472   1.534   9.006  0.1907  0.1931 -0.0586
  111loPI   C4A 1770  15.546   1.594   8.578 -0.0551  0.1949 -0.0750
  111loPI   C5A 1771  15.502   1.589   8.058 -0.1076  0.2255 -0.2219
  111loPI   C6A 1772  15.417   1.299   7.805  0.0817 -0.0900  0.2017
  111loPI   C1B 1773  14.835   1.673   9.756 -0.0116  0.1710  0.0371
  111loPI   C2B 1774  14.943   1.730   9.269 -0.1382 -0.1282 -0.3245
  111loPI   C3B 1775  15.041   1.687   8.804  0.1117 -0.1210  0.1529
  111loPI   C4B 1776  15.157   1.815   8.393 -0.2504  0.0671 -0.0517
  112loPI    C1 1777   2.303   4.551  10.748  0.0915 -0.0009 -0.0025
  112loPI    C2 1778   2.233   4.785  11.065  0.0287 -0.0266  0.0028
  112loPI    C3 1779   2.306   4.395  11.116  0.0459 -0.0255 -0.0125
  112loPI   PO4 1780   2.420   4.801  10.621  0.2733 -0.0400  0.1039
  112loPI   GL1 1781   2.241   4.774  10.253 -0.1291 -0.0438 -0.2136
  112loPI   GL2 1782   2.370   4.434  10.231  0.0231 -0.2246  0.1061
  112loPI   C1A 1783   2.043   4.848   9.923  0.0932 -0.1473  0.1653
  112loPI   C2A 1784   1.853   5.099   9.666  0.2386 -0.1966 -0.2004
  112loPI   C3A 1785   1.996   5.100   9.282 -0.0906 -0.1695  0.1232
  112loPI   C4A 1786   2.149   5.049   8.848 -0.1671  0.0636 -0.2612
  112loPI   C5A 1787   1.885   5.105   8.499 -0.2610 -0.0746 -0.0423
  112loPI   C6A 1788   1.584   5.111   8.162  0.1546  0.0658  0.2064
  112loPI   C1B 1789   2.465   4.485   9.849  0.2357  0.1235  0.3424
  112loPI   C2B 1790   2.479   4.665   9.475  0.0791  0.1190  0.2374
  112loPI   C3B 1791   2.515   4.745   9.037 -0.3440  0.1301  0.1987
  112loPI   C4B 1792   2.472   4.636   8.587 -0.0229  0.0303 -0.1473
  113loPI    C1 1793   8.448  16.361  11.029 -0.1014  0.5090  0.2491
  113loPI    C2 1794   8.777  16.566  11.127  0.2456  0.0340  0.1166
  113loPI    C3 1795   8.672  16.243  11.339 -0.0062  0.0446  0.0121
  113loPI   PO4 1796   8.493  16.351  10.791  0.2398  0.2801 -0.2348
  113loPI   GL1 1797   8.548  16.485  10.424  0.0830 -0.1627 -0.0401
  113loPI   GL2 1798   8.356  16.474  10.193  0.3891  0.3375 -0.1869
  113loPI   C1A 1799   8.757  16.747  10.119  0.0349 -0.1015  0.2542
  113loPI   C2A 1800   8.635  17.104   9.852 -0.1376 -0.2204  0.2406
  113loPI   C3A 1801   8.592  16.966   9.348  0.0019  0.2455  0.2375
  113loPI   C4A 1802   8.661  16.868   8.917 -0.1113 -0.0363 -0.1978
  113loPI   C5A 1803   8.642  16.673   8.618  0.0238  0.2686 -0.1487
  113loPI   C6A 1804   8.195  16.767   8.456  0.1985  0.0409  0.0306
  113loPI   C1B 1805   8.469  16.551   9.784  0.0106  0.0012 -0.0218
  113loPI   C2B 1806   8.273  16.607   9.477 -0.1433  0.1386 -0.0676
  113loPI   C3B 1807   8.179  16.568   9.144  0.1307  0.5761  0.0507
  113loPI   C4B 1808   8.226  16.381   8.815 -0.0986 -0.2404  0.2239
  114loPI    C1 1809  17.462  12.163  10.387  0.0471 -0.1974  0.1182
  114loPI    C2 1810  17.202  12.419  10.551  0.2344  0.2447 -0.2536
  114loPI    C3 1811  17.514  12.286  10.764 -0.0632  0.0339  0.0599
  114loPI   PO4 1812  17.514  12.214  10.166 -0.1159  0.0925 -0.4300
  114loPI   GL1 1813  17.627  12.374   9.892 -0.1546 -0.3222  0.0932
  114loPI   GL2 1814  17.971  12.335   9.982  0.0120 -0.1309 -0.2814
  114loPI   C1A 1815  17.778  12.330   9.477 -0.2242 -0.0854 -0.0857
  114loPI   C2A 1816  17.547  12.374   9.062 -0.2366  0.1297 -0.2656
  114loPI   C3A 1817  17.282  12.614   8.759 -0.0282 -0.2789 -0.0884
  114loPI   C4A 1818  17.366  12.901   8.347 -0.2739  0.1239  0.0415
  114loPI   C5A 1819  17.760  13.147   8.175 -0.2013 -0.0132 -0.0796
  114loPI   C6A 1820  18.112  13.246   8.028  0.0720  0.0843 -0.2820
  114loPI   C1B 1821  18.289  12.215   9.681 -0.1415 -0.3145 -0.0382
  114loPI   C2B 1822  18.515  12.204   9.233 -0.3538  0.0764  0.3254
  114loPI   C3B 1823  18.577  12.406   8.841  0.1280  0.0123 -0.1286
  114loPI   C4B 1824  18.637  12.329   8.375 -0.2935  0.1376 -0.2677
  115loPI    C1 1825   2.660  17.073  10.872  0.0179 -0.1004 -0.0371
  115loPI    C2 1826   2.399  17.103  11.174  0.0370 -0.3023  0.0003
  115loPI    C3 1827   2.567  17.432  11.022 -0.1321 -0.1827  0.0700
  115loPI   PO4 1828   2.496  16.924  10.699 -0.1085 -0.0239  0.4059
  115loPI   GL1 1829   2.406  17.037  10.196 -0.0754 -0.0472  0.2499
  115loPI   GL2 1830   2.168  17.171  10.244  0.5056  0.1626 -0.0891
  115loPI   C1A 1831   2.453  17.076   9.774  0.1104 -0.2439 -0.1987
  115loPI   C2A 1832   2.627  17.189   9.306 -0.0508 -0.2729 -0.1459
  115loPI   C3A 1833   2.728  17.200   8.888  0.1281  0.0364  0.0850
  115loPI   C4A 1834   2.391  17.287   8.570 -0.1018 -0.0523  0.1913
  115loPI   C5A 1835   2.064  17.144   8.221 -0.2909 -0.4927  0.1194
  115loPI   C6A 1836   1.712  17.067   8.156 -0.0748  0.0647 -0.0271
  115loPI   C1B 1837   1.965  17.320   9.978 -0.0465 -0.1427 -0.2172
  115loPI   C2B 1838   2.024  17.385   9.449  0.0113 -0.0901 -0.2202
  115loPI   C3B 1839   1.864  17.331   9.016 -0.1331 -0.3221  0.0533
  115loPI   C4B 1840   1.765  17.249   8.625 -0.1491 -0.0366 -0.0789
  116loPI    C1 1841  16.101   2.211  10.844 -0.1433  0.1944 -0.1554
  116loPI    C2 1842  15.804   2.459  10.943 -0.1024  0.1857 -0.0083
  116loPI    C3 1843  15.985   2.242  11.225 -0.2893 -0.1825 -0.1646
  116loPI   PO4 1844  15.902   1.984  10.631 -0.0792  0.0664  0.1346
  116loPI   GL1 1845  15.922   1.781  10.224  0.3168 -0.2585 -0.0987
  116loPI   GL2 1846  15.691   2.113  10.195 -0.1976 -0.0512  0.2197
  116loPI   C1A 1847  15.767   1.868   9.760  0.2318  0.0914  0.0960
  116loPI   C2A 1848  15.916   1.975   9.315  0.1363 -0.2532  0.0563
  116loPI   C3A 1849  15.844   1.905   8.876  0.3457 -0.2056 -0.0395
  116loPI   C4A 1850  16.013   1.825   8.455  0.2508 -0.1685  0.3936
  116loPI   C5A 1851  16.218   1.691   8.115 -0.1162 -0.1494 -0.1202
  116loPI   C6A 1852  16.603   1.666   7.762 -0.0792 -0.1224 -0.2127
  116loPI   C1B 1853  15.693   2.334   9.829 -0.1311 -0.1282  0.0117
  116loPI   C2B 1854  15.770   2.485   9.363 -0.2603  0.0868 -0.1706
  116loPI   C3B 1855  15.758   2.432   8.961  0.5555 -0.2537  0.2314
  116loPI   C4B 1856  15.760   2.621   8.515  0.2343  0.0927 -0.2033
  117loPI    C1 1857   8.663   2.229  10.406 -0.1366 -0.0216  0.2066
  117loPI    C2 1858   8.662   2.455  10.736 -0.4090  0.1434  0.0967
  117loPI    C3 1859   8.609   2.625  10.378 -0.1190 -0.0347 -0.0340
  117loPI   PO4 1860   8.492   1.978  10.512 -0.0760  0.1259 -0.0011
  117loPI   GL1 1861   8.302   1.797  10.284 -0.0206 -0.1099  0.2226
  117loPI   GL2 1862   8.092   1.456  10.257 -0.1243 -0.2192  0.0591
  117loPI   C1A 1863   8.408   1.665   9.921 -0.2734 -0.0111 -0.1489
  117loPI   C2A 1864   8.455   1.745   9.480  0.2905  0.0869  0.1606
  117loPI   C3A 1865   8.424   1.741   9.023  0.3002 -0.0662 -0.1278
  117loPI   C4A 1866   8.423   1.939   8.656  0.3001  0.3206 -0.1091
  117loPI   C5A 1867   8.531   2.027   8.261 -0.0107  0.0186 -0.1453
  117loPI   C6A 1868   8.828   2.148   8.024  0.1707  0.0078  0.0866
  117loPI   C1B 1869   7.944   1.393   9.893  0.1001 -0.2674  0.3316
  117loPI   C2B 1870   7.648   1.365   9.538  0.1924  0.2493  0.0665
  117loPI   C3B 1871   7.587   1.332   9.098 -0.0527  0.1171  0.0082
  117loPI   C4B 1872   7.630   1.174   8.782  0.1389  0.2867  0.0219
  118loPI    C1 1873  10.886  15.239  10.713  0.3210  0.0726  0.0953
  118loPI    C2 1874  10.919  14.846  10.775 -0.1173  0.0308  0.0965
  118loPI    C3 1875  10.609  15.047  10.927  0.0417  0.3577 -0.0018
  118loPI   PO4 1876  11.083  15.198  10.435  0.0823  0.1655 -0.0580
  118loPI   GL1 1877  11.069  14.942  10.098  0.1492 -0.1209 -0.1163
  118loPI   GL2 1878  11.039  15.427  10.024  0.2372 -0.1231 -0.2006
  118loPI   C1A 1879  11.339  15.086   9.790  0.1650 -0.0667  0.0196
  118loPI   C2A 1880  11.137  14.940   9.468  0.3811  0.1542 -0.2261
  118loPI   C3A 1881  10.983  14.690   9.071  0.0229  0.0415 -0.2204
  118loPI   C4A 1882  10.895  14.718   8.630  0.2359  0.1495  0.0957
  118loPI   C5A 1883  10.753  14.675   8.211  0.0333  0.2055  0.0743
  118loPI   C6A 1884  10.646  14.554   7.794  0.1378 -0.0778 -0.2216
  118loPI   C1B 1885  10.990  15.394   9.684  0.2493 -0.0316  0.4306
  118loPI   C2B 1886  10.988  15.390   9.194 -0.1677  0.2594  0.0312
  118loPI   C3B 1887  10.934  15.199   8.843  0.3138  0.2169  0.0033
  118loPI   C4B 1888  10.987  15.160   8.356  0.0396 -0.2449 -0.0083
  119loPI    C1 1889   2.690   0.866  10.820  0.2155 -0.2238  0.0159
  119loPI    C2 1890   2.464   0.912  11.146  0.2121  0.3309 -0.0548
  119loPI    C3 1891   2.292   0.835  10.793  0.2028 -0.0854  0.0353
  119loPI   PO4 1892   2.805   1.122  10.763  0.1358  0.1648 -0.2475
  119loPI   GL1 1893   3.008   1.017  10.329 -0.0035 -0.1429 -0.1747
  119loPI   GL2 1894   3.212   1.140  10.309 -0.0480 -0.1280 -0.1575
  119loPI   C1A 1895   3.206   0.677  10.136  0.1308  0.1965  0.4511
  119loPI   C2A 1896   3.295   0.350   9.855  0.2233 -0.0912 -0.0036
  119loPI   C3A 1897   3.281   0.323   9.453  0.3537 -0.0209  0.0274
  119loPI   C4A 1898   3.339   0.394   9.101 -0.1932  0.1310  0.1381
  119loPI   C5A 1899   3.284   0.527   8.674  0.4736  0.1289  0.0221
  119loPI   C6A 1900   3.046   0.477   8.365 -0.0142 -0.2622  0.2375
  119loPI   C1B 1901   3.346   1.090   9.861  0.2634 -0.4051 -0.0465
  119loPI   C2B 1902   3.365   1.158   9.491  0.1042  0.2541  0.0279
  119loPI   C3B 1903   3.453   0.997   9.116 -0.1798 -0.2397 -0.3476
  119loPI   C4B 1904   3.629   0.847   8.868  0.2061 -0.1443  0.0060
  120loPI    C1 1905  15.123   3.015  10.633  0.0193 -0.0284 -0.0329
  120loPI    C2 1906  14.861   2.774  10.816  0.0272  0.1457  0.2123
  120loPI    C3 1907  14.743   3.131  10.679  0.1067  0.1703  0.2074
  120loPI   PO4 1908  15.265   2.812  10.499  0.2335  0.0039  0.1285
  120loPI   GL1 1909  15.278   2.921  10.090 -0.0752  0.0184  0.0301
  120loPI   GL2 1910  15.570   2.688  10.104  0.0784 -0.2900 -0.1269
  120loPI   C1A 1911  15.155   3.017   9.570 -0.0191 -0.1193  0.0750
  120loPI   C2A 1912  15.026   2.913   9.145 -0.5646  0.0642  0.2081
  120loPI   C3A 1913  14.848   2.710   8.759  0.0152  0.1429 -0.0579
  120loPI   C4A 1914  14.763   2.740   8.334 -0.2063  0.0858  0.3588
  120loPI   C5A 1915  14.550   2.941   8.050  0.0960  0.0177  0.0882
  120loPI   C6A 1916  14.111   2.848   7.978 -0.0451  0.0436 -0.1531
  120loPI   C1B 1917  15.708   2.873   9.800  0.1132  0.1249 -0.1395
  120loPI   C2B 1918  15.655   3.034   9.446  0.2177 -0.1628  0.1987
  120loPI   C3B 1919  15.614   3.016   9.039 -0.1076 -0.0500  0.0468
  120loPI   C4B 1920  15.706   3.149   8.579  0.4702 -0.1059 -0.1023
  121loPI    C1 1921  13.675   1.418  10.818  0.0601  0.1131 -0.0349
  121loPI    C2 1922  13.472   1.074  10.794  0.1786  0.0540 -0.2025
  121loPI    C3 1923  13.668   1.167  11.130  0.1889 -0.0664 -0.1746
  121loPI   PO4 1924  13.418   1.547  10.667  0.0730 -0.0946  0.0758
  121loPI   GL1 1925  13.350   1.733  10.276  0.2260 -0.0950 -0.2015
  121loPI   GL2 1926  13.337   1.536  10.081  0.1360  0.1563  0.1641
  121loPI   C1A 1927  12.953   1.844   9.960  0.1781 -0.2081  0.3761
  121loPI   C2A 1928  12.847   1.871   9.521  0.1545 -0.1691 -0.1410
  121loPI   C3A 1929  12.698   1.827   9.086 -0.0492 -0.0678 -0.2304
  121loPI   C4A 1930  12.496   1.880   8.633  0.0671  0.2025 -0.5655
  121loPI   C5A 1931  12.141   1.708   8.358 -0.0334  0.0757  0.1846
  121loPI   C6A 1932  11.743   1.556   8.048 -0.1598 -0.2168 -0.0784
  121loPI   C1B 1933  13.464   1.794   9.681 -0.0180 -0.1889  0.3213
  121loPI   C2B 1934  13.522   1.880   9.292 -0.0107  0.0799  0.3310
  121loPI   C3B 1935  13.440   1.964   8.857  0.0548 -0.0426  0.0846
  121loPI   C4B 1936  13.379   1.801   8.561  0.3030  0.0702  0.1515
  122loPI    C1 1937  11.385   6.708  10.489 -0.0053 -0.0535  0.0180
  122loPI    C2 1938  11.426   6.485  10.819 -0.3588 -0.2471 -0.0634
  122loPI    C3 1939  11.232   6.834  10.836 -0.0321 -0.0646  0.0101
  122loPI   PO4 1940  11.239   6.530  10.254 -0.0082  0.1620 -0.0091
  122loPI   GL1 1941  11.152   6.543   9.824  0.0588 -0.0054 -0.2012
  122loPI   GL2 1942  11.079   6.312   9.830  0.0126 -0.1659  0.1810
  122loPI   C1A 1943  11.174   6.672   9.352 -0.0897 -0.0334  0.0826
  122loPI   C2A 1944  11.102   6.809   9.007 -0.2440  0.2636  0.2375
  122loPI   C3A 1945  10.923   6.760   8.609  0.0348  0.0963  0.2475
  122loPI   C4A 1946  10.611   6.591   8.329 -0.3160 -0.0568 -0.0050
  122loPI   C5A 1947  10.156   6.668   8.112 -0.0495  0.1352  0.3936
  122loPI   C6A 1948   9.665   6.840   8.059 -0.0655  0.2510  0.0573
  122loPI   C1B 1949  10.832   6.401   9.517  0.2187 -0.0738 -0.2602
  122loPI   C2B 1950  10.720   6.368   9.052  0.0551  0.4834  0.0225
  122loPI   C3B 1951  10.719   6.219   8.613 -0.3299 -0.0869  0.1722
  122loPI   C4B 1952  10.801   6.132   8.193 -0.2391  0.0719  0.0167
  123loPI    C1 1953  15.186  17.709  10.841  0.1766 -0.1185  0.1363
  123loPI    C2 1954  15.328  18.078  10.901  0.2696 -0.1413  0.0591
  123loPI    C3 1955  15.532  17.761  11.034  0.1605 -0.1630  0.1771
  123loPI   PO4 1956  15.079  17.768  10.551  0.1960 -0.2121  0.2060
  123loPI   GL1 1957  15.159  17.834  10.123 -0.2053  0.3735  0.4286
  123loPI   GL2 1958  15.436  17.713  10.139  0.0205 -0.1800  0.3717
  123loPI   C1A 1959  15.347  18.174   9.853  0.0333  0.0082 -0.0046
  123loPI   C2A 1960  15.414  18.179   9.369 -0.0057 -0.0347  0.1921
  123loPI   C3A 1961  15.338  18.245   8.949 -0.0763 -0.1527  0.0357
  123loPI   C4A 1962  15.518  18.124   8.634 -0.1212 -0.3951  0.1522
  123loPI   C5A 1963  15.853  18.269   8.409 -0.0109 -0.0029 -0.2111
  123loPI   C6A 1964  15.936  18.235   7.941 -0.2099 -0.2335 -0.0280
  123loPI   C1B 1965  15.619  17.787   9.756 -0.0941 -0.0054 -0.2186
  123loPI   C2B 1966  15.472  17.598   9.280  0.0815  0.0521  0.1612
  123loPI   C3B 1967  15.626  17.667   8.857 -0.0760  0.1282  0.0478
  123loPI   C4B 1968  15.598  17.614   8.458 -0.0332 -0.1178  0.0044
  124loPI    C1 1969  13.633  17.169  10.604 -0.1018  0.2536 -0.2147
  124loPI    C2 1970  13.308  17.393  10.665 -0.3357 -0.1406  0.0343
  124loPI    C3 1971  13.444  17.155  10.956  0.3775  0.2592  0.0524
  124loPI   PO4 1972  13.580  17.077  10.371  0.0662  0.0631 -0.0544
  124loPI   GL1 1973  13.764  17.143  10.000  0.1986 -0.0466  0.0611
  124loPI   GL2 1974  13.910  17.249  10.032  0.1002  0.1172 -0.0854
  124loPI   C1A 1975  13.898  17.045   9.555  0.3134 -0.1532 -0.1323
  124loPI   C2A 1976  14.076  16.890   9.266  0.0600 -0.1240 -0.1798
  124loPI   C3A 1977  14.164  16.868   8.888 -0.2838  0.1026  0.0361
  124loPI   C4A 1978  13.960  16.842   8.450 -0.0396 -0.0650 -0.1623
  124loPI   C5A 1979  13.658  17.003   8.112  0.0173 -0.0307 -0.0447
  124loPI   C6A 1980  13.398  17.052   7.759 -0.0555  0.0733 -0.0364
  124loPI   C1B 1981  14.119  17.482   9.666  0.1734  0.1928 -0.1464
  124loPI   C2B 1982  14.139  17.418   9.226  0.2386  0.2244  0.1083
  124loPI   C3B 1983  14.194  17.394   8.777  0.0911 -0.0615 -0.1041
  124loPI   C4B 1984  14.256  17.559   8.370  0.0598 -0.2088 -0.0071
  125loPI    C1 1985  14.364   2.610  10.854 -0.1837 -0.1118 -0.0751
  125loPI    C2 1986  14.316   2.368  11.169  0.0503 -0.2369 -0.1333
  125loPI    C3 1987  14.033   2.636  11.078 -0.1686 -0.4228 -0.0125
  125loPI   PO4 1988  14.479   2.399  10.555  0.0017 -0.0461  0.0654
  125loPI   GL1 1989  14.621   2.284  10.158 -0.0230 -0.3030  0.2141
  125loPI   GL2 1990  14.734   1.953  10.106 -0.0194  0.1334 -0.3174
  125loPI   C1A 1991  14.284   2.420   9.859  0.0103  0.3635  0.2183
  125loPI   C2A 1992  14.235   2.415   9.410  0.0176  0.0081  0.1174
  125loPI   C3A 1993  14.434   2.371   8.943  0.0754 -0.0670 -0.1164
  125loPI   C4A 1994  14.267   2.608   8.613  0.1812  0.0822 -0.2158
  125loPI   C5A 1995  14.342   2.430   8.247 -0.1033  0.0897 -0.2054
  125loPI   C6A 1996  14.345   2.104   8.049  0.0767 -0.0962  0.3514
  125loPI   C1B 1997  14.699   2.178   9.627  0.1338 -0.2755 -0.0680
  125loPI   C2B 1998  14.813   2.209   9.276  0.2939  0.0597  0.1732
  125loPI   C3B 1999  14.957   2.244   8.864 -0.0602  0.0250 -0.1707
  125loPI   C4B 2000  14.848   2.312   8.482 -0.1790 -0.0894 -0.1659
  126loPI    C1 2001   8.811   4.129  10.519  0.1313  0.1206 -0.0497
  126loPI    C2 2002   8.731   3.961  10.872  0.2073 -0.1432 -0.1556
  126loPI    C3 2003   8.931   4.307  10.856 -0.1935  0.1070  0.0764
  126loPI   PO4 2004   8.940   3.915  10.339 -0.0168  0.0366  0.1923
  126loPI   GL1 2005   9.121   3.861   9.932  0.0635  0.1762 -0.1238
  126loPI   GL2 2006   9.429   3.674  10.007 -0.0479 -0.0110 -0.0057
  126loPI   C1A 2007   9.113   4.079   9.633  0.1254 -0.1324  0.1506
  126loPI   C2A 2008   9.107   4.006   9.218  0.2941  0.1200 -0.2822
  126loPI   C3A 2009   8.997   3.971   8.793  0.1407  0.1811 -0.1590
  126loPI   C4A 2010   8.858   3.902   8.404  0.0728 -0.1887 -0.0963
  126loPI   C5A 2011   8.590   4.225   8.111 -0.0689  0.0218  0.2299
  126loPI   C6A 2012   8.500   4.543   7.790 -0.1331  0.0948 -0.1266
  126loPI   C1B 2013   9.378   3.605   9.612  0.0843  0.0393  0.0390
  126loPI   C2B 2014   9.130   3.404   9.361 -0.1902  0.0093  0.0459
  126loPI   C3B 2015   9.169   3.527   8.989  0.0528 -0.0633 -0.2271
  126loPI   C4B 2016   9.354   3.647   8.597 -0.2221 -0.0420 -0.1590
  127loPI    C1 2017   1.802  13.934  10.892  0.0258  0.2323 -0.1456
  127loPI    C2 2018   1.943  14.199  11.156  0.2195 -0.0169  0.0057
  127loPI    C3 2019   2.111  13.837  11.127 -0.1254 -0.1718 -0.1059
  127loPI   PO4 2020   1.844  14.048  10.665  0.0682 -0.0118  0.2974
  127loPI   GL1 2021   1.684  14.048  10.228 -0.0378  0.0425 -0.0986
  127loPI   GL2 2022   1.842  14.289  10.218  0.1175 -0.2883  0.0775
  127loPI   C1A 2023   1.568  14.041   9.810  0.0078 -0.3500  0.1133
  127loPI   C2A 2024   1.283  14.045   9.425  0.1720  0.0352  0.0166
  127loPI   C3A 2025   1.056  14.332   9.156 -0.2969  0.2523 -0.1735
  127loPI   C4A 2026   0.816  14.182   8.695 -0.2516  0.2346  0.1204
  127loPI   C5A 2027   0.461  14.186   8.479 -0.0324 -0.1411  0.0440
  127loPI   C6A 2028   0.072  14.039   8.436 -0.2594  0.1782  0.0404
  127loPI   C1B 2029   1.850  14.386   9.709 -0.1429  0.1846  0.0234
  127loPI   C2B 2030   1.805  14.416   9.373  0.0277 -0.0810 -0.0728
  127loPI   C3B 2031   1.570  14.358   9.094 -0.1030  0.0992 -0.1354
  127loPI   C4B 2032   1.415  14.250   8.768  0.0596 -0.0072  0.0438
  128loPI    C1 2033   6.949   4.999  10.676  0.4171 -0.1720  0.0104
  128loPI    C2 2034   6.960   5.391  10.596  0.2239 -0.1918 -0.1206
  128loPI    C3 2035   6.824   5.263  10.950  0.2591 -0.1422 -0.0890
  128loPI   PO4 2036   6.845   4.985  10.333  0.1577 -0.2058  0.0698
  128loPI   GL1 2037   7.039   4.984   9.990  0.1092  0.0537  0.0849
  128loPI   GL2 2038   7.345   4.848  10.218 -0.2684  0.1212 -0.1716
  128loPI   C1A 2039   7.027   4.920   9.524  0.0968 -0.1574 -0.1311
  128loPI   C2A 2040   7.205   4.911   9.184 -0.0942 -0.0696  0.0035
  128loPI   C3A 2041   7.302   4.774   8.746 -0.1081  0.3146  0.1212
  128loPI   C4A 2042   7.125   4.498   8.349  0.1142  0.0420 -0.2553
  128loPI   C5A 2043   7.208   4.323   7.929 -0.0759 -0.0590  0.0516
  128loPI   C6A 2044   7.298   3.968   7.721 -0.2788 -0.1200  0.1238
  128loPI   C1B 2045   7.463   4.772   9.790 -0.0312 -0.1298  0.0717
  128loPI   C2B 2046   7.551   4.648   9.416 -0.1058 -0.2353 -0.2230
  128loPI   C3B 2047   7.414   4.418   9.115 -0.0062  0.1264 -0.0174
  128loPI   C4B 2048   7.107   4.331   8.871  0.1627  0.0938  0.1848
  129loPI    C1 2049  14.739  11.928  10.620  0.1189  0.0351 -0.0312
  129loPI    C2 2050  15.009  12.121  10.842  0.1208 -0.1610  0.1397
  129loPI    C3 2051  14.981  11.723  10.864 -0.0293 -0.1616 -0.0472
  129loPI   PO4 2052  14.690  12.055  10.440 -0.1754 -0.2274  0.0700
  129loPI   GL1 2053  14.568  12.071  10.002 -0.0774 -0.0802 -0.1361
  129loPI   GL2 2054  14.911  12.033  10.015 -0.0921  0.0085  0.0038
  129loPI   C1A 2055  14.255  12.161   9.734 -0.1709 -0.1339 -0.0548
  129loPI   C2A 2056  14.279  12.161   9.265  0.0731  0.0283 -0.0743
  129loPI   C3A 2057  14.178  12.223   8.786  0.1189  0.1868  0.0109
  129loPI   C4A 2058  13.916  12.439   8.425  0.0217 -0.0550 -0.4330
  129loPI   C5A 2059  13.549  12.425   8.339 -0.2324  0.2481  0.0937
  129loPI   C6A 2060  13.143  12.267   8.372  0.3152  0.1425  0.0660
  129loPI   C1B 2061  15.090  12.320   9.716 -0.0504 -0.0411  0.0789
  129loPI   C2B 2062  15.111  12.694   9.502 -0.1974  0.0178  0.1235
  129loPI   C3B 2063  14.925  12.770   9.189  0.0645 -0.0696  0.3368
  129loPI   C4B 2064  14.784  12.861   8.803 -0.3628 -0.1496 -0.1985
  130loPI    C1 2065   2.647  11.815  11.029 -0.0436 -0.2769 -0.1325
  130loPI    C2 2066   3.009  11.752  10.872  0.0331 -0.0556 -0.0479
  130loPI    C3 2067   2.968  11.798  11.267 -0.0683  0.0561 -0.0710
  130loPI   PO4 2068   2.534  11.991  10.740 -0.0761 -0.0487  0.1974
  130loPI   GL1 2069   2.386  12.039  10.334 -0.1683  0.1204 -0.2152
  130loPI   GL2 2070   2.214  11.816  10.348 -0.1366  0.0546  0.2632
  130loPI   C1A 2071   2.423  12.099   9.885  0.0064  0.1868  0.1408
  130loPI   C2A 2072   2.365  11.896   9.580 -0.1283 -0.0539 -0.0354
  130loPI   C3A 2073   2.393  11.968   9.151 -0.1731  0.1932 -0.0729
  130loPI   C4A 2074   2.361  12.158   8.797 -0.0589  0.0187 -0.1478
  130loPI   C5A 2075   2.358  12.544   8.495  0.0905 -0.0861 -0.1591
  130loPI   C6A 2076   2.311  12.830   8.311  0.2528 -0.1123  0.0560
  130loPI   C1B 2077   2.259  11.597   9.972 -0.2272  0.0649 -0.0996
  130loPI   C2B 2078   2.370  11.428   9.669  0.3688  0.2139 -0.1954
  130loPI   C3B 2079   2.474  11.533   9.254  0.1667 -0.0914 -0.0557
  130loPI   C4B 2080   2.678  11.369   8.917  0.1306  0.1108 -0.0932
  131loPI    C1 2081   3.114   3.928  10.786 -0.0176  0.0900 -0.0523
  131loPI    C2 2082   3.228   4.305  10.716  0.1176  0.0880  0.1481
  131loPI    C3 2083   3.100   4.199  11.080  0.1783 -0.0836  0.1207
  131loPI   PO4 2084   3.181   3.825  10.464 -0.0899  0.2249  0.2448
  131loPI   GL1 2085   3.571   3.667  10.274 -0.0735  0.1598  0.3145
  131loPI   GL2 2086   3.854   3.930  10.280 -0.1930  0.3501  0.3569
  131loPI   C1A 2087   3.383   3.685   9.844  0.0148  0.1419 -0.1124
  131loPI   C2A 2088   3.212   3.572   9.355  0.1296 -0.0076 -0.0179
  131loPI   C3A 2089   3.258   3.229   9.072 -0.1403  0.1190  0.0218
  131loPI   C4A 2090   3.562   3.276   8.765 -0.1805  0.2998  0.0086
  131loPI   C5A 2091   3.702   3.255   8.340  0.2041  0.3492  0.3711
  131loPI   C6A 2092   3.909   3.369   7.940 -0.0276 -0.1770  0.1211
  131loPI   C1B 2093   3.822   3.996   9.909 -0.0118  0.0978  0.0326
  131loPI   C2B 2094   4.022   4.412   9.904 -0.0869 -0.0061 -0.2559
  131loPI   C3B 2095   4.484   4.511   9.925 -0.0223 -0.0846  0.2216
  131loPI   C4B 2096   4.906   4.197  10.178 -0.4346 -0.1242 -0.0967
  132loPI    C1 2097  11.490   8.273  10.554  0.0407  0.0335 -0.0775
  132loPI    C2 2098  11.288   8.534  10.328  0.2151  0.2866  0.0532
  132loPI    C3 2099  11.224   8.521  10.722 -0.1033 -0.1672 -0.0052
  132loPI   PO4 2100  11.549   8.164  10.282 -0.1942  0.2793  0.0602
  132loPI   GL1 2101  11.653   8.379   9.936 -0.0128 -0.1938  0.2125
  132loPI   GL2 2102  11.727   8.666   9.963 -0.2860  0.0018 -0.1364
  132loPI   C1A 2103  11.611   8.451   9.525  0.2192  0.0845  0.1858
  132loPI   C2A 2104  11.576   8.534   9.110 -0.1339 -0.1285 -0.0847
  132loPI   C3A 2105  11.505   8.639   8.781  0.2363 -0.2418  0.0786
  132loPI   C4A 2106  11.338   8.545   8.423 -0.1177 -0.0610 -0.1890
  132loPI   C5A 2107  10.898   8.624   8.196 -0.2771 -0.0353 -0.2455
  132loPI   C6A 2108  10.766   9.038   7.939 -0.1594 -0.3689  0.1175
  132loPI   C1B 2109  11.795   9.006   9.728  0.0298  0.0413  0.3120
  132loPI   C2B 2110  11.892   9.037   9.294 -0.2454 -0.2582 -0.0076
  132loPI   C3B 2111  11.961   8.823   8.894 -0.2358 -0.0850  0.2442
  132loPI   C4B 2112  12.212   8.910   8.397  0.1387 -0.0826  0.0647
  133loPI    C1 2113   7.903   0.611  10.906  0.0349 -0.0614 -0.0156
  133loPI    C2 2114   8.039   0.405  11.220  0.3663  0.1036 -0.0456
  133loPI    C3 2115   7.765   0.692  11.272  0.2000 -0.0702  0.0497
  133loPI   PO4 2116   7.959   0.398  10.756 -0.1951  0.0078  0.0731
  133loPI   GL1 2117   7.982   0.267  10.333 -0.0566 -0.0350 -0.0328
  133loPI   GL2 2118   8.114   0.552  10.223  0.0562 -0.0737 -0.3467
  133loPI   C1A 2119   7.515   0.412  10.082  0.0252 -0.0734  0.2561
  133loPI   C2A 2120   7.396   0.639   9.734 -0.2277 -0.0155  0.0404
  133loPI   C3A 2121   7.478   0.895   9.412  0.1500  0.2281  0.2461
  133loPI   C4A 2122   7.378   0.821   9.061  0.1083 -0.1035 -0.2690
  133loPI   C5A 2123   7.191   0.908   8.628 -0.1590  0.0925  0.0060
  133loPI   C6A 2124   7.071   0.667   8.278  0.0236 -0.0520 -0.0489
  133loPI   C1B 2125   7.891   0.488   9.837  0.0105 -0.0111  0.0483
  133loPI   C2B 2126   7.786   0.485   9.364  0.1467  0.0125 -0.3393
  133loPI   C3B 2127   7.799   0.464   8.958  0.0717 -0.0547 -0.1064
  133loPI   C4B 2128   7.529   0.603   8.537 -0.1309  0.2038  0.2945
  134loPI    C1 2129  15.227  10.188  10.488 -0.0261  0.2181  0.0618
  134loPI    C2 2130  14.865  10.356  10.482 -0.0120  0.2496  0.0867
  134loPI    C3 2131  14.983  10.149  10.802 -0.0841  0.0716 -0.0006
  134loPI   PO4 2132  15.230  10.065  10.240  0.3312 -0.0576 -0.5196
  134loPI   GL1 2133  15.181  10.231   9.811 -0.1100 -0.0507  0.0895
  134loPI   GL2 2134  15.288  10.496   9.639  0.1265  0.0778 -0.1982
  134loPI   C1A 2135  14.776  10.188   9.531  0.0075 -0.4196  0.2713
  134loPI   C2A 2136  14.727  10.161   9.064  0.0292  0.3493  0.3051
  134loPI   C3A 2137  14.521  10.299   8.718  0.1207  0.0890 -0.1718
  134loPI   C4A 2138  14.479  10.157   8.368  0.0840 -0.0599  0.0593
  134loPI   C5A 2139  14.483   9.745   8.247  0.1858 -0.1070 -0.1243
  134loPI   C6A 2140  14.158   9.490   8.209  0.1074 -0.1256 -0.1472
  134loPI   C1B 2141  15.231  10.216   9.255  0.1485 -0.1245 -0.0156
  134loPI   C2B 2142  15.143  10.158   8.837  0.1639  0.2511 -0.1770
  134loPI   C3B 2143  15.006  10.349   8.435  0.1934 -0.2288  0.0873
  134loPI   C4B 2144  15.043  10.516   8.038 -0.1248 -0.3750  0.0628
  135loPI    C1 2145   4.321  11.660  10.614  0.4451  0.2264 -0.0750
  135loPI    C2 2146   4.278  11.289  10.757  0.0522  0.2062 -0.2317
  135loPI    C3 2147   4.534  11.542  10.932 -0.1493  0.0691  0.2823
  135loPI   PO4 2148   4.157  11.767  10.613  0.1367 -0.2759  0.1130
  135loPI   GL1 2149   3.876  11.940  10.318  0.3660 -0.1453  0.0239
  135loPI   GL2 2150   4.187  11.994  10.196  0.1499 -0.0605 -0.0946
  135loPI   C1A 2151   3.850  12.078   9.868 -0.0678  0.1352 -0.2609
  135loPI   C2A 2152   3.981  11.979   9.393  0.0035  0.0875  0.2686
  135loPI   C3A 2153   4.013  12.048   9.049 -0.2285 -0.0602 -0.3629
  135loPI   C4A 2154   3.933  12.193   8.705  0.0449  0.2285  0.0156
  135loPI   C5A 2155   3.985  12.369   8.414  0.0569  0.0005 -0.1873
  135loPI   C6A 2156   4.065  12.708   8.213 -0.1149  0.0073 -0.0596
  135loPI   C1B 2157   4.284  12.314   9.847  0.0303 -0.1057  0.0816
  135loPI   C2B 2158   4.357  12.301   9.456  0.0519 -0.0392 -0.2214
  135loPI   C3B 2159   4.434  12.389   9.033 -0.1641  0.2109  0.0091
  135loPI   C4B 2160   4.438  12.463   8.618 -0.0054 -0.0044 -0.0130
  136loPI    C1 2161  11.317  14.512  10.854  0.1063  0.0828  0.1773
  136loPI    C2 2162  11.487  14.150  10.850 -0.0543  0.0069  0.1221
  136loPI    C3 2163  11.258  14.260  11.159 -0.0206  0.0546  0.1302
  136loPI   PO4 2164  11.231  14.507  10.546 -0.0943  0.1887 -0.1106
  136loPI   GL1 2165  11.394  14.474  10.185  0.2093 -0.1587 -0.1515
  136loPI   GL2 2166  11.552  14.713   9.967  0.0647 -0.2796 -0.0451
  136loPI   C1A 2167  11.129  14.524   9.762 -0.0447 -0.2134 -0.2620
  136loPI   C2A 2168  11.157  14.348   9.424  0.0558 -0.0946 -0.1413
  136loPI   C3A 2169  11.413  14.445   9.039  0.0150 -0.1288 -0.2042
  136loPI   C4A 2170  11.247  14.334   8.617 -0.0111 -0.0630 -0.0346
  136loPI   C5A 2171  11.213  14.118   8.247 -0.3242  0.0345  0.2379
  136loPI   C6A 2172  11.154  13.917   7.939 -0.1324 -0.0761 -0.1467
  136loPI   C1B 2173  11.604  14.734   9.478 -0.0538  0.2890 -0.0718
  136loPI   C2B 2174  11.928  14.500   9.246  0.1038  0.0785 -0.0052
  136loPI   C3B 2175  11.818  14.345   8.827 -0.4010 -0.1075  0.2028
  136loPI   C4B 2176  11.644  14.087   8.521 -0.1034 -0.0063 -0.2132
  137loPI    C1 2177  15.935  13.196  10.749 -0.0727  0.1810 -0.1586
  137loPI    C2 2178  15.872  12.801  10.759 -0.0458  0.1757 -0.2000
  137loPI    C3 2179  16.170  12.961  10.973 -0.1314  0.1878 -0.0893
  137loPI   PO4 2180  15.892  13.246  10.537 -0.1024  0.2514  0.0496
  137loPI   GL1 2181  15.842  13.539  10.232 -0.4237  0.1090 -0.1040
  137loPI   GL2 2182  15.955  13.717  10.092 -0.2607  0.4974  0.1829
  137loPI   C1A 2183  15.448  13.731   9.917  0.1056  0.0776 -0.2421
  137loPI   C2A 2184  15.211  13.641   9.597  0.0675 -0.0047  0.0976
  137loPI   C3A 2185  15.246  13.670   9.200  0.0285  0.0027 -0.0457
  137loPI   C4A 2186  15.281  13.666   8.756  0.3065  0.1228  0.0896
  137loPI   C5A 2187  15.472  13.527   8.287 -0.0648  0.0835  0.0284
  137loPI   C6A 2188  15.602  13.252   7.980  0.1303  0.0438  0.0314
  137loPI   C1B 2189  16.186  13.823   9.749 -0.1061  0.2000  0.2949
  137loPI   C2B 2190  16.124  13.688   9.270 -0.1284  0.2375  0.0861
  137loPI   C3B 2191  16.180  13.762   8.864  0.0646  0.0661  0.1717
  137loPI   C4B 2192  16.114  13.529   8.549 -0.0617 -0.2821 -0.0351
  138loPI    C1 2193   8.377  17.027  10.415 -0.0891  0.1296  0.1013
  138loPI    C2 2194   8.201  16.922  10.758 -0.0256  0.2795  0.1806
  138loPI    C3 2195   8.594  16.867  10.710 -0.0339  0.2616  0.1331
  138loPI   PO4 2196   8.137  17.035  10.276 -0.1291 -0.1889 -0.2985
  138loPI   GL1 2197   8.089  17.047   9.868 -0.0453  0.3937  0.1504
  138loPI   GL2 2198   7.744  17.137   9.725 -0.0174  0.3964 -0.1426
  138loPI   C1A 2199   8.084  17.058   9.403  0.3505  0.0329 -0.1387
  138loPI   C2A 2200   8.043  16.954   8.877 -0.1041 -0.1089  0.2561
  138loPI   C3A 2201   7.883  17.132   8.524 -0.1452 -0.0089 -0.3613
  138loPI   C4A 2202   7.761  17.524   8.247 -0.2486  0.1739  0.0140
  138loPI   C5A 2203   8.022  17.854   7.993 -0.2604 -0.3016  0.0211
  138loPI   C6A 2204   8.336  18.099   8.284 -0.1030  0.1128 -0.1986
  138loPI   C1B 2205   7.585  17.123   9.331  0.1109  0.0552 -0.1872
  138loPI   C2B 2206   7.485  17.088   8.880 -0.0452 -0.1166  0.2073
  138loPI   C3B 2207   7.349  17.136   8.502 -0.1128 -0.0336  0.0687
  138loPI   C4B 2208   7.243  17.562   8.209  0.1728  0.1020 -0.2027
  139loPI    C1 2209  11.782  10.280  10.850  0.2240 -0.1559 -0.0746
  139loPI    C2 2210  11.552   9.986  10.993  0.0087  0.0501  0.0095
  139loPI    C3 2211  11.428  10.366  11.014  0.3281  0.1589 -0.0063
  139loPI   PO4 2212  11.861  10.262  10.615 -0.2746 -0.1201  0.1355
  139loPI   GL1 2213  11.797  10.178  10.152 -0.1553  0.3439  0.5041
  139loPI   GL2 2214  11.536  10.352  10.121 -0.2440 -0.2865 -0.1592
  139loPI   C1A 2215  11.807  10.003   9.845  0.4274 -0.4179 -0.0745
  139loPI   C2A 2216  11.791  10.095   9.396 -0.0634  0.2778 -0.0201
  139loPI   C3A 2217  11.847   9.869   9.083 -0.4372 -0.0726  0.1139
  139loPI   C4A 2218  11.603   9.944   8.660 -0.0935 -0.1378  0.0706
  139loPI   C5A 2219  11.362   9.843   8.262 -0.1851  0.0918 -0.1559
  139loPI   C6A 2220  11.122  10.012   7.881 -0.1918 -0.0213 -0.2660
  139loPI   C1B 2221  11.387  10.360   9.728 -0.1262  0.2345  0.1780
  139loPI   C2B 2222  11.404  10.399   9.293  0.2874 -0.2066  0.1600
  139loPI   C3B 2223  11.693  10.291   8.974  0.1429 -0.1403  0.0377
  139loPI   C4B 2224  11.972  10.287   8.585  0.0375  0.0351 -0.2264
  140loPI    C1 2225  13.200   9.122  10.536  0.0693 -0.0794  0.2677
  140loPI    C2 2226  12.936   9.125  10.837 -0.3231  0.1356 -0.0682
  140loPI    C3 2227  12.973   9.445  10.600 -0.0474 -0.0449 -0.2761
  140loPI   PO4 2228  13.228   8.977  10.420 -0.0030 -0.1307  0.3541
  140loPI   GL1 2229  13.212   8.922  10.049 -0.0351 -0.0868  0.0757
  140loPI   GL2 2230  13.320   9.267  10.044 -0.0215 -0.0045  0.2116
  140loPI   C1A 2231  13.390   8.864   9.715  0.0197  0.1842 -0.1199
  140loPI   C2A 2232  13.388   9.030   9.295 -0.2029 -0.2634 -0.2627
  140loPI   C3A 2233  13.554   9.169   8.916  0.0823 -0.0612  0.0605
  140loPI   C4A 2234  13.487   9.196   8.396 -0.1853  0.2148 -0.0682
  140loPI   C5A 2235  13.620   9.401   8.057  0.3567 -0.0207 -0.2076
  140loPI   C6A 2236  13.848   9.694   7.825 -0.3768  0.0527 -0.1772
  140loPI   C1B 2237  13.228   9.397   9.605 -0.0885  0.0227  0.2017
  140loPI   C2B 2238  13.086   9.442   9.200 -0.4013  0.0217  0.1477
  140loPI   C3B 2239  13.189   9.460   8.712  0.0255  0.1108 -0.2933
  140loPI   C4B 2240  13.057   9.505   8.291  0.1314  0.2657  0.1380
  141loPI    C1 2241   3.770   1.308  11.101 -0.1817 -0.1726 -0.1568
  141loPI    C2 2242   3.998   1.089  11.346  0.1044  0.2046 -0.0775
  141loPI    C3 2243   3.771   1.383  11.493 -0.3172 -0.0631 -0.1768
  141loPI   PO4 2244   3.686   1.186  10.910  0.0057  0.0181  0.0617
  141loPI   GL1 2245   3.660   1.321  10.485 -0.0942 -0.0800  0.0982
  141loPI   GL2 2246   4.005   1.101  10.517  0.3243 -0.1295 -0.0585
  141loPI   C1A 2247   3.831   1.172  10.065 -0.3520  0.2669 -0.1852
  141loPI   C2A 2248   3.839   1.034   9.617 -0.0402 -0.0183 -0.1627
  141loPI   C3A 2249   3.920   1.364   9.257 -0.2783 -0.0021  0.0629
  141loPI   C4A 2250   4.163   1.199   8.827  0.2740 -0.1660 -0.1768
  141loPI   C5A 2251   4.309   1.403   8.463  0.3933 -0.3015 -0.0355
  141loPI   C6A 2252   4.417   1.605   8.059 -0.3641 -0.0057 -0.0726
  141loPI   C1B 2253   4.229   1.477  10.226 -0.0366  0.2077 -0.2475
  141loPI   C2B 2254   4.485   1.698   9.893  0.1172  0.0171 -0.2294
  141loPI   C3B 2255   4.397   1.769   9.447 -0.1794  0.2881 -0.3569
  141loPI   C4B 2256   4.458   1.804   9.070 -0.0186  0.1689 -0.0535
  142loPI    C1 2257   1.796  14.644  10.991 -0.2536  0.0436  0.3663
  142loPI    C2 2258   1.590  14.978  10.914  0.0282  0.1350 -0.0179
  142loPI    C3 2259   1.738  14.915  11.280 -0.0231  0.4327  0.0569
  142loPI   PO4 2260   1.966  14.571  10.793  0.0203  0.0372  0.1906
  142loPI   GL1 2261   2.114  14.585  10.494 -0.2266 -0.0156 -0.3011
  142loPI   GL2 2262   2.354  14.460  10.364 -0.0434  0.0629  0.1180
  142loPI   C1A 2263   2.084  14.799  10.067 -0.0890 -0.3352 -0.1501
  142loPI   C2A 2264   2.173  14.787   9.690 -0.0793 -0.0345  0.1014
  142loPI   C3A 2265   2.176  14.708   9.261 -0.1597 -0.2012  0.0936
  142loPI   C4A 2266   2.280  14.918   8.812  0.2974  0.1431  0.0554
  142loPI   C5A 2267   2.223  14.604   8.431  0.2186 -0.1074 -0.1095
  142loPI   C6A 2268   2.238  14.118   8.407  0.0450  0.3340 -0.1343
  142loPI   C1B 2269   2.553  14.424   9.924 -0.1364 -0.0735 -0.0849
  142loPI   C2B 2270   2.428  14.247   9.588 -0.2266  0.1689  0.1523
  142loPI   C3B 2271   2.223  14.228   9.171 -0.0676  0.1238 -0.2809
  142loPI   C4B 2272   2.024  14.276   8.828 -0.2628 -0.0023  0.2142
  143loPI    C1 2273  16.266  11.522  10.547 -0.2192  0.0113 -0.0200
  143loPI    C2 2274  16.378  11.317  10.222 -0.0253  0.0218  0.0388
  143loPI    C3 2275  16.454  11.172  10.587 -0.1293  0.0702  0.0802
  143loPI   PO4 2276  16.339  11.757  10.471  0.1095 -0.3220 -0.0678
  143loPI   GL1 2277  16.278  11.909  10.054  0.1017  0.1097  0.0347
  143loPI   GL2 2278  16.077  12.262   9.983 -0.1503 -0.0355  0.3359
  143loPI   C1A 2279  16.286  11.696   9.673  0.0251  0.3400  0.2242
  143loPI   C2A 2280  16.161  11.789   9.282 -0.0419  0.0119 -0.2410
  143loPI   C3A 2281  16.071  11.838   8.895  0.3705 -0.2898  0.0777
  143loPI   C4A 2282  15.974  11.820   8.431 -0.1511  0.1036 -0.1822
  143loPI   C5A 2283  16.136  11.759   8.032  0.1955  0.1824  0.0861
  143loPI   C6A 2284  16.445  12.059   7.765 -0.0365  0.5693 -0.1281
  143loPI   C1B 2285  16.026  12.124   9.625 -0.1164  0.1245 -0.0885
  143loPI   C2B 2286  15.851  12.241   9.182 -0.0330  0.3122  0.1262
  143loPI   C3B 2287  15.859  12.319   8.755 -0.1045  0.3911 -0.0811
  143loPI   C4B 2288  15.701  12.571   8.511 -0.0260  0.0650  0.0665
  144loPI    C1 2289  12.836  17.649  10.707  0.1164  0.3597 -0.1923
  144loPI    C2 2290  12.508  17.856  10.808 -0.0206  0.0246  0.0695
  144loPI    C3 2291  12.506  17.456  10.825  0.3326  0.0085 -0.1481
  144loPI   PO4 2292  12.884  17.650  10.511 -0.2666  0.2599 -0.1296
  144loPI   GL1 2293  12.928  17.547  10.164  0.1238  0.0444  0.2790
  144loPI   GL2 2294  13.108  17.181  10.050 -0.3058  0.0816  0.1018
  144loPI   C1A 2295  13.035  17.679   9.764 -0.2399  0.1639  0.1471
  144loPI   C2A 2296  12.786  17.712   9.325  0.1515  0.0265 -0.1761
  144loPI   C3A 2297  12.622  17.780   8.921  0.2685 -0.0994 -0.2018
  144loPI   C4A 2298  12.542  17.636   8.540 -0.2697 -0.1152 -0.1092
  144loPI   C5A 2299  12.138  17.445   8.349 -0.0642  0.0702 -0.1864
  144loPI   C6A 2300  11.717  17.489   8.405 -0.0675 -0.0811  0.2419
  144loPI   C1B 2301  13.364  17.066   9.641  0.0546  0.0435  0.1468
  144loPI   C2B 2302  13.466  16.985   9.243 -0.3654  0.1615  0.1115
  144loPI   C3B 2303  13.764  17.156   8.929  0.3124  0.0150  0.0412
  144loPI   C4B 2304  13.773  17.285   8.525  0.0102  0.0271  0.3048
  145loPI    C1 2305   5.832   4.397  10.796 -0.0872  0.0593 -0.0523
  145loPI    C2 2306   5.627   4.650  11.028 -0.1040  0.1971 -0.2151
  145loPI    C3 2307   5.515   4.267  11.002 -0.0894  0.1755  0.0187
  145loPI   PO4 2308   6.042   4.616  10.717 -0.0628 -0.0446 -0.1128
  145loPI   GL1 2309   6.054   4.493  10.298  0.2666 -0.2283  0.0690
  145loPI   GL2 2310   5.905   4.233  10.261  0.0121  0.2005  0.1608
  145loPI   C1A 2311   6.087   4.707   9.952 -0.0340  0.2260  0.1117
  145loPI   C2A 2312   5.923   4.584   9.577  0.0194 -0.0504  0.0621
  145loPI   C3A 2313   5.724   4.528   9.334 -0.1779 -0.3067 -0.0025
  145loPI   C4A 2314   5.780   4.556   8.878  0.0831  0.1761 -0.0280
  145loPI   C5A 2315   5.719   4.420   8.439 -0.1706  0.0192 -0.2485
  145loPI   C6A 2316   5.484   4.354   8.142  0.2492  0.1149  0.2887
  145loPI   C1B 2317   5.932   4.136   9.791  0.0789 -0.0657 -0.0733
  145loPI   C2B 2318   5.989   4.085   9.313  0.2031  0.4352 -0.0352
  145loPI   C3B 2319   6.056   4.166   8.868  0.0049 -0.1342 -0.1975
  145loPI   C4B 2320   6.175   4.263   8.513  0.2966 -0.2667  0.3493
  146loPI    C1 2321   9.572  10.723  10.854 -0.0332 -0.3873 -0.0347
  146loPI    C2 2322   9.298  10.804  10.575  0.0144 -0.1604 -0.0174
  146loPI    C3 2323   9.201  10.829  10.962  0.0313 -0.1800 -0.0120
  146loPI   PO4 2324   9.655  10.551  10.801 -0.1848  0.2892  0.0704
  146loPI   GL1 2325   9.486  10.314  10.399  0.3263 -0.0875  0.0931
  146loPI   GL2 2326   9.376  10.207  10.166 -0.0200  0.1018  0.0915
  146loPI   C1A 2327   9.614  10.628   9.991 -0.1493  0.2948 -0.2369
  146loPI   C2A 2328   9.529  10.925   9.748  0.0267  0.2120 -0.3771
  146loPI   C3A 2329   9.565  11.028   9.313  0.0345 -0.0306  0.0738
  146loPI   C4A 2330   9.567  11.140   8.781 -0.1396  0.0993  0.0069
  146loPI   C5A 2331   9.501  11.293   8.390  0.4893  0.1720  0.1207
  146loPI   C6A 2332   9.506  11.694   8.033  0.0052 -0.0768 -0.0246
  146loPI   C1B 2333   9.486  10.205   9.670 -0.1930 -0.1096 -0.2537
  146loPI   C2B 2334   9.432  10.222   9.218  0.1791 -0.0052 -0.0313
  146loPI   C3B 2335   9.378  10.246   8.749 -0.2115 -0.1574 -0.1316
  146loPI   C4B 2336   9.343  10.290   8.313 -0.1279 -0.2720  0.0589
  147loPI    C1 2337   5.521  11.160  10.833 -0.0141  0.0943  0.0069
  147loPI    C2 2338   5.406  11.183  11.215 -0.2662  0.0271 -0.0632
  147loPI    C3 2339   5.768  11.313  11.107 -0.0970 -0.1803  0.2396
  147loPI   PO4 2340   5.326  10.963  10.696  0.1833 -0.0020  0.2908
  147loPI   GL1 2341   5.319  10.647  10.398  0.0048  0.0861 -0.0662
  147loPI   GL2 2342   5.597  10.775  10.348  0.0018 -0.0093 -0.1515
  147loPI   C1A 2343   5.444  10.328  10.109  0.0908 -0.1425  0.1109
  147loPI   C2A 2344   5.456  10.390   9.640 -0.3208 -0.2795  0.1161
  147loPI   C3A 2345   5.630  10.512   9.273  0.1097  0.0393 -0.2397
  147loPI   C4A 2346   5.767  10.519   8.841 -0.0128  0.2295  0.2164
  147loPI   C5A 2347   6.098  10.554   8.571 -0.0931  0.0246  0.1835
  147loPI   C6A 2348   6.331  10.606   8.172  0.1972 -0.1628  0.1841
  147loPI   C1B 2349   5.382  10.868   9.926 -0.1613  0.4586  0.1157
  147loPI   C2B 2350   5.363  10.917   9.462 -0.4490  0.0415  0.0035
  147loPI   C3B 2351   5.409  10.844   9.027  0.1447  0.0235  0.4271
  147loPI   C4B 2352   5.590  10.881   8.523 -0.2032 -0.1168 -0.2290
  148loPI    C1 2353  15.382  14.294  10.831  0.0617 -0.0548  0.1397
  148loPI    C2 2354  15.129  14.593  10.908  0.0186 -0.0273 -0.1006
  148loPI    C3 2355  15.079  14.238  11.085  0.0866  0.1132  0.2075
  148loPI   PO4 2356  15.434  14.323  10.562 -0.0368  0.1405  0.1888
  148loPI   GL1 2357  15.536  14.458  10.192  0.0551 -0.4161  0.1571
  148loPI   GL2 2358  15.743  14.221   9.954  0.0997  0.2050  0.0458
  148loPI   C1A 2359  15.619  14.652   9.692 -0.4236  0.1958 -0.0986
  148loPI   C2A 2360  15.731  14.546   9.253  0.0740  0.1192 -0.0145
  148loPI   C3A 2361  15.626  14.436   8.850 -0.1765  0.2207  0.1848
  148loPI   C4A 2362  15.732  14.367   8.436  0.2932  0.0367  0.0516
  148loPI   C5A 2363  15.626  14.010   8.181  0.1506  0.2183 -0.0972
  148loPI   C6A 2364  15.957  13.794   7.993  0.2556  0.0799  0.2093
  148loPI   C1B 2365  15.867  14.151   9.500  0.0543 -0.0111  0.1353
  148loPI   C2B 2366  16.159  14.156   9.141 -0.1008  0.0446  0.1757
  148loPI   C3B 2367  16.134  14.246   8.711  0.1070  0.1523 -0.1311
  148loPI   C4B 2368  16.153  14.029   8.330  0.1359  0.0432  0.0352
  149loPI    C1 2369   2.834  14.347  11.143 -0.1441  0.1234 -0.0854
  149loPI    C2 2370   3.103  14.553  11.355 -0.2719  0.0812  0.1212
  149loPI    C3 2371   2.964  14.205  11.494 -0.2793  0.0007 -0.0839
  149loPI   PO4 2372   2.971  14.405  10.896 -0.0110 -0.0242  0.0765
  149loPI   GL1 2373   2.899  14.626  10.473  0.0372  0.0678  0.0052
  149loPI   GL2 2374   2.803  14.294  10.424 -0.0254 -0.1489 -0.1094
  149loPI   C1A 2375   2.948  14.948  10.316 -0.1230  0.0602 -0.1013
  149loPI   C2A 2376   3.032  14.977   9.860 -0.1272 -0.0702  0.1189
  149loPI   C3A 2377   3.074  15.008   9.445  0.2105  0.4138 -0.2882
  149loPI   C4A 2378   3.052  14.944   9.011 -0.5352  0.2040 -0.0901
  149loPI   C5A 2379   3.184  14.870   8.559  0.2913 -0.2770 -0.1332
  149loPI   C6A 2380   3.570  15.076   8.444 -0.0030  0.2151  0.1404
  149loPI   C1B 2381   2.847  13.989  10.148  0.2247 -0.0189  0.1226
  149loPI   C2B 2382   2.868  13.941   9.697  0.2536  0.1960 -0.1304
  149loPI   C3B 2383   2.773  14.098   9.231  0.1083  0.3003  0.2490
  149loPI   C4B 2384   2.697  14.203   8.787  0.1402  0.1710 -0.2571
  150loPI    C1 2385  13.349  13.760  11.058 -0.0916  0.2441  0.0743
  150loPI    C2 2386  13.215  13.565  11.381 -0.0592  0.0313 -0.0383
  150loPI    C3 2387  13.320  13.950  11.408  0.0780 -0.0234  0.2376
  150loPI   PO4 2388  13.168  13.545  10.874  0.0025 -0.1858  0.1302
  150loPI   GL1 2389  12.872  13.611  10.460 -0.1178 -0.3419  0.1423
  150loPI   GL2 2390  12.680  13.348  10.269  0.1145  0.0391 -0.0232
  150loPI   C1A 2391  13.116  13.509  10.035 -0.1229 -0.2186  0.1580
  150loPI   C2A 2392  13.295  13.255   9.647  0.0612  0.0553 -0.2849
  150loPI   C3A 2393  13.464  13.322   9.205 -0.1782 -0.2474  0.1588
  150loPI   C4A 2394  13.611  13.343   8.781 -0.1257  0.0583 -0.0368
  150loPI   C5A 2395  13.683  13.340   8.277 -0.1832 -0.1395  0.1189
  150loPI   C6A 2396  13.864  13.679   8.132  0.1569  0.0149 -0.1703
  150loPI   C1B 2397  12.617  13.575   9.912 -0.0652 -0.0868  0.1241
  150loPI   C2B 2398  12.820  13.444   9.576  0.0858 -0.0647 -0.0030
  150loPI   C3B 2399  12.893  13.243   9.261  0.1451  0.3352 -0.2175
  150loPI   C4B 2400  13.133  13.005   9.068  0.1085 -0.2167 -0.2077
  151loPI    C1 2401   8.874  17.326  10.621 -0.2379 -0.0870 -0.0806
  151loPI    C2 2402   8.873  17.219  10.236  0.1819  0.1499 -0.1534
  151loPI    C3 2403   9.128  17.047  10.491 -0.0048  0.0872 -0.0064
  151loPI   PO4 2404   8.878  17.657  10.564 -0.0832 -0.0032 -0.1642
  151loPI   GL1 2405   8.871  17.713  10.108 -0.0626 -0.0270 -0.1311
  151loPI   GL2 2406   9.058  17.488   9.856 -0.2162 -0.2213 -0.2593
  151loPI   C1A 2407   8.576  17.662   9.748  0.2037  0.0084  0.0263
  151loPI   C2A 2408   8.474  17.416   9.401  0.1033  0.0725 -0.3450
  151loPI   C3A 2409   8.378  17.314   9.025  0.0118  0.0965  0.0202
  151loPI   C4A 2410   8.395  17.185   8.583  0.1552  0.2700 -0.0005
  151loPI   C5A 2411   8.638  17.087   8.187  0.2075  0.0794 -0.0253
  151loPI   C6A 2412   8.692  16.679   8.146  0.0350  0.0677  0.2556
  151loPI   C1B 2413   9.000  17.349   9.464  0.3442 -0.2470  0.0310
  151loPI   C2B 2414   8.902  17.259   9.039  0.0401 -0.0922 -0.1662
  151loPI   C3B 2415   9.041  17.032   8.597 -0.0976 -0.3092  0.3506
  151loPI   C4B 2416   9.098  16.912   8.116  0.0695 -0.3200  0.0561
  152loPI    C1 2417  16.223   4.200  11.285  0.2092 -0.1415  0.0376
  152loPI    C2 2418  16.144   3.857  11.474  0.1694 -0.0098  0.2637
  152loPI    C3 2419  16.248   4.181  11.683  0.1075  0.1439  0.0599
  152loPI   PO4 2420  16.266   4.003  10.984 -0.2320  0.1568 -0.1666
  152loPI   GL1 2421  16.132   3.814  10.548  0.1467 -0.2335 -0.0275
  152loPI   GL2 2422  15.962   3.664  10.374  0.2252  0.3125  0.0312
  152loPI   C1A 2423  16.266   3.985  10.020 -0.1715 -0.0733  0.1865
  152loPI   C2A 2424  16.216   4.077   9.576  0.0914 -0.1084  0.0611
  152loPI   C3A 2425  16.083   4.088   9.179  0.4784 -0.1753  0.0853
  152loPI   C4A 2426  16.202   4.184   8.744  0.1955 -0.0050  0.2225
  152loPI   C5A 2427  16.353   4.152   8.227  0.0039  0.1592 -0.1239
  152loPI   C6A 2428  16.215   3.824   7.923 -0.0592 -0.2656  0.0966
  152loPI   C1B 2429  15.745   3.760  10.103  0.1332 -0.2607 -0.1434
  152loPI   C2B 2430  15.763   3.940   9.668 -0.0599 -0.0723  0.0241
  152loPI   C3B 2431  15.607   3.883   9.230  0.3127 -0.2638  0.1685
  152loPI   C4B 2432  15.399   3.939   8.856 -0.2574 -0.1505  0.0502
  153loPI    C1 2433  17.556   9.841  10.551 -0.0259  0.0415  0.1666
  153loPI    C2 2434  17.902   9.676  10.665 -0.0141 -0.0906 -0.0540
  153loPI    C3 2435  17.860  10.074  10.664  0.1461 -0.0730 -0.0524
  153loPI   PO4 2436  17.507   9.710  10.336 -0.0558  0.0730  0.1496
  153loPI   GL1 2437  17.301   9.573   9.892  0.0762  0.2787  0.0958
  153loPI   GL2 2438  17.510   9.307  10.009  0.0029  0.1616  0.0821
  153loPI   C1A 2439  17.315   9.500   9.433 -0.0062 -0.0858  0.0590
  153loPI   C2A 2440  17.318   9.472   9.004 -0.2770 -0.1549 -0.0351
  153loPI   C3A 2441  17.266   9.460   8.604 -0.2088  0.1204 -0.1134
  153loPI   C4A 2442  17.628   9.465   8.339  0.2002  0.2727  0.2233
  153loPI   C5A 2443  17.493   9.326   7.926 -0.2297  0.0481  0.1491
  153loPI   C6A 2444  17.285   9.154   7.712  0.3116 -0.0113  0.0959
  153loPI   C1B 2445  17.763   9.508   9.692 -0.0519 -0.1920 -0.2783
  153loPI   C2B 2446  17.789   9.454   9.232  0.0781 -0.0633 -0.2337
  153loPI   C3B 2447  17.796   9.409   8.812 -0.1548  0.1828  0.3350
  153loPI   C4B 2448  18.128   9.358   8.442 -0.0395 -0.0962  0.1959
  154loPI    C1 2449   9.398  15.282  10.759  0.0697  0.2161  0.0008
  154loPI    C2 2450   9.236  14.959  10.931  0.1949  0.0455 -0.1970
  154loPI    C3 2451   9.178  15.321  11.091  0.3468 -0.1128  0.2302
  154loPI   PO4 2452   9.352  15.318  10.546 -0.0331 -0.0420  0.0867
  154loPI   GL1 2453   9.284  15.558  10.224 -0.0672 -0.1853 -0.0865
  154loPI   GL2 2454   9.155  15.813  10.170  0.1605  0.0512 -0.2342
  154loPI   C1A 2455   9.387  15.540   9.797  0.0036  0.1552 -0.1219
  154loPI   C2A 2456   9.151  15.592   9.538 -0.0299  0.0058  0.0538
  154loPI   C3A 2457   9.227  15.711   9.151  0.2636  0.1243  0.0183
  154loPI   C4A 2458   9.138  15.536   8.665 -0.4203  0.3096 -0.1148
  154loPI   C5A 2459   9.010  15.320   8.342  0.0321  0.2707  0.1310
  154loPI   C6A 2460   8.800  14.876   8.418 -0.0966  0.1960 -0.1509
  154loPI   C1B 2461   9.188  16.038   9.731 -0.0270 -0.1381  0.0643
  154loPI   C2B 2462   9.126  16.103   9.423 -0.1478  0.0784 -0.0058
  154loPI   C3B 2463   9.152  16.206   9.051  0.0389 -0.1581 -0.0491
  154loPI   C4B 2464   9.096  16.027   8.679 -0.1369  0.1716 -0.0607
  155loPI    C1 2465   2.494   0.386  11.136  0.1499 -0.3118  0.1338
  155loPI    C2 2466   2.730   0.534  11.424  0.0147 -0.0367  0.1070
  155loPI    C3 2467   2.504   0.211  11.495  0.2488 -0.1833  0.1946
  155loPI   PO4 2468   2.587   0.383  10.891 -0.2477  0.1646  0.0319
  155loPI   GL1 2469   2.564   0.175  10.493 -0.1585  0.0879 -0.2503
  155loPI   GL2 2470   2.706  -0.117  10.570  0.0700 -0.0474 -0.2848
  155loPI   C1A 2471   2.355   0.181  10.108 -0.3137 -0.0140 -0.1123
  155loPI   C2A 2472   2.447   0.195   9.673  0.2144 -0.1597  0.0064
  155loPI   C3A 2473   2.438   0.203   9.226 -0.0064  0.4437 -0.3151
  155loPI   C4A 2474   2.348   0.172   8.797  0.0367  0.3591 -0.0579
  155loPI   C5A 2475   2.083   0.535   8.612  0.1284  0.1330  0.1830
  155loPI   C6A 2476   1.846   0.772   8.285  0.2364 -0.0974 -0.1091
  155loPI   C1B 2477   2.819  -0.432  10.222  0.1533  0.2762  0.3664
  155loPI   C2B 2478   2.905  -0.520   9.780  0.0727 -0.2465 -0.1254
  155loPI   C3B 2479   3.043  -0.402   9.386 -0.1088 -0.1992  0.0381
  155loPI   C4B 2480   3.099  -0.459   8.934  0.0296  0.1094 -0.1697
  156loPI    C1 2481   7.101   8.250  10.866 -0.1054  0.0188 -0.0187
  156loPI    C2 2482   7.030   7.945  11.115 -0.2212  0.1285  0.0841
  156loPI    C3 2483   7.297   8.227  11.213  0.0338 -0.0441 -0.1008
  156loPI   PO4 2484   7.206   8.174  10.660 -0.3446 -0.0605 -0.0670
  156loPI   GL1 2485   7.582   8.283  10.384  0.0086  0.0960  0.1063
  156loPI   GL2 2486   7.309   8.357  10.127  0.2041 -0.1143 -0.0172
  156loPI   C1A 2487   7.820   8.407   9.951 -0.0686 -0.2328  0.1094
  156loPI   C2A 2488   7.911   8.481   9.541 -0.0865 -0.5203 -0.2319
  156loPI   C3A 2489   7.903   8.507   9.121  0.3648 -0.2198 -0.1272
  156loPI   C4A 2490   7.986   8.551   8.839 -0.1174 -0.1640 -0.1966
  156loPI   C5A 2491   8.169   8.564   8.381  0.2777  0.0996 -0.0380
  156loPI   C6A 2492   8.042   8.406   8.075 -0.1448 -0.1973  0.0214
  156loPI   C1B 2493   7.336   8.275   9.771 -0.1665 -0.1293  0.3093
  156loPI   C2B 2494   7.506   8.196   9.350  0.0761 -0.0936  0.1083
  156loPI   C3B 2495   7.521   8.201   8.921  0.1782  0.0792 -0.1234
  156loPI   C4B 2496   7.727   8.274   8.499 -0.0488  0.3239 -0.0353
  157loPI    C1 2497   4.921   1.179  11.342  0.2587 -0.1646 -0.1192
  157loPI    C2 2498   5.171   1.373  11.587  0.1502 -0.0832 -0.0719
  157loPI    C3 2499   5.188   0.974  11.559  0.2502 -0.0823 -0.0300
  157loPI   PO4 2500   4.869   1.203  11.033 -0.1025  0.0280 -0.0151
  157loPI   GL1 2501   4.924   1.212  10.480 -0.2357 -0.1745 -0.0724
  157loPI   GL2 2502   5.260   1.361  10.471 -0.0292  0.3819  0.3522
  157loPI   C1A 2503   4.657   1.273  10.062 -0.2063 -0.1796  0.1207
  157loPI   C2A 2504   4.777   1.323   9.595  0.0625 -0.1250  0.2721
  157loPI   C3A 2505   4.882   1.440   9.201 -0.0526 -0.0652  0.1218
  157loPI   C4A 2506   4.674   1.450   8.787 -0.0812 -0.0100  0.2101
  157loPI   C5A 2507   4.909   1.464   8.359 -0.0306  0.0698  0.0572
  157loPI   C6A 2508   4.982   1.585   7.996  0.1149  0.1083 -0.1022
  157loPI   C1B 2509   5.300   1.483   9.997 -0.1638 -0.2486  0.0887
  157loPI   C2B 2510   5.290   1.471   9.519 -0.3484 -0.2117 -0.1642
  157loPI   C3B 2511   5.390   1.649   9.115 -0.0643  0.0389 -0.0254
  157loPI   C4B 2512   5.370   1.659   8.620  0.2142 -0.1568  0.0761
  158loPI    C1 2513   9.599  17.860  10.587  0.1262  0.0248  0.0960
  158loPI    C2 2514   9.372  17.932  10.909 -0.0476  0.1463 -0.0521
  158loPI    C3 2515   9.750  17.809  10.954 -0.1024  0.0649  0.1973
  158loPI   PO4 2516   9.525  18.105  10.416 -0.1451  0.0756 -0.2068
  158loPI   GL1 2517   9.732  18.233  10.060  0.1529 -0.1104  0.2830
  158loPI   GL2 2518  10.023  18.314   9.900 -0.0534 -0.0541  0.1064
  158loPI   C1A 2519   9.741  17.945   9.684  0.0181  0.1202  0.0845
  158loPI   C2A 2520   9.729  17.854   9.315 -0.0865 -0.0954  0.2270
  158loPI   C3A 2521   9.644  17.977   8.940  0.0801  0.1286  0.2483
  158loPI   C4A 2522   9.803  18.113   8.570  0.1887  0.0341  0.0927
  158loPI   C5A 2523   9.680  18.251   8.240 -0.0650  0.2414 -0.0050
  158loPI   C6A 2524   9.650  18.609   8.170 -0.1374  0.1484 -0.2180
  158loPI   C1B 2525   9.913  18.371   9.520 -0.1934 -0.2424 -0.2230
  158loPI   C2B 2526   9.769  18.423   9.116  0.2101  0.1110  0.0379
  158loPI   C3B 2527   9.556  18.508   8.726 -0.0180  0.2587 -0.0530
  158loPI   C4B 2528   9.234  18.542   8.719  0.1491 -0.1402  0.2652
  159loPI    C1 2529  14.632  14.874  10.641  0.1592 -0.0099 -0.1220
  159loPI    C2 2530  14.648  14.745  11.019 -0.2031 -0.2064 -0.1686
  159loPI    C3 2531  14.551  15.125  10.941 -0.0627 -0.1480 -0.0636
  159loPI   PO4 2532  14.746  14.701  10.527  0.1426  0.0468  0.1285
  159loPI   GL1 2533  14.873  14.564  10.064  0.0699  0.0076 -0.0588
  159loPI   GL2 2534  15.172  14.725   9.934  0.3163 -0.2598  0.1617
  159loPI   C1A 2535  14.779  14.442   9.721  0.2651 -0.0489  0.0242
  159loPI   C2A 2536  14.773  14.535   9.337 -0.2178 -0.1375 -0.3390
  159loPI   C3A 2537  14.466  14.759   9.011 -0.3270 -0.0656  0.0190
  159loPI   C4A 2538  14.506  14.939   8.608  0.3005 -0.1603 -0.0307
  159loPI   C5A 2539  14.283  14.839   8.247 -0.1684 -0.0086 -0.2880
  159loPI   C6A 2540  13.822  14.720   8.203  0.0688  0.0968  0.1337
  159loPI   C1B 2541  15.196  14.745   9.480  0.1393 -0.3762 -0.2916
  159loPI   C2B 2542  15.144  14.719   9.032 -0.1745  0.0966 -0.1560
  159loPI   C3B 2543  14.889  14.594   8.758  0.3059  0.1123  0.0001
  159loPI   C4B 2544  14.756  14.405   8.344  0.2431  0.3869 -0.1539
  160loPI    C1 2545  17.434   8.871  10.550  0.0825 -0.0882  0.0036
  160loPI    C2 2546  17.652   8.556  10.663  0.2078 -0.0561 -0.1461
  160loPI    C3 2547  17.727   8.917  10.818  0.1419 -0.0781 -0.0626
  160loPI   PO4 2548  17.421   8.855  10.337  0.2196  0.1291 -0.1216
  160loPI   GL1 2549  17.490   8.782   9.962 -0.2346 -0.0811 -0.1742
  160loPI   GL2 2550  17.731   8.862   9.923 -0.3239  0.1287 -0.1478
  160loPI   C1A 2551  17.584   9.088   9.551 -0.2982 -0.2508 -0.0422
  160loPI   C2A 2552  17.623   9.030   9.135  0.1030  0.1402 -0.1206
  160loPI   C3A 2553  17.461   9.048   8.699  0.0292  0.0813  0.0406
  160loPI   C4A 2554  17.267   9.037   8.330  0.1739  0.4356 -0.1163
  160loPI   C5A 2555  16.962   9.239   8.075  0.0072 -0.3390  0.3275
  160loPI   C6A 2556  16.542   9.191   7.970 -0.0880  0.1000 -0.0985
  160loPI   C1B 2557  17.785   8.655   9.484 -0.3788 -0.2750  0.0783
  160loPI   C2B 2558  17.961   8.630   9.079  0.1374 -0.1948 -0.0843
  160loPI   C3B 2559  18.122   8.401   8.739  0.1906  0.0742  0.1552
  160loPI   C4B 2560  18.045   8.311   8.283  0.1163 -0.2675  0.1441
  161loPI    C1 2561   5.971  16.734  11.059  0.0722  0.0343  0.0171
  161loPI    C2 2562   6.210  16.476  11.249  0.0365  0.0631  0.1018
  161loPI    C3 2563   6.181  16.853  11.378  0.0301  0.0892  0.0245
  161loPI   PO4 2564   6.023  16.659  10.789 -0.3080  0.2509 -0.0366
  161loPI   GL1 2565   5.723  16.582  10.448  0.2379  0.1931 -0.0753
  161loPI   GL2 2566   5.470  16.415  10.571  0.1754  0.2703  0.1014
  161loPI   C1A 2567   5.622  16.725  10.020 -0.1066  0.2230 -0.2128
  161loPI   C2A 2568   5.603  16.825   9.530 -0.2989  0.1746  0.0040
  161loPI   C3A 2569   5.463  16.649   9.180  0.0561 -0.1253 -0.2604
  161loPI   C4A 2570   5.356  16.670   8.744 -0.1407  0.1804 -0.0035
  161loPI   C5A 2571   5.704  16.546   8.518  0.0127  0.1560 -0.1304
  161loPI   C6A 2572   6.124  16.634   8.570 -0.1146  0.0590 -0.0261
  161loPI   C1B 2573   5.358  16.328  10.155 -0.2275  0.2192 -0.2571
  161loPI   C2B 2574   5.317  16.412   9.777 -0.1409  0.1085 -0.1091
  161loPI   C3B 2575   5.128  16.341   9.411 -0.0033  0.1370  0.1622
  161loPI   C4B 2576   5.119  16.333   9.029  0.1516 -0.0797 -0.1572
  162loPI    C1 2577   3.635   0.732  11.127  0.1077  0.1073  0.1099
  162loPI    C2 2578   3.705   0.660  11.514 -0.2152 -0.1253  0.1295
  162loPI    C3 2579   3.491   0.980  11.406  0.0134  0.0303  0.1305
  162loPI   PO4 2580   3.660   0.544  11.034  0.1455  0.1234 -0.0367
  162loPI   GL1 2581   3.495   0.437  10.559  0.1304 -0.0281 -0.1253
  162loPI   GL2 2582   3.611   0.797  10.464 -0.2155 -0.1875  0.2032
  162loPI   C1A 2583   3.581   0.252  10.268  0.0568  0.4122  0.3571
  162loPI   C2A 2584   3.777   0.125   9.844 -0.1829  0.3180 -0.2327
  162loPI   C3A 2585   4.089   0.158   9.545 -0.0963 -0.0015  0.0676
  162loPI   C4A 2586   4.063   0.054   9.074  0.0649 -0.0680 -0.1749
  162loPI   C5A 2587   4.272  -0.014   8.629 -0.1743 -0.2003 -0.2826
  162loPI   C6A 2588   4.394  -0.144   8.153  0.0980  0.2217  0.0316
  162loPI   C1B 2589   3.674   0.655  10.026 -0.2542  0.0311 -0.2841
  162loPI   C2B 2590   3.634   0.594   9.580 -0.0429 -0.0072  0.1774
  162loPI   C3B 2591   3.854   0.541   9.126  0.0500  0.0650  0.0816
  162loPI   C4B 2592   3.783   0.301   8.773  0.1305 -0.1074 -0.0811
  163loPI    C1 2593   7.961   6.570  11.009  0.4168 -0.1132 -0.0219
  163loPI    C2 2594   7.857   6.901  11.207 -0.0866 -0.1769 -0.1642
  163loPI    C3 2595   8.244   6.815  11.150  0.0534  0.2915  0.0246
  163loPI   PO4 2596   7.739   6.619  10.761  0.2721 -0.0036 -0.1318
  163loPI   GL1 2597   7.384   6.551  10.463  0.0563  0.0179  0.1633
  163loPI   GL2 2598   7.743   6.788  10.307 -0.0830 -0.1124 -0.0198
  163loPI   C1A 2599   7.171   6.646  10.020 -0.1618  0.1093  0.1463
  163loPI   C2A 2600   7.073   6.716   9.592  0.0023  0.1557 -0.0104
  163loPI   C3A 2601   7.040   6.879   9.170  0.1512  0.2279 -0.4167
  163loPI   C4A 2602   7.012   6.932   8.717  0.1258  0.0317 -0.1749
  163loPI   C5A 2603   6.917   7.361   8.387 -0.1138  0.1840 -0.4530
  163loPI   C6A 2604   6.852   7.792   8.262 -0.0198  0.1207 -0.2891
  163loPI   C1B 2605   7.604   6.944   9.876 -0.0279  0.1484  0.0574
  163loPI   C2B 2606   7.548   6.741   9.522 -0.1491 -0.0756  0.2432
  163loPI   C3B 2607   7.368   6.515   9.170  0.0788 -0.1676 -0.1776
  163loPI   C4B 2608   7.233   6.385   8.796 -0.0785  0.1009  0.1471
  164loPI    C1 2609   8.757  15.054  11.219 -0.2308  0.0459 -0.1385
  164loPI    C2 2610   8.415  15.105  11.420 -0.1103 -0.0294  0.0898
  164loPI    C3 2611   8.584  15.415  11.231 -0.3978 -0.0320 -0.1806
  164loPI   PO4 2612   8.708  14.840  11.059  0.1517  0.2695 -0.3596
  164loPI   GL1 2613   8.623  14.736  10.663  0.3352  0.0256  0.0622
  164loPI   GL2 2614   8.613  14.467  10.455  0.1093 -0.0370 -0.3754
  164loPI   C1A 2615   8.535  14.976  10.249 -0.0720 -0.0697  0.1293
  164loPI   C2A 2616   8.623  14.881   9.761  0.0624 -0.0250 -0.1118
  164loPI   C3A 2617   8.742  14.655   9.356 -0.0534  0.0920  0.0334
  164loPI   C4A 2618   8.876  14.707   8.961 -0.0896  0.2899 -0.2112
  164loPI   C5A 2619   9.056  14.434   8.582 -0.2889 -0.0847  0.0133
  164loPI   C6A 2620   9.139  14.538   8.115  0.4030  0.0621  0.2004
  164loPI   C1B 2621   8.476  14.136  10.145 -0.0305 -0.0135  0.0563
  164loPI   C2B 2622   8.705  13.881   9.833  0.1219 -0.1595  0.1351
  164loPI   C3B 2623   8.712  13.910   9.407 -0.1342 -0.0428 -0.0375
  164loPI   C4B 2624   8.691  14.250   9.128 -0.3535 -0.0338  0.3460
  165loPI    C1 2625  12.886   0.193  10.890 -0.1225 -0.1164 -0.2301
  165loPI    C2 2626  13.122   0.265  11.205 -0.0359 -0.1174 -0.2944
  165loPI    C3 2627  12.871  -0.046  11.211 -0.0647 -0.0929 -0.2097
  165loPI   PO4 2628  12.956   0.193  10.674 -0.0629  0.1748 -0.0984
  165loPI   GL1 2629  12.676   0.113  10.354 -0.1405 -0.0774 -0.0548
  165loPI   GL2 2630  12.917   0.072  10.122  0.2869  0.0357 -0.1230
  165loPI   C1A 2631  12.525   0.435  10.041  0.2485  0.1222  0.0006
  165loPI   C2A 2632  12.569   0.671   9.612 -0.1577 -0.2161  0.0249
  165loPI   C3A 2633  12.430   0.914   9.190 -0.2784  0.2003 -0.0099
  165loPI   C4A 2634  12.293   0.807   8.745  0.2182 -0.1483 -0.0921
  165loPI   C5A 2635  12.507   0.586   8.327  0.1053  0.1593 -0.0685
  165loPI   C6A 2636  12.633   0.341   7.997 -0.4436 -0.3081 -0.0164
  165loPI   C1B 2637  12.815   0.134   9.678 -0.1110 -0.1433  0.1503
  165loPI   C2B 2638  12.998   0.375   9.450 -0.1107 -0.2149 -0.1567
  165loPI   C3B 2639  12.880   0.604   9.126  0.1616  0.0478 -0.3097
  165loPI   C4B 2640  12.770   0.868   8.770  0.0976  0.0375  0.0200
  166loPI    C1 2641   2.709   3.435  10.861 -0.0693 -0.0030  0.0835
  166loPI    C2 2642   3.058   3.445  11.057  0.1067  0.0934 -0.2274
  166loPI    C3 2643   2.762   3.209  11.187  0.3791 -0.1925 -0.1126
  166loPI   PO4 2644   2.768   3.586  10.661  0.0259 -0.0841 -0.0548
  166loPI   GL1 2645   2.783   3.565  10.221  0.2532  0.0941  0.1186
  166loPI   GL2 2646   3.063   3.469  10.143 -0.2131 -0.0653  0.1180
  166loPI   C1A 2647   2.545   3.473   9.888 -0.1399  0.0457  0.1433
  166loPI   C2A 2648   2.795   3.328   9.556  0.0765  0.2420 -0.1523
  166loPI   C3A 2649   2.761   3.402   9.081 -0.0526  0.1149  0.3839
  166loPI   C4A 2650   2.902   3.399   8.637 -0.1543  0.3092  0.0088
  166loPI   C5A 2651   2.917   3.533   8.149 -0.1976 -0.0386  0.1176
  166loPI   C6A 2652   3.041   3.522   7.659 -0.1334 -0.0808  0.0232
  166loPI   C1B 2653   2.884   3.821   9.790  0.0387 -0.1602 -0.1150
  166loPI   C2B 2654   2.811   3.842   9.361  0.1422  0.1399  0.2251
  166loPI   C3B 2655   2.985   3.817   8.975 -0.1596 -0.2159  0.1802
  166loPI   C4B 2656   3.360   3.735   8.830  0.1656  0.1246  0.1463
  167loPI    C1 2657   1.103   4.410  10.819 -0.1890  0.0719  0.0665
  167loPI    C2 2658   1.035   4.645  11.135 -0.0751  0.1860  0.0069
  167loPI    C3 2659   1.389   4.658  10.949 -0.0839 -0.0006 -0.0245
  167loPI   PO4 2660   0.918   4.406  10.668 -0.1570 -0.2346 -0.0812
  167loPI   GL1 2661   0.820   4.686  10.392  0.1852 -0.1191 -0.1597
  167loPI   GL2 2662   0.473   4.661  10.477  0.2832 -0.1645  0.0161
  167loPI   C1A 2663   0.998   4.707  10.012 -0.0776 -0.1069 -0.0175
  167loPI   C2A 2664   1.131   4.728   9.679  0.3877 -0.0942 -0.1476
  167loPI   C3A 2665   1.245   4.526   9.308 -0.1505 -0.2816  0.0255
  167loPI   C4A 2666   1.124   4.408   8.839 -0.4913  0.1275 -0.2472
  167loPI   C5A 2667   0.814   4.553   8.595  0.0541 -0.1203 -0.1229
  167loPI   C6A 2668   0.440   4.453   8.419  0.0253  0.1361 -0.0073
  167loPI   C1B 2669   0.425   4.780  10.077 -0.0626  0.1132  0.3360
  167loPI   C2B 2670   0.598   4.736   9.610  0.0393 -0.3514 -0.1889
  167loPI   C3B 2671   0.645   4.664   9.202  0.4365 -0.0866  0.0071
  167loPI   C4B 2672   0.412   4.797   8.854 -0.0908  0.2759 -0.1175
  168loPI    C1 2673   3.641  15.126  10.994  0.2086 -0.2252  0.0241
  168loPI    C2 2674   3.431  15.004  11.312 -0.0442 -0.2414 -0.1463
  168loPI    C3 2675   3.740  15.253  11.360 -0.0147 -0.3267  0.1216
  168loPI   PO4 2676   3.711  14.815  10.798 -0.2018 -0.2181  0.0725
  168loPI   GL1 2677   3.829  14.824  10.290  0.1825  0.2600 -0.0239
  168loPI   GL2 2678   4.028  14.639  10.480 -0.0507 -0.0639  0.0525
  168loPI   C1A 2679   3.836  14.652   9.932 -0.0401  0.0463  0.0961
  168loPI   C2A 2680   3.834  14.828   9.532 -0.0703  0.0917  0.3720
  168loPI   C3A 2681   3.526  14.764   9.204 -0.0212  0.1255 -0.1337
  168loPI   C4A 2682   3.566  14.628   8.766 -0.2890  0.2759  0.0211
  168loPI   C5A 2683   3.571  14.245   8.360 -0.0037  0.2553  0.1168
  168loPI   C6A 2684   3.663  13.828   8.338 -0.0454 -0.2901  0.0599
  168loPI   C1B 2685   4.213  14.323  10.226 -0.0613  0.1304  0.0613
  168loPI   C2B 2686   4.315  14.347   9.854 -0.0437  0.2946  0.2324
  168loPI   C3B 2687   4.247  14.402   9.459  0.1853 -0.1516 -0.3581
  168loPI   C4B 2688   3.988  14.459   9.109 -0.0508  0.0591 -0.2847
  169loPI    C1 2689  16.634   8.611  10.793 -0.1013 -0.1733 -0.1837
  169loPI    C2 2690  16.401   8.373  11.014 -0.2317  0.0192 -0.1111
  169loPI    C3 2691  16.600   8.674  11.187  0.2099 -0.2465 -0.1425
  169loPI   PO4 2692  16.446   8.700  10.575 -0.2020  0.0127 -0.0752
  169loPI   GL1 2693  16.567   8.799  10.126 -0.0316  0.1726  0.0390
  169loPI   GL2 2694  16.334   8.646  10.102  0.2190 -0.0613  0.0017
  169loPI   C1A 2695  16.608   8.983   9.730  0.1683 -0.1165 -0.2408
  169loPI   C2A 2696  16.533   8.891   9.288 -0.0416 -0.0878  0.0601
  169loPI   C3A 2697  16.554   8.743   8.811 -0.0030  0.1305 -0.0114
  169loPI   C4A 2698  16.398   8.824   8.351 -0.2015  0.0682 -0.0783
  169loPI   C5A 2699  16.131   8.990   8.059 -0.0618  0.3913 -0.2878
  169loPI   C6A 2700  15.705   9.206   8.032  0.1376  0.0047 -0.1230
  169loPI   C1B 2701  16.322   8.530   9.683 -0.1502  0.2740  0.1728
  169loPI   C2B 2702  16.261   8.515   9.250  0.0463 -0.0819 -0.0979
  169loPI   C3B 2703  16.158   8.319   8.970  0.1762  0.3729 -0.0080
  169loPI   C4B 2704  15.952   8.180   8.604 -0.3058  0.0776 -0.0737
  170loPI    C1 2705  13.631   7.817  10.585 -0.0869 -0.1412 -0.1730
  170loPI    C2 2706  13.385   7.589  10.804 -0.1219  0.0396 -0.0211
  170loPI    C3 2707  13.686   7.785  10.980 -0.0448  0.0496 -0.1624
  170loPI   PO4 2708  13.776   7.646  10.317 -0.0418 -0.5378  0.3779
  170loPI   GL1 2709  14.044   7.820   9.932  0.1802  0.1077  0.1223
  170loPI   GL2 2710  14.215   8.021   9.855 -0.2956 -0.0316 -0.0466
  170loPI   C1A 2711  14.148   7.454   9.672 -0.0432 -0.3217  0.1647
  170loPI   C2A 2712  14.300   7.356   9.325  0.3271  0.1526  0.0856
  170loPI   C3A 2713  14.539   7.158   8.937 -0.0516  0.2662 -0.1399
  170loPI   C4A 2714  14.719   6.943   8.657 -0.0610  0.1854  0.3192
  170loPI   C5A 2715  15.062   7.128   8.288 -0.1136 -0.0939 -0.2983
  170loPI   C6A 2716  15.161   6.922   7.890 -0.1712  0.0472 -0.3047
  170loPI   C1B 2717  14.119   8.004   9.457  0.0112 -0.0587 -0.1789
  170loPI   C2B 2718  14.116   7.819   9.102 -0.0059 -0.4044 -0.3589
  170loPI   C3B 2719  14.216   7.562   8.855 -0.3890  0.2503  0.3168
  170loPI   C4B 2720  14.280   7.456   8.483 -0.0278  0.0014  0.1223
  171loPI    C1 2721  14.139  17.447  10.438  0.2354  0.0344  0.0371
  171loPI    C2 2722  14.219  17.736  10.703 -0.0004  0.2040 -0.0730
  171loPI    C3 2723  14.141  17.830  10.322 -0.0807 -0.0054 -0.1095
  171loPI   PO4 2724  14.357  17.306  10.468 -0.2469  0.0711 -0.0324
  171loPI   GL1 2725  14.436  17.292  10.042 -0.2561  0.1445  0.0490
  171loPI   GL2 2726  14.681  17.433   9.911 -0.1568 -0.1056 -0.1513
  171loPI   C1A 2727  14.417  16.976   9.825 -0.0030 -0.0413  0.4251
  171loPI   C2A 2728  14.481  16.703   9.527 -0.1895  0.0262 -0.2180
  171loPI   C3A 2729  14.504  16.445   9.097 -0.1370 -0.2939 -0.0418
  171loPI   C4A 2730  14.641  16.625   8.754 -0.1577  0.1452 -0.3186
  171loPI   C5A 2731  14.437  16.580   8.361  0.1194  0.1084  0.1165
  171loPI   C6A 2732  14.324  16.753   7.888 -0.0190 -0.0677 -0.0284
  171loPI   C1B 2733  14.687  17.392   9.530  0.2500  0.3889 -0.1403
  171loPI   C2B 2734  14.965  17.331   9.141 -0.0683 -0.2282 -0.2274
  171loPI   C3B 2735  15.182  17.349   8.665 -0.1992  0.1784 -0.2132
  171loPI   C4B 2736  15.252  17.376   8.265  0.0113  0.0294  0.1821
  172loPI    C1 2737   5.384  14.437  10.942 -0.0896  0.0357  0.1354
  172loPI    C2 2738   5.620  14.187  11.145  0.0490  0.0720  0.0205
  172loPI    C3 2739   5.755  14.548  11.041 -0.0607  0.0963 -0.0381
  172loPI   PO4 2740   5.232  14.277  10.841  0.2414  0.1192 -0.3729
  172loPI   GL1 2741   5.268  14.249  10.342 -0.1416  0.0758  0.0906
  172loPI   GL2 2742   5.574  14.283  10.266  0.1522 -0.1791 -0.0913
  172loPI   C1A 2743   5.163  14.196   9.901  0.1636 -0.2656  0.3576
  172loPI   C2A 2744   5.091  14.238   9.477  0.1302 -0.1487 -0.0006
  172loPI   C3A 2745   5.268  14.138   9.061 -0.0816 -0.2760 -0.4217
  172loPI   C4A 2746   5.085  14.264   8.756  0.0249 -0.2158  0.1250
  172loPI   C5A 2747   4.848  14.578   8.474  0.0896  0.0901 -0.0814
  172loPI   C6A 2748   4.787  15.057   8.511  0.3780 -0.0573  0.0344
  172loPI   C1B 2749   5.638  14.274   9.847 -0.0446 -0.0521 -0.0016
  172loPI   C2B 2750   5.532  14.407   9.466 -0.2541 -0.0541  0.1093
  172loPI   C3B 2751   5.565  14.596   9.036 -0.0996  0.0752  0.2116
  172loPI   C4B 2752   5.211  14.730   8.746 -0.3830 -0.1322 -0.2468
  173loPI    C1 2753  13.193   8.475  10.470 -0.0790  0.2222  0.0138
  173loPI    C2 2754  12.866   8.413  10.692 -0.0921  0.0562 -0.0506
  173loPI    C3 2755  13.147   8.669  10.817 -0.2406  0.1911  0.0108
  173loPI   PO4 2756  13.058   8.459  10.215  0.2169 -0.2365 -0.1263
  173loPI   GL1 2757  12.723   8.406   9.755 -0.0696 -0.0855 -0.2257
  173loPI   GL2 2758  12.781   8.784   9.900 -0.1854  0.0571 -0.0864
  173loPI   C1A 2759  12.610   8.478   9.454  0.1262  0.2147  0.0741
  173loPI   C2A 2760  12.783   8.439   9.104 -0.1280  0.2567  0.1429
  173loPI   C3A 2761  12.888   8.411   8.671 -0.2724 -0.1912 -0.0206
  173loPI   C4A 2762  13.124   8.305   8.334 -0.3331  0.1063 -0.2740
  173loPI   C5A 2763  13.433   8.275   8.032  0.0864  0.1946  0.2218
  173loPI   C6A 2764  13.601   7.780   7.847 -0.0553 -0.0282  0.0069
  173loPI   C1B 2765  12.900   8.923   9.456 -0.1105 -0.0214 -0.3324
  173loPI   C2B 2766  12.979   8.908   9.025 -0.0184 -0.2467  0.0085
  173loPI   C3B 2767  13.154   8.875   8.626  0.0317 -0.0255 -0.1577
  173loPI   C4B 2768  13.430   8.746   8.280  0.2211  0.3875  0.0312
  174loPI    C1 2769   8.770   4.568  10.264 -0.0761 -0.0808  0.2636
  174loPI    C2 2770   9.067   4.407  10.049 -0.1361  0.1838 -0.0241
  174loPI    C3 2771   9.125   4.498  10.435  0.1143  0.1139 -0.0434
  174loPI   PO4 2772   8.574   4.388  10.167  0.1027  0.3242  0.1057
  174loPI   GL1 2773   8.618   4.306   9.788  0.0594  0.0059  0.1217
  174loPI   GL2 2774   8.734   4.576   9.727  0.1439  0.0430 -0.0652
  174loPI   C1A 2775   8.611   4.078   9.530  0.2188 -0.0675 -0.3120
  174loPI   C2A 2776   8.643   4.235   9.138  0.1473  0.2522 -0.0950
  174loPI   C3A 2777   8.501   4.291   8.675  0.1169 -0.0055  0.2590
  174loPI   C4A 2778   8.721   4.639   8.356  0.0196  0.2089 -0.3192
  174loPI   C5A 2779   8.794   5.004   8.063 -0.2489  0.1092 -0.2171
  174loPI   C6A 2780   9.032   5.365   8.246  0.0814 -0.0812 -0.1920
  174loPI   C1B 2781   8.616   4.644   9.347  0.0228 -0.0560  0.3383
  174loPI   C2B 2782   8.551   4.767   8.987  0.0856  0.0911  0.0840
  174loPI   C3B 2783   8.253   4.781   8.684 -0.2139 -0.0200 -0.2379
  174loPI   C4B 2784   8.224   4.587   8.246 -0.4192  0.2850  0.0386
  175loPI    C1 2785   3.243   7.213  10.852  0.0152  0.1143  0.0428
  175loPI    C2 2786   3.228   7.272  11.247  0.1025  0.0600  0.0547
  175loPI    C3 2787   2.894   7.295  11.028  0.0667  0.1701  0.1199
  175loPI   PO4 2788   3.468   7.134  10.791 -0.0722  0.0185  0.1307
  175loPI   GL1 2789   3.753   7.129  10.474 -0.1166 -0.1161  0.2834
  175loPI   GL2 2790   3.542   7.001  10.296 -0.2972 -0.1662  0.1345
  175loPI   C1A 2791   3.962   7.131  10.062  0.0433  0.1748  0.0012
  175loPI   C2A 2792   3.976   7.413   9.674 -0.0376  0.0938 -0.3188
  175loPI   C3A 2793   3.804   7.637   9.405 -0.0580  0.0362  0.0484
  175loPI   C4A 2794   3.711   7.630   9.059 -0.0933 -0.1405  0.1232
  175loPI   C5A 2795   3.683   7.550   8.686  0.0779 -0.1986 -0.0273
  175loPI   C6A 2796   3.789   7.333   8.397 -0.2315 -0.1013  0.0929
  175loPI   C1B 2797   3.446   7.007   9.798  0.0383 -0.0704  0.2865
  175loPI   C2B 2798   3.390   6.869   9.425  0.1707 -0.0569 -0.0178
  175loPI   C3B 2799   3.414   6.734   9.041  0.2242  0.1027 -0.1742
  175loPI   C4B 2800   3.297   6.550   8.656  0.0873  0.1737  0.0471
  176loPI    C1 2801   3.813   9.816  11.149  0.1239  0.0620  0.2479
  176loPI    C2 2802   3.559   9.539  11.284 -0.1563  0.1698 -0.0436
  176loPI    C3 2803   3.665   9.845  11.519 -0.1018 -0.0065  0.1647
  176loPI   PO4 2804   3.766   9.955  10.981  0.1093 -0.0191 -0.1650
  176loPI   GL1 2805   3.697  10.012  10.537 -0.0745 -0.2260 -0.1282
  176loPI   GL2 2806   3.944  10.201  10.254 -0.0973  0.1102 -0.0776
  176loPI   C1A 2807   3.582   9.928  10.099 -0.1818  0.1227  0.0788
  176loPI   C2A 2808   3.408   9.718   9.749 -0.2028  0.1845 -0.0002
  176loPI   C3A 2809   3.406   9.716   9.402 -0.2289 -0.0654 -0.0902
  176loPI   C4A 2810   3.445   9.607   8.973 -0.0525  0.2344 -0.3798
  176loPI   C5A 2811   3.394   9.526   8.487 -0.0161 -0.1137 -0.2927
  176loPI   C6A 2812   3.684   9.399   8.260  0.2783 -0.2866 -0.2388
  176loPI   C1B 2813   3.992  10.070   9.754  0.0174  0.3850 -0.0854
  176loPI   C2B 2814   3.896   9.894   9.390  0.0113 -0.1115 -0.1952
  176loPI   C3B 2815   3.948   9.831   8.983 -0.1792 -0.0654  0.3342
  176loPI   C4B 2816   4.009   9.785   8.522 -0.0695  0.2537  0.2831
  177loPI    C1 2817  15.474   0.377  10.312  0.1399 -0.0529  0.1464
  177loPI    C2 2818  15.756   0.464  10.582  0.0561  0.1792  0.1615
  177loPI    C3 2819  15.709   0.696  10.260  0.0684 -0.0211  0.0135
  177loPI   PO4 2820  15.292   0.336  10.453  0.1723 -0.1597 -0.2382
  177loPI   GL1 2821  14.872   0.326  10.222  0.1239  0.1204 -0.2599
  177loPI   GL2 2822  14.704   0.601  10.243  0.1890  0.1628 -0.0625
  177loPI   C1A 2823  14.862   0.229   9.808 -0.3125 -0.0440 -0.3112
  177loPI   C2A 2824  14.802   0.316   9.299 -0.3436  0.0648 -0.0090
  177loPI   C3A 2825  14.858   0.339   8.892 -0.0569 -0.0276 -0.0222
  177loPI   C4A 2826  14.640   0.504   8.471  0.3641 -0.0648  0.2396
  177loPI   C5A 2827  14.432   0.744   8.184  0.3602 -0.0705  0.4542
  177loPI   C6A 2828  14.150   0.965   8.008  0.2696 -0.0588 -0.2594
  177loPI   C1B 2829  14.600   0.752   9.956  0.0425  0.0539  0.1246
  177loPI   C2B 2830  14.693   0.849   9.421 -0.0441  0.2633  0.1520
  177loPI   C3B 2831  14.704   0.855   9.019  0.2853  0.1910  0.1932
  177loPI   C4B 2832  14.716   0.951   8.598  0.1023 -0.4487  0.0645
  178loPI    C1 2833  12.519   6.490  10.485 -0.0515  0.1943 -0.1003
  178loPI    C2 2834  12.449   6.673  10.834  0.0820  0.2554 -0.1052
  178loPI    C3 2835  12.824   6.629  10.702  0.0820 -0.3343  0.0647
  178loPI   PO4 2836  12.410   6.573  10.363  0.2481 -0.1714  0.1174
  178loPI   GL1 2837  12.368   6.501   9.913  0.1182 -0.2937 -0.1284
  178loPI   GL2 2838  12.099   6.510   9.904  0.0437 -0.2420 -0.3077
  178loPI   C1A 2839  12.203   6.439   9.422 -0.2350 -0.1557 -0.1954
  178loPI   C2A 2840  12.045   6.381   8.934  0.0314 -0.0264  0.1124
  178loPI   C3A 2841  11.723   6.266   8.666  0.1128  0.0456  0.1879
  178loPI   C4A 2842  11.455   6.025   8.478 -0.0582  0.3937  0.3081
  178loPI   C5A 2843  11.234   6.015   8.086 -0.2208  0.0518 -0.0356
  178loPI   C6A 2844  11.061   5.712   7.903 -0.0953 -0.0718 -0.4657
  178loPI   C1B 2845  12.142   6.043   9.828 -0.0063  0.4598  0.0272
  178loPI   C2B 2846  12.053   5.974   9.363  0.1407 -0.0631 -0.1440
  178loPI   C3B 2847  12.082   5.907   8.934 -0.0041  0.4238 -0.0653
  178loPI   C4B 2848  11.830   5.699   8.603 -0.2464  0.2390  0.1715
  179loPI    C1 2849   3.966  13.030  10.847 -0.0224  0.0346  0.1138
  179loPI    C2 2850   4.186  13.088  11.176 -0.0749 -0.0592  0.1656
  179loPI    C3 2851   3.818  12.934  11.206 -0.0763 -0.0766  0.0622
  179loPI   PO4 2852   4.126  12.938  10.714  0.2529  0.0228 -0.2390
  179loPI   GL1 2853   4.428  12.975  10.483  0.0307 -0.1672  0.0673
  179loPI   GL2 2854   4.789  13.251  10.371  0.2279  0.0165 -0.1350
  179loPI   C1A 2855   4.206  12.917  10.066  0.0074  0.0559  0.1349
  179loPI   C2A 2856   4.197  12.758   9.631  0.0535 -0.1235  0.1108
  179loPI   C3A 2857   4.097  12.722   9.183  0.0626 -0.0127  0.0369
  179loPI   C4A 2858   4.142  12.878   8.806 -0.1691  0.0015 -0.1450
  179loPI   C5A 2859   4.309  13.324   8.847 -0.0659 -0.0026  0.1025
  179loPI   C6A 2860   4.504  13.541   9.170  0.0981 -0.0364  0.0316
  179loPI   C1B 2861   4.541  13.298  10.098 -0.1286 -0.1602 -0.0065
  179loPI   C2B 2862   4.268  13.338   9.750  0.0244 -0.3201 -0.2975
  179loPI   C3B 2863   4.245  13.197   9.406  0.1618  0.0099  0.1297
  179loPI   C4B 2864   3.856  13.203   9.084 -0.1391 -0.0500 -0.0799
  180loPI    C1 2865   0.379   2.495  10.944  0.2602 -0.0656 -0.0047
  180loPI    C2 2866   0.247   2.151  11.098  0.0348 -0.0061 -0.0608
  180loPI    C3 2867   0.160   2.497  11.279  0.0505  0.0394 -0.1400
  180loPI   PO4 2868   0.582   2.444  10.813 -0.0340 -0.0840 -0.1667
  180loPI   GL1 2869   0.637   2.461  10.383  0.0507  0.0815  0.0642
  180loPI   GL2 2870   0.586   2.114  10.264  0.1902 -0.0614 -0.1112
  180loPI   C1A 2871   0.785   2.528  10.025 -0.4782  0.1264 -0.1874
  180loPI   C2A 2872   1.043   2.622   9.659 -0.1926  0.0017  0.2291
  180loPI   C3A 2873   1.172   2.649   9.284  0.1816 -0.0831 -0.0657
  180loPI   C4A 2874   1.303   2.728   8.953  0.1174  0.2920  0.2001
  180loPI   C5A 2875   1.323   2.944   8.579  0.0576  0.2464  0.3500
  180loPI   C6A 2876   1.310   3.354   8.421  0.0911  0.0341  0.0672
  180loPI   C1B 2877   0.476   2.158   9.870 -0.0428  0.1420  0.1023
  180loPI   C2B 2878   0.545   2.350   9.447 -0.0228  0.2693 -0.3858
  180loPI   C3B 2879   0.695   2.396   9.009  0.2346 -0.1906 -0.0366
  180loPI   C4B 2880   0.849   2.557   8.669 -0.0354  0.1768 -0.1861
  181loPI    C1 2881  13.789  16.418  10.796 -0.1939 -0.0743  0.1259
  181loPI    C2 2882  13.813  16.808  10.880 -0.0566 -0.1014  0.2153
  181loPI    C3 2883  13.456  16.629  10.866 -0.1139  0.0074  0.2653
  181loPI   PO4 2884  14.071  16.369  10.616 -0.3836 -0.0322 -0.0041
  181loPI   GL1 2885  14.146  16.278  10.186  0.0946 -0.1014 -0.0770
  181loPI   GL2 2886  14.192  16.546  10.056 -0.0309 -0.1283 -0.1410
  181loPI   C1A 2887  14.345  16.201   9.702 -0.3826 -0.1830 -0.4248
  181loPI   C2A 2888  14.234  16.040   9.305  0.0794  0.0281 -0.2376
  181loPI   C3A 2889  14.253  15.905   8.900  0.0885  0.0074 -0.0493
  181loPI   C4A 2890  14.230  15.672   8.480  0.0126  0.1186  0.1263
  181loPI   C5A 2891  14.147  15.674   8.005 -0.1319 -0.0351 -0.0273
  181loPI   C6A 2892  14.265  15.552   7.545  0.0268  0.0357 -0.1903
  181loPI   C1B 2893  13.837  16.685   9.930 -0.1865 -0.0579  0.0913
  181loPI   C2B 2894  13.812  16.579   9.544 -0.1110  0.1773 -0.0262
  181loPI   C3B 2895  13.963  16.456   9.093 -0.1982  0.4542 -0.0988
  181loPI   C4B 2896  14.119  16.393   8.720 -0.1065  0.1032 -0.0222
  182loPI    C1 2897   1.674  10.447  10.943 -0.3038 -0.5487 -0.1468
  182loPI    C2 2898   2.042  10.328  10.843 -0.1212  0.0289 -0.1950
  182loPI    C3 2899   1.919  10.298  11.222  0.0338 -0.0222 -0.1478
  182loPI   PO4 2900   1.435  10.379  10.798  0.1881 -0.2010 -0.1336
  182loPI   GL1 2901   1.433  10.582  10.331  0.0049  0.0541  0.1767
  182loPI   GL2 2902   1.094  10.376  10.254 -0.3082  0.1561  0.2853
  182loPI   C1A 2903   1.429  10.350   9.924 -0.2252  0.0016 -0.1885
  182loPI   C2A 2904   1.357  10.343   9.457 -0.0646 -0.0077  0.0609
  182loPI   C3A 2905   1.224  10.309   8.976  0.0627 -0.1472  0.1314
  182loPI   C4A 2906   1.086  10.495   8.574 -0.3186  0.1072  0.1515
  182loPI   C5A 2907   1.004  10.494   8.138 -0.0184  0.1377 -0.0362
  182loPI   C6A 2908   1.151  10.866   7.868  0.2301  0.0287 -0.0653
  182loPI   C1B 2909   1.168  10.761  10.003  0.3097  0.0471  0.0933
  182loPI   C2B 2910   1.332  10.855   9.566 -0.0403 -0.0061 -0.2179
  182loPI   C3B 2911   1.160  10.847   9.159  0.0823 -0.1577  0.3208
  182loPI   C4B 2912   1.283  10.890   8.774  0.4714 -0.0308  0.2006
  183loPI    C1 2913  13.096   7.848  10.485  0.0298 -0.0270 -0.0410
  183loPI    C2 2914  12.859   7.556  10.620  0.1428 -0.0663  0.0754
  183loPI    C3 2915  12.820   7.928  10.763  0.0042 -0.0245 -0.0669
  183loPI   PO4 2916  13.180   7.732  10.252 -0.0863 -0.0238 -0.0738
  183loPI   GL1 2917  13.046   7.762   9.800  0.3081  0.2759  0.1003
  183loPI   GL2 2918  12.829   7.868   9.642 -0.1410  0.2124 -0.1050
  183loPI   C1A 2919  13.290   7.586   9.406  0.1785  0.1623 -0.0041
  183loPI   C2A 2920  13.287   7.355   9.030  0.0018 -0.1057 -0.2844
  183loPI   C3A 2921  13.368   7.335   8.582 -0.0488  0.2092 -0.0838
  183loPI   C4A 2922  13.349   7.253   8.060 -0.1247  0.0517  0.0964
  183loPI   C5A 2923  13.181   7.093   7.682 -0.1797 -0.0029  0.0043
  183loPI   C6A 2924  13.272   6.900   7.275  0.2546  0.2068  0.0636
  183loPI   C1B 2925  12.961   7.981   9.302 -0.0810 -0.3291  0.1840
  183loPI   C2B 2926  13.113   7.974   8.832 -0.2498  0.0103 -0.4178
  183loPI   C3B 2927  13.252   7.822   8.412 -0.1446  0.0597  0.1100
  183loPI   C4B 2928  13.118   7.797   8.018  0.1330  0.1547 -0.1146
  184loPI    C1 2929   4.976  14.248  11.276 -0.0913 -0.0642 -0.2246
  184loPI    C2 2930   5.231  13.996  11.453 -0.2818 -0.1135 -0.0151
  184loPI    C3 2931   5.290  14.390  11.479 -0.2295 -0.1245  0.0368
  184loPI   PO4 2932   4.855  14.074  11.067 -0.0991  0.0965 -0.1480
  184loPI   GL1 2933   4.857  13.970  10.607  0.1431 -0.2711  0.1686
  184loPI   GL2 2934   5.038  13.799  10.562 -0.0791  0.4173  0.0121
  184loPI   C1A 2935   4.733  14.188  10.276  0.1458 -0.0156 -0.0451
  184loPI   C2A 2936   4.800  14.523  10.006  0.1660  0.0259 -0.0355
  184loPI   C3A 2937   4.735  14.581   9.506  0.0480 -0.0226  0.7590
  184loPI   C4A 2938   4.878  14.625   9.059  0.2910  0.0494 -0.0919
  184loPI   C5A 2939   4.602  14.355   8.807  0.1846 -0.2518  0.0147
  184loPI   C6A 2940   4.196  14.482   8.702  0.1268  0.0536  0.0093
  184loPI   C1B 2941   4.874  13.719  10.089  0.1285  0.1008 -0.1654
  184loPI   C2B 2942   4.742  13.956   9.759  0.0588  0.1260  0.0258
  184loPI   C3B 2943   4.854  13.840   9.295 -0.0587 -0.1624  0.0430
  184loPI   C4B 2944   4.960  13.783   8.833 -0.0219  0.0078  0.0568
  185loPI    C1 2945   5.747   3.287  10.867 -0.2179  0.0087 -0.1900
  185loPI    C2 2946   5.826   3.357  11.252 -0.1835 -0.1378 -0.1698
  185loPI    C3 2947   5.490   3.167  11.149 -0.1651 -0.1495 -0.2086
  185loPI   PO4 2948   5.798   3.426  10.708 -0.2409  0.0544  0.0093
  185loPI   GL1 2949   5.943   3.352  10.289 -0.1884 -0.0698 -0.2496
  185loPI   GL2 2950   6.225   3.351  10.299  0.4027 -0.1110  0.0599
  185loPI   C1A 2951   5.858   3.675  10.016  0.2339  0.0045  0.1030
  185loPI   C2A 2952   5.913   3.699   9.552 -0.1595 -0.2215  0.2524
  185loPI   C3A 2953   5.909   3.561   9.112 -0.2295  0.0911  0.0416
  185loPI   C4A 2954   5.899   3.704   8.713  0.0554  0.0214 -0.1351
  185loPI   C5A 2955   5.874   3.770   8.250  0.0146 -0.1810  0.0832
  185loPI   C6A 2956   5.883   4.090   7.974 -0.1693  0.0304 -0.0422
  185loPI   C1B 2957   6.257   3.349   9.905  0.2404 -0.0638 -0.0037
  185loPI   C2B 2958   6.280   3.273   9.519  0.1223  0.4527  0.3256
  185loPI   C3B 2959   6.327   3.245   9.124 -0.2801 -0.1163 -0.1843
  185loPI   C4B 2960   6.306   3.358   8.659  0.2420  0.1392 -0.3286
  186loPI    C1 2961   0.446   3.366  10.862  0.0777 -0.1345  0.0721
  186loPI    C2 2962   0.290   3.727  10.789 -0.0687 -0.2125 -0.0050
  186loPI    C3 2963   0.553   3.680  11.086  0.2090  0.0243 -0.2075
  186loPI   PO4 2964   0.549   3.329  10.591 -0.1660  0.0191  0.3410
  186loPI   GL1 2965   0.394   3.605  10.322 -0.0952  0.3770 -0.0231
  186loPI   GL2 2966   0.665   3.675  10.199 -0.0030  0.1229 -0.0253
  186loPI   C1A 2967  -0.049   3.615  10.125 -0.2445 -0.0618  0.0928
  186loPI   C2A 2968  -0.058   3.629   9.680 -0.2126  0.1317 -0.0843
  186loPI   C3A 2969  -0.216   3.335   9.447  0.0197 -0.0197  0.0204
  186loPI   C4A 2970  -0.168   3.143   9.074  0.0649 -0.1762 -0.2285
  186loPI   C5A 2971  -0.027   3.036   8.671  0.4107 -0.0532  0.0916
  186loPI   C6A 2972  -0.267   3.100   8.363  0.2229 -0.0380  0.2158
  186loPI   C1B 2973   0.676   3.743   9.834 -0.1752 -0.1978 -0.3288
  186loPI   C2B 2974   0.840   3.730   9.420  0.0606  0.2791  0.0571
  186loPI   C3B 2975   0.843   3.474   9.052  0.2610 -0.3157 -0.0760
  186loPI   C4B 2976   0.885   3.568   8.590  0.2200  0.1045 -0.1243
  187loPI    C1 2977   7.126   3.869  10.865  0.0511 -0.0346 -0.1432
  187loPI    C2 2978   6.919   4.209  10.824  0.1310  0.0274 -0.0368
  187loPI    C3 2979   6.751   3.892  11.002  0.0447 -0.0002 -0.1663
  187loPI   PO4 2980   7.234   3.821  10.544  0.1540  0.0367 -0.1614
  187loPI   GL1 2981   7.099   3.702  10.135  0.0452 -0.0728 -0.1840
  187loPI   GL2 2982   7.414   3.927  10.071 -0.1802  0.0903 -0.2449
  187loPI   C1A 2983   6.881   3.959   9.804 -0.2585 -0.2112 -0.1421
  187loPI   C2A 2984   6.981   4.034   9.402  0.3960  0.0185 -0.1940
  187loPI   C3A 2985   6.863   3.907   8.970  0.0389 -0.2329  0.0665
  187loPI   C4A 2986   7.019   3.938   8.492  0.0039 -0.0847 -0.5661
  187loPI   C5A 2987   7.358   3.897   8.216  0.0258  0.3144 -0.0387
  187loPI   C6A 2988   7.678   4.133   8.074 -0.0358  0.0219 -0.0315
  187loPI   C1B 2989   7.339   3.750   9.602 -0.1659 -0.0009 -0.1010
  187loPI   C2B 2990   7.346   3.864   9.147 -0.3552  0.0475 -0.0149
  187loPI   C3B 2991   7.436   3.885   8.793  0.3593  0.0959 -0.0368
  187loPI   C4B 2992   7.488   4.219   8.586 -0.3298 -0.0205 -0.2888
  188loPI    C1 2993  13.960   4.318  10.772  0.1552  0.0040  0.0010
  188loPI    C2 2994  13.932   3.988  10.996 -0.0743 -0.0382 -0.0860
  188loPI    C3 2995  13.669   4.285  11.044  0.2104  0.1922  0.0846
  188loPI   PO4 2996  13.982   4.228  10.499  0.0794  0.2783 -0.0286
  188loPI   GL1 2997  13.942   4.092  10.082  0.0375 -0.1423  0.2071
  188loPI   GL2 2998  13.556   4.014  10.106 -0.1525  0.1333 -0.0648
  188loPI   C1A 2999  14.100   3.701   9.739  0.1111 -0.0563  0.0650
  188loPI   C2A 3000  13.921   3.494   9.489  0.1243 -0.1276  0.3780
  188loPI   C3A 3001  13.762   3.334   9.093 -0.1424 -0.0456 -0.2579
  188loPI   C4A 3002  13.779   3.145   8.715  0.0154  0.3082 -0.4427
  188loPI   C5A 3003  13.816   3.153   8.317  0.0085  0.2201 -0.4105
  188loPI   C6A 3004  13.998   3.350   8.089  0.1343 -0.1029  0.3687
  188loPI   C1B 3005  13.714   4.062   9.670  0.0203  0.0900  0.2848
  188loPI   C2B 3006  13.723   3.907   9.272 -0.2567  0.1044 -0.0293
  188loPI   C3B 3007  13.884   3.793   8.909 -0.0212  0.1389  0.2871
  188loPI   C4B 3008  13.990   3.671   8.448  0.1200 -0.0146 -0.0150
  189loPI    C1 3009  15.254   7.290  10.290 -0.1419  0.1763 -0.0709
  189loPI    C2 3010  15.259   7.457  10.653  0.2756 -0.0916  0.0541
  189loPI    C3 3011  15.097   7.095  10.602  0.0607  0.0192 -0.0650
  189loPI   PO4 3012  15.502   7.380  10.231  0.0819  0.1822  0.2202
  189loPI   GL1 3013  15.707   7.523   9.864 -0.3115 -0.0768 -0.0174
  189loPI   GL2 3014  15.514   7.774   9.882 -0.1161 -0.0402  0.0357
  189loPI   C1A 3015  15.735   7.284   9.455 -0.0202  0.0022 -0.3300
  189loPI   C2A 3016  15.795   7.374   9.087 -0.0220  0.0576 -0.1728
  189loPI   C3A 3017  15.680   7.228   8.756  0.0808  0.0508  0.0304
  189loPI   C4A 3018  15.435   6.881   8.663  0.1634 -0.1125  0.0473
  189loPI   C5A 3019  15.147   6.679   8.511  0.0513 -0.0896  0.2561
  189loPI   C6A 3020  14.907   6.471   8.297 -0.1535  0.1137  0.0079
  189loPI   C1B 3021  15.489   8.226   9.821 -0.3295 -0.2957 -0.2655
  189loPI   C2B 3022  15.363   8.564   9.582 -0.0245  0.1320  0.1217
  189loPI   C3B 3023  15.283   8.675   9.173  0.1936  0.0119 -0.3873
  189loPI   C4B 3024  15.453   8.901   8.911 -0.0547  0.2117  0.0541
  190loPI    C1 3025  16.389   0.971  10.860  0.1210 -0.0726 -0.0701
  190loPI    C2 3026  16.184   1.288  10.994  0.1210 -0.0853 -0.0404
  190loPI    C3 3027  16.039   0.919  11.047  0.0892 -0.0863 -0.1335
  190loPI   PO4 3028  16.392   1.005  10.678  0.1219  0.2021  0.2485
  190loPI   GL1 3029  16.604   0.714  10.391  0.1310 -0.1798 -0.0708
  190loPI   GL2 3030  16.270   0.587  10.363 -0.3136 -0.1740  0.1419
  190loPI   C1A 3031  16.823   0.713  10.028 -0.0045 -0.0759 -0.0668
  190loPI   C2A 3032  16.721   0.710   9.659 -0.4173 -0.1173 -0.0161
  190loPI   C3A 3033  16.683   0.660   9.163 -0.1525 -0.1881  0.3250
  190loPI   C4A 3034  16.582   0.815   8.786  0.0344  0.3051 -0.1566
  190loPI   C5A 3035  16.605   1.057   8.475 -0.3546  0.4140 -0.2828
  190loPI   C6A 3036  16.662   1.409   8.212 -0.1246  0.2407 -0.0416
  190loPI   C1B 3037  16.435   0.407   9.964  0.2255  0.2709 -0.2813
  190loPI   C2B 3038  16.404   0.380   9.467  0.0145  0.1798  0.1615
  190loPI   C3B 3039  16.299   0.360   9.028 -0.0763  0.1025  0.1360
  190loPI   C4B 3040  16.255   0.385   8.639  0.0191  0.2019 -0.0684
  191loPI    C1 3041   3.085   8.272  10.929  0.3266 -0.1398  0.1573
  191loPI    C2 3042   3.132   8.117  11.295 -0.0239  0.0794  0.2993
  191loPI    C3 3043   2.789   8.297  11.196  0.0699  0.0289 -0.1377
  191loPI   PO4 3044   3.268   8.222  10.806  0.4869 -0.0707 -0.1211
  191loPI   GL1 3045   3.318   8.305  10.480  0.3051 -0.0497  0.0331
  191loPI   GL2 3046   3.102   8.471  10.333  0.3583  0.1370 -0.0183
  191loPI   C1A 3047   3.474   8.409   9.978  0.2623 -0.0879  0.0328
  191loPI   C2A 3048   3.567   8.418   9.492 -0.1778  0.3185 -0.0330
  191loPI   C3A 3049   3.541   8.309   9.063 -0.1754 -0.2987  0.0970
  191loPI   C4A 3050   3.395   8.579   8.751  0.0874  0.0709  0.0910
  191loPI   C5A 3051   3.647   8.780   8.520  0.1958 -0.0638 -0.1433
  191loPI   C6A 3052   3.934   8.780   8.172  0.1072  0.0169  0.0418
  191loPI   C1B 3053   3.327   8.912  10.203 -0.2744 -0.0373  0.2561
  191loPI   C2B 3054   3.511   9.264   9.885  0.0383  0.2169 -0.1394
  191loPI   C3B 3055   3.806   9.402   9.619 -0.1845 -0.1783 -0.0507
  191loPI   C4B 3056   3.866   9.384   9.235  0.2572 -0.2395 -0.2633
  192loPI    C1 3057  10.128  17.282  10.448 -0.0522  0.1123  0.2214
  192loPI    C2 3058  10.109  17.641  10.625 -0.2394  0.2028  0.0226
  192loPI    C3 3059   9.820  17.372  10.688 -0.1309  0.1085  0.1224
  192loPI   PO4 3060  10.222  17.377  10.220 -0.0464  0.0165 -0.0786
  192loPI   GL1 3061  10.412  17.559   9.974  0.3305  0.3011  0.0767
  192loPI   GL2 3062  10.300  17.828   9.902  0.0822  0.0487  0.1790
  192loPI   C1A 3063  10.406  17.479   9.522  0.0228 -0.0035 -0.0377
  192loPI   C2A 3064  10.379  17.471   9.083  0.1837 -0.2286  0.0114
  192loPI   C3A 3065  10.414  17.492   8.714  0.2644 -0.2547 -0.0008
  192loPI   C4A 3066  10.222  17.557   8.397 -0.1220 -0.2476 -0.2174
  192loPI   C5A 3067  10.045  17.876   8.124  0.0792  0.1111 -0.3764
  192loPI   C6A 3068  10.128  18.198   7.805  0.0588 -0.0669 -0.1053
  192loPI   C1B 3069  10.205  17.993   9.389  0.1872 -0.0256  0.1628
  192loPI   C2B 3070  10.132  18.086   8.945 -0.0021  0.0066 -0.0043
  192loPI   C3B 3071  10.247  18.457   8.634  0.1179 -0.0595 -0.1887
  192loPI   C4B 3072  10.240  18.382   8.219 -0.0722 -0.0187  0.2968
  193loPI    C1 3073  17.641  15.183  10.640 -0.0319 -0.0874 -0.0525
  193loPI    C2 3074  17.780  15.368  10.967 -0.2139 -0.1309  0.0505
  193loPI    C3 3075  17.754  14.969  10.958  0.3994 -0.1748 -0.2578
  193loPI   PO4 3076  17.747  15.285  10.437 -0.1071 -0.1081 -0.0518
  193loPI   GL1 3077  17.964  15.365  10.098  0.1263 -0.1801 -0.1949
  193loPI   GL2 3078  17.711  15.119   9.940 -0.0063  0.2202  0.3234
  193loPI   C1A 3079  18.253  15.214   9.797  0.0640 -0.2149  0.0004
  193loPI   C2A 3080  18.380  15.004   9.419  0.1140 -0.1999  0.0068
  193loPI   C3A 3081  18.375  15.075   9.073 -0.0758  0.0566 -0.0893
  193loPI   C4A 3082  18.256  15.057   8.721  0.2291  0.1848  0.2746
  193loPI   C5A 3083  18.020  15.208   8.458 -0.0894 -0.1417  0.2445
  193loPI   C6A 3084  17.654  15.382   8.306 -0.1179 -0.1937  0.0001
  193loPI   C1B 3085  17.769  15.307   9.530 -0.1181  0.1550 -0.2528
  193loPI   C2B 3086  17.868  15.253   9.077 -0.1440 -0.1688  0.0463
  193loPI   C3B 3087  17.678  15.205   8.760 -0.2012  0.1503  0.0329
  193loPI   C4B 3088  17.321  15.046   8.417 -0.2208 -0.1275 -0.0459
  194loPI    C1 3089  14.004  15.066  10.468  0.0373 -0.1930 -0.2952
  194loPI    C2 3090  14.109  14.866  10.798 -0.0751 -0.2008 -0.2637
  194loPI    C3 3091  13.779  15.093  10.798 -0.0497 -0.1634 -0.3565
  194loPI   PO4 3092  14.233  15.105  10.372  0.2743 -0.1827 -0.0088
  194loPI   GL1 3093  14.410  14.879  10.122 -0.0335  0.0810  0.2066
  194loPI   GL2 3094  14.422  14.606  10.012  0.3010  0.1066  0.0590
  194loPI   C1A 3095  14.689  15.037   9.760  0.2192  0.2122 -0.1788
  194loPI   C2A 3096  14.780  15.136   9.367 -0.1237 -0.2504  0.1342
  194loPI   C3A 3097  14.809  15.126   8.930  0.2188  0.2162 -0.0576
  194loPI   C4A 3098  14.988  14.997   8.473 -0.0650  0.1011 -0.1355
  194loPI   C5A 3099  14.755  14.886   8.142  0.1225  0.0009 -0.2106
  194loPI   C6A 3100  14.637  14.972   7.750 -0.3456 -0.3655  0.1998
  194loPI   C1B 3101  14.364  14.763   9.504 -0.0197  0.0785 -0.2510
  194loPI   C2B 3102  14.260  15.183   9.234 -0.3653  0.1522 -0.2368
  194loPI   C3B 3103  14.191  15.274   8.800  0.0985  0.0242 -0.0700
  194loPI   C4B 3104  13.937  15.168   8.404  0.3247  0.1205 -0.0556
  195loPI    C1 3105  15.669   2.889  10.708  0.0850  0.0241 -0.2310
  195loPI    C2 3106  15.885   2.985  11.031  0.0994 -0.1547 -0.1865
  195loPI    C3 3107  15.527   3.154  10.972  0.1006 -0.1145 -0.0814
  195loPI   PO4 3108  15.841   2.841  10.478  0.0384  0.1420  0.2565
  195loPI   GL1 3109  15.986   2.450  10.439  0.0096  0.0572  0.1252
  195loPI   GL2 3110  16.191   2.316  10.369  0.3728  0.3093 -0.1790
  195loPI   C1A 3111  16.134   2.688   9.979 -0.1035 -0.2798  0.0610
  195loPI   C2A 3112  16.261   2.838   9.630  0.0011 -0.2907  0.3730
  195loPI   C3A 3113  16.108   2.905   9.298 -0.0169  0.0184 -0.2260
  195loPI   C4A 3114  16.084   2.853   8.866 -0.1204 -0.1817  0.0217
  195loPI   C5A 3115  16.302   2.619   8.437  0.2365  0.1564 -0.0563
  195loPI   C6A 3116  16.119   2.339   8.154 -0.0991  0.1447 -0.0123
  195loPI   C1B 3117  16.236   2.207   9.967  0.2338 -0.1387  0.0063
  195loPI   C2B 3118  16.197   2.295   9.613  0.0566  0.1735 -0.1235
  195loPI   C3B 3119  16.268   2.307   9.168 -0.2429  0.0472  0.1256
  195loPI   C4B 3120  16.291   2.199   8.747  0.3061 -0.1800 -0.3930
  196loPI    C1 3121   5.398   6.315  10.743 -0.4188  0.0501  0.0187
  196loPI    C2 3122   5.350   6.681  10.897  0.0175 -0.0166  0.3338
  196loPI    C3 3123   5.266   6.359  11.118 -0.3416 -0.1133  0.0660
  196loPI   PO4 3124   5.273   6.352  10.541 -0.0751 -0.0058  0.5130
  196loPI   GL1 3125   5.193   6.101  10.088  0.1724  0.1806  0.0170
  196loPI   GL2 3126   5.319   5.904  10.015 -0.1172  0.0885 -0.3065
  196loPI   C1A 3127   5.286   6.417   9.859  0.0600 -0.0738  0.0107
  196loPI   C2A 3128   5.300   6.503   9.333  0.0728 -0.0411 -0.3125
  196loPI   C3A 3129   5.229   6.410   8.914 -0.0108  0.1064 -0.0695
  196loPI   C4A 3130   5.250   6.269   8.507 -0.2770  0.1421  0.1986
  196loPI   C5A 3131   4.953   6.232   8.213  0.0407  0.1673  0.2110
  196loPI   C6A 3132   4.672   5.930   8.377  0.0735  0.2069 -0.1886
  196loPI   C1B 3133   5.384   6.017   9.564  0.1300  0.0522 -0.2627
  196loPI   C2B 3134   5.318   5.919   9.162 -0.0365  0.1355  0.1733
  196loPI   C3B 3135   5.011   5.809   8.771 -0.2262  0.0462  0.0737
  196loPI   C4B 3136   4.848   5.448   8.555  0.1579 -0.0515  0.2129
  197loPI    C1 3137   7.166  10.270  10.873 -0.0185 -0.1944  0.0485
  197loPI    C2 3138   7.391  10.007  11.075 -0.0403 -0.1864  0.0832
  197loPI    C3 3139   6.994   9.960  11.059 -0.0540 -0.1030  0.1693
  197loPI   PO4 3140   7.316  10.496  10.783 -0.0640  0.1608  0.0147
  197loPI   GL1 3141   7.185  10.752  10.525 -0.1743 -0.0351  0.1350
  197loPI   GL2 3142   7.212  11.062  10.517 -0.0689  0.0938  0.0357
  197loPI   C1A 3143   7.425  10.741  10.108 -0.0861 -0.0331 -0.0020
  197loPI   C2A 3144   7.408  10.661   9.611  0.0823 -0.2339 -0.3723
  197loPI   C3A 3145   7.517  10.600   9.175  0.0210 -0.1471 -0.3720
  197loPI   C4A 3146   7.476  10.555   8.692 -0.1278 -0.2701  0.3710
  197loPI   C5A 3147   7.130  10.411   8.441  0.3985 -0.2148  0.1296
  197loPI   C6A 3148   6.811  10.236   8.621 -0.1428  0.2203  0.1397
  197loPI   C1B 3149   6.989  11.006  10.071  0.1416 -0.2386  0.2031
  197loPI   C2B 3150   7.030  10.981   9.610 -0.1255  0.1153  0.2844
  197loPI   C3B 3151   6.943  10.707   9.251 -0.1709  0.2484 -0.2325
  197loPI   C4B 3152   6.933  10.761   8.826 -0.1269 -0.1578 -0.1860
  198loPI    C1 3153  14.411  10.223  10.714 -0.1642 -0.2745 -0.1550
  198loPI    C2 3154  14.018  10.241  10.785 -0.1372 -0.0658 -0.0514
  198loPI    C3 3155  14.270  10.471  10.994  0.0347 -0.1536 -0.1595
  198loPI   PO4 3156  14.397  10.222  10.405 -0.0344  0.0431  0.4519
  198loPI   GL1 3157  14.275   9.950  10.071 -0.0024 -0.0002 -0.1549
  198loPI   GL2 3158  14.494   9.728  10.034 -0.2522  0.1256 -0.0124
  198loPI   C1A 3159  14.270  10.158   9.604  0.0752  0.1218 -0.1435
  198loPI   C2A 3160  14.255  10.333   9.177 -0.1826  0.0829 -0.1899
  198loPI   C3A 3161  13.987  10.356   8.750  0.1826  0.0203 -0.0277
  198loPI   C4A 3162  13.649  10.186   8.507  0.1442  0.1890 -0.2240
  198loPI   C5A 3163  13.562   9.897   8.165  0.1551  0.0977 -0.1469
  198loPI   C6A 3164  13.289   9.833   7.956 -0.3035  0.1038  0.1336
  198loPI   C1B 3165  14.516   9.761   9.601 -0.0968  0.2196  0.1184
  198loPI   C2B 3166  14.443   9.745   9.214 -0.0141  0.0656  0.1382
  198loPI   C3B 3167  14.348   9.880   8.844 -0.0709  0.1695  0.0488
  198loPI   C4B 3168  14.035   9.929   8.400 -0.1343 -0.0911  0.2441
  199loPI    C1 3169  13.079   6.223  10.732  0.0502 -0.3403 -0.2339
  199loPI    C2 3170  13.439   6.386  10.669  0.0524 -0.2180  0.0757
  199loPI    C3 3171  13.363   6.197  11.013 -0.2841  0.0522  0.1547
  199loPI   PO4 3172  12.976   6.189  10.460  0.0526 -0.7092  0.0729
  199loPI   GL1 3173  13.195   6.409  10.153  0.2550  0.2431 -0.3791
  199loPI   GL2 3174  13.333   6.782   9.956  0.0333  0.1170  0.1189
  199loPI   C1A 3175  12.887   6.452   9.794 -0.4179  0.0094 -0.0798
  199loPI   C2A 3176  12.672   6.631   9.494 -0.2113  0.1162 -0.4119
  199loPI   C3A 3177  12.621   6.681   9.029  0.5190 -0.2985 -0.2185
  199loPI   C4A 3178  12.436   6.609   8.704  0.0322 -0.0875  0.2668
  199loPI   C5A 3179  12.491   6.555   8.210 -0.0669  0.1213  0.1928
  199loPI   C6A 3180  12.306   6.330   7.927 -0.1533  0.3301 -0.2339
  199loPI   C1B 3181  13.250   6.663   9.525  0.1556 -0.0484  0.1494
  199loPI   C2B 3182  13.138   6.625   9.078 -0.0451 -0.0602  0.1020
  199loPI   C3B 3183  13.044   6.501   8.708 -0.1206  0.0126 -0.2704
  199loPI   C4B 3184  13.077   6.359   8.277 -0.2309  0.1050  0.1044
  200loPI    C1 3185   3.635   2.489  10.909  0.2719 -0.1049 -0.1771
  200loPI    C2 3186   3.855   2.688  10.641 -0.0219  0.1178 -0.2583
  200loPI    C3 3187   3.482   2.807  10.721  0.0686  0.0708  0.2725
  200loPI   PO4 3188   3.710   2.255  10.831 -0.1454  0.2333 -0.4094
  200loPI   GL1 3189   3.943   2.168  10.513  0.0706 -0.1776 -0.2489
  200loPI   GL2 3190   4.247   2.402  10.551 -0.0508  0.1650  0.1981
  200loPI   C1A 3191   3.850   2.459  10.163 -0.0798 -0.2648 -0.4547
  200loPI   C2A 3192   3.809   2.421   9.685 -0.0048  0.2879 -0.3020
  200loPI   C3A 3193   3.684   2.442   9.243  0.1776  0.0494  0.2216
  200loPI   C4A 3194   3.755   2.319   8.807  0.0408  0.0099  0.0601
  200loPI   C5A 3195   3.807   2.602   8.403  0.4320  0.0211 -0.2609
  200loPI   C6A 3196   4.006   2.887   8.134  0.0549  0.3885  0.1319
  200loPI   C1B 3197   4.186   2.112  10.131  0.0792  0.0889 -0.2364
  200loPI   C2B 3198   4.187   2.127   9.681  0.1018 -0.4738  0.0998
  200loPI   C3B 3199   4.170   2.270   9.271 -0.1881  0.2761 -0.0913
  200loPI   C4B 3200   4.212   2.498   8.783  0.0288  0.0593  0.1201
  201loPI    C1 3201   9.929   5.737  10.285  0.1527  0.1251  0.2029
  201loPI    C2 3202  10.169   5.701  10.603 -0.0321  0.1598  0.3481
  201loPI    C3 3203   9.853   5.946  10.617 -0.1707 -0.0085  0.2168
  201loPI   PO4 3204  10.110   5.746  10.096 -0.2277  0.1387  0.0201
  201loPI   GL1 3205  10.311   5.922   9.781 -0.4522 -0.2514  0.0819
  201loPI   GL2 3206  10.591   5.973   9.743  0.1393  0.0663 -0.2055
  201loPI   C1A 3207  10.213   5.893   9.394  0.0523 -0.0615 -0.0964
  201loPI   C2A 3208  10.325   5.969   9.002 -0.1456 -0.1210 -0.1174
  201loPI   C3A 3209  10.469   5.770   8.586  0.0184 -0.1472 -0.0654
  201loPI   C4A 3210  10.566   5.683   8.120 -0.1980  0.3102 -0.1919
  201loPI   C5A 3211  10.628   5.419   7.850  0.0448  0.0413  0.2431
  201loPI   C6A 3212  10.918   5.388   7.470  0.1340  0.1088  0.0807
  201loPI   C1B 3213  10.704   5.952   9.301 -0.1917 -0.1445 -0.2430
  201loPI   C2B 3214  10.856   5.857   8.932 -0.0298  0.0306  0.1366
  201loPI   C3B 3215  11.062   5.736   8.527  0.0595  0.1646 -0.2239
  201loPI   C4B 3216  11.467   5.601   8.229  0.2607  0.0461 -0.1912
  202loPI    C1 3217  13.526  10.673  10.577  0.0186 -0.1500 -0.1366
  202loPI    C2 3218  13.644  10.601  10.953  0.0986 -0.1104 -0.1539
  202loPI    C3 3219  13.269  10.515  10.841  0.0192  0.0494 -0.0151
  202loPI   PO4 3220  13.690  10.483  10.437 -0.4106 -0.0773  0.0374
  202loPI   GL1 3221  13.648  10.331  10.085  0.2547 -0.1901  0.0133
  202loPI   GL2 3222  13.403  10.600  10.012  0.0708  0.1417  0.1058
  202loPI   C1A 3223  13.784  10.318   9.612 -0.1251 -0.0805 -0.0208
  202loPI   C2A 3224  13.709  10.341   9.196  0.2712  0.0582  0.0853
  202loPI   C3A 3225  13.451  10.481   8.905 -0.1624  0.1842  0.3331
  202loPI   C4A 3226  13.265  10.574   8.512 -0.1021 -0.0984 -0.2419
  202loPI   C5A 3227  13.117  10.772   8.135  0.0382  0.2303 -0.3078
  202loPI   C6A 3228  12.795  10.911   7.934 -0.1543 -0.2063 -0.2197
  202loPI   C1B 3229  13.272  10.371   9.656  0.1163  0.0756  0.0133
  202loPI   C2B 3230  13.116  10.307   9.198  0.1601  0.3193  0.0460
  202loPI   C3B 3231  12.948  10.346   8.799  0.0959  0.1983 -0.1327
  202loPI   C4B 3232  12.709  10.572   8.352  0.0333 -0.1889 -0.0546
  203loPI    C1 3233   7.790   5.037  10.668 -0.0383 -0.0673 -0.1703
  203loPI    C2 3234   8.086   4.896  10.897  0.0695 -0.0310 -0.2865
  203loPI    C3 3235   7.780   5.092  11.064  0.1328 -0.0301 -0.1703
  203loPI   PO4 3236   7.795   4.800  10.425  0.1073  0.0413 -0.1804
  203loPI   GL1 3237   7.933   4.742  10.036 -0.1908 -0.0431  0.1173
  203loPI   GL2 3238   8.205   4.718  10.000 -0.1308  0.1833  0.1522
  203loPI   C1A 3239   7.856   4.993   9.651 -0.0931 -0.2586 -0.0846
  203loPI   C2A 3240   8.073   5.113   9.226  0.0301  0.2176 -0.2228
  203loPI   C3A 3241   8.102   5.401   8.817  0.1486 -0.1846  0.0240
  203loPI   C4A 3242   8.208   5.598   8.487  0.4130  0.3094  0.3196
  203loPI   C5A 3243   8.489   5.514   8.062  0.0204  0.1307  0.0932
  203loPI   C6A 3244   8.868   5.455   7.800  0.2167 -0.0488 -0.0360
  203loPI   C1B 3245   8.422   4.959   9.725 -0.1074  0.0406  0.2762
  203loPI   C2B 3246   8.611   5.116   9.329  0.2715 -0.0709  0.0619
  203loPI   C3B 3247   8.601   5.334   8.900 -0.0757 -0.2095  0.0932
  203loPI   C4B 3248   8.503   5.179   8.460 -0.3418 -0.0261 -0.1102
  204loPI    C1 3249   2.404   8.059  10.936 -0.2301  0.0464  0.0292
  204loPI    C2 3250   2.545   7.692  11.008 -0.0470  0.1310  0.1088
  204loPI    C3 3251   2.426   7.924  11.312 -0.2554  0.1021  0.0510
  204loPI   PO4 3252   2.480   8.175  10.792 -0.0316  0.0341 -0.1129
  204loPI   GL1 3253   2.547   8.229  10.433  0.0035 -0.1831 -0.0246
  204loPI   GL2 3254   2.836   8.107  10.496 -0.1112 -0.1719 -0.0371
  204loPI   C1A 3255   2.557   8.321  10.040  0.0735 -0.0341  0.2634
  204loPI   C2A 3256   2.587   8.544   9.662 -0.2143 -0.1114 -0.0979
  204loPI   C3A 3257   2.766   8.809   9.418 -0.1543  0.0965  0.3440
  204loPI   C4A 3258   2.706   9.059   9.152  0.1194  0.0420 -0.0728
  204loPI   C5A 3259   2.566   8.985   8.736  0.0632 -0.0535 -0.0224
  204loPI   C6A 3260   2.416   8.823   8.358  0.0045 -0.0915 -0.0303
  204loPI   C1B 3261   2.673   7.857  10.163 -0.2770 -0.0284  0.1250
  204loPI   C2B 3262   2.505   7.952   9.784  0.3705 -0.0597 -0.3590
  204loPI   C3B 3263   2.523   7.868   9.440 -0.0115  0.2772 -0.1447
  204loPI   C4B 3264   2.425   7.841   8.992 -0.3006  0.0675  0.0245
  205loPI    C1 3265   6.766   7.306  10.590 -0.0132 -0.1302 -0.1275
  205loPI    C2 3266   6.785   7.401  10.978  0.1979  0.1689 -0.2067
  205loPI    C3 3267   7.050   7.145  10.821 -0.0322 -0.1365 -0.1085
  205loPI   PO4 3268   6.460   7.315  10.547 -0.2910 -0.1525  0.2466
  205loPI   GL1 3269   6.372   7.453  10.149  0.1638  0.2051  0.1593
  205loPI   GL2 3270   6.654   7.676  10.138 -0.3377 -0.2263 -0.2116
  205loPI   C1A 3271   6.276   7.457   9.701  0.1782  0.2388  0.0553
  205loPI   C2A 3272   6.290   7.496   9.266  0.0091 -0.0437 -0.2005
  205loPI   C3A 3273   6.199   7.474   8.858  0.1021 -0.0393  0.0163
  205loPI   C4A 3274   5.976   7.510   8.507  0.0371  0.1244  0.0207
  205loPI   C5A 3275   5.872   7.698   8.105 -0.1729 -0.0404 -0.1276
  205loPI   C6A 3276   5.467   7.903   8.024  0.0745  0.2564  0.1575
  205loPI   C1B 3277   6.385   7.925   9.935 -0.1389  0.1608  0.0227
  205loPI   C2B 3278   6.289   8.020   9.533  0.2745  0.1286 -0.1295
  205loPI   C3B 3279   6.282   8.026   9.036  0.0099 -0.3458  0.1518
  205loPI   C4B 3280   6.180   7.934   8.721  0.1379  0.0420  0.1363
  206loPI    C1 3281   2.029   1.996  11.094  0.0268  0.2182  0.0998
  206loPI    C2 3282   2.373   1.793  11.111 -0.1855 -0.1470  0.1390
  206loPI    C3 3283   2.141   1.821  11.436 -0.2039  0.0811  0.1076
  206loPI   PO4 3284   1.967   1.904  10.706  0.1200  0.2060 -0.1586
  206loPI   GL1 3285   2.096   2.021  10.328  0.0680  0.1446  0.1182
  206loPI   GL2 3286   2.004   2.277  10.211 -0.3761 -0.1606  0.0787
  206loPI   C1A 3287   2.112   1.614  10.181 -0.2576  0.1495 -0.0484
  206loPI   C2A 3288   2.023   1.518   9.818 -0.3517  0.0660 -0.0273
  206loPI   C3A 3289   2.187   1.527   9.465  0.0665 -0.1140 -0.0515
  206loPI   C4A 3290   2.135   1.544   9.097  0.1368 -0.1813  0.0105
  206loPI   C5A 3291   2.161   1.517   8.654  0.1142  0.0365  0.0409
  206loPI   C6A 3292   2.121   1.429   8.299 -0.1006 -0.1523 -0.2522
  206loPI   C1B 3293   2.047   2.122   9.809  0.0518  0.0264 -0.3714
  206loPI   C2B 3294   1.788   1.863   9.549  0.0603 -0.5578  0.2841
  206loPI   C3B 3295   1.677   1.851   9.101  0.0780  0.1936 -0.2315
  206loPI   C4B 3296   1.793   1.874   8.684  0.1231  0.0071 -0.3592
  207loPI    C1 3297  17.081   0.291  10.653  0.0392  0.0760 -0.1886
  207loPI    C2 3298  17.425   0.494  10.641 -0.0944  0.3225  0.0448
  207loPI    C3 3299  17.102   0.636  10.452 -0.1365  0.2241  0.0425
  207loPI   PO4 3300  17.190   0.032  10.693  0.1115  0.0570 -0.0951
  207loPI   GL1 3301  17.294  -0.218  10.258  0.0223  0.2822 -0.0945
  207loPI   GL2 3302  16.988  -0.362  10.095 -0.3615  0.2197 -0.1912
  207loPI   C1A 3303  17.310  -0.065   9.834 -0.0256 -0.3325  0.4175
  207loPI   C2A 3304  17.276   0.037   9.465  0.2132 -0.1920  0.2944
  207loPI   C3A 3305  17.236   0.043   8.917 -0.0087  0.2063  0.1056
  207loPI   C4A 3306  17.241   0.199   8.414  0.0960 -0.0806 -0.0675
  207loPI   C5A 3307  17.337   0.623   8.179  0.2606  0.0175 -0.2413
  207loPI   C6A 3308  17.480   1.068   8.001 -0.3775  0.1729  0.0590
  207loPI   C1B 3309  16.928  -0.340   9.564  0.2295  0.1819 -0.1054
  207loPI   C2B 3310  16.854  -0.300   9.039  0.0335 -0.2004  0.1401
  207loPI   C3B 3311  16.915  -0.242   8.673 -0.1373  0.3621 -0.0925
  207loPI   C4B 3312  17.070  -0.244   8.255 -0.0463 -0.0498 -0.1849
  208loPI    C1 3313   8.390   8.290  10.730 -0.1684  0.2052 -0.0346
  208loPI    C2 3314   8.500   8.616  10.934 -0.0931 -0.0629  0.3638
  208loPI    C3 3315   8.358   8.296  11.129 -0.1978 -0.2584 -0.0243
  208loPI   PO4 3316   8.457   8.511  10.442 -0.1073  0.0429  0.0861
  208loPI   GL1 3317   8.604   8.847  10.206  0.0961  0.0406  0.1687
  208loPI   GL2 3318   8.411   8.588   9.936 -0.0990  0.2301  0.0488
  208loPI   C1A 3319   8.720   9.150   9.970  0.1245 -0.2175  0.0943
  208loPI   C2A 3320   8.849   9.120   9.460 -0.0008  0.0083 -0.2727
  208loPI   C3A 3321   8.911   9.287   8.995 -0.0735 -0.2729  0.0777
  208loPI   C4A 3322   9.181   9.250   8.535  0.3214  0.1363  0.2433
  208loPI   C5A 3323   9.376   9.484   8.227  0.0015 -0.0931  0.3889
  208loPI   C6A 3324   9.623   9.886   8.142  0.1012 -0.1936  0.1903
  208loPI   C1B 3325   8.437   8.719   9.534 -0.0011  0.0528  0.0835
  208loPI   C2B 3326   8.401   8.863   9.139 -0.1577  0.4054 -0.0420
  208loPI   C3B 3327   8.494   9.202   8.769  0.3672  0.1075 -0.0442
  208loPI   C4B 3328   8.308   9.448   8.478  0.0753 -0.0550  0.1214
  209loPI    C1 3329  15.925  17.517  10.832  0.0064  0.0172  0.1155
  209loPI    C2 3330  15.801  17.155  10.949  0.0068 -0.0272 -0.0199
  209loPI    C3 3331  16.150  17.299  11.080 -0.0630 -0.0131  0.1519
  209loPI   PO4 3332  15.906  17.504  10.531  0.1375  0.0673  0.0986
  209loPI   GL1 3333  15.924  17.756  10.166  0.2970 -0.0120 -0.1664
  209loPI   GL2 3334  15.882  18.130  10.174  0.1892 -0.1584  0.1309
  209loPI   C1A 3335  16.037  17.490   9.813  0.2344 -0.2690 -0.1214
  209loPI   C2A 3336  15.980  17.541   9.396 -0.1061  0.0067 -0.1827
  209loPI   C3A 3337  16.084  17.466   8.924 -0.0894  0.1769 -0.0526
  209loPI   C4A 3338  16.002  17.382   8.500  0.1236  0.2687  0.1911
  209loPI   C5A 3339  15.815  17.204   8.188  0.0485  0.1712  0.2131
  209loPI   C6A 3340  15.466  16.941   8.065  0.2139 -0.2444  0.0554
  209loPI   C1B 3341  15.762  18.383   9.706  0.3483 -0.0400 -0.0085
  209loPI   C2B 3342  15.839  18.472   9.255 -0.0061 -0.0138  0.1446
  209loPI   C3B 3343  15.766  18.504   8.871 -0.0258 -0.0097  0.0435
  209loPI   C4B 3344  15.570  18.659   8.440 -0.0613 -0.0741 -0.1517
  210loPI    C1 3345  15.478  15.954  10.725 -0.0304 -0.0854  0.0945
  210loPI    C2 3346  15.613  16.115  11.065  0.2129 -0.3313  0.1173
  210loPI    C3 3347  15.305  15.861  11.073  0.2238 -0.3431  0.1558
  210loPI   PO4 3348  15.700  15.913  10.554  0.1164 -0.0127 -0.0238
  210loPI   GL1 3349  15.680  16.037  10.183 -0.1237  0.1109 -0.1857
  210loPI   GL2 3350  15.900  15.901  10.054  0.1186 -0.1444  0.1684
  210loPI   C1A 3351  15.630  16.237   9.736 -0.0847  0.1106 -0.0394
  210loPI   C2A 3352  15.803  16.084   9.447 -0.1500 -0.0474  0.1633
  210loPI   C3A 3353  16.219  15.984   9.260  0.1331  0.2797 -0.3232
  210loPI   C4A 3354  16.449  16.018   8.866  0.0417  0.2695  0.0202
  210loPI   C5A 3355  16.309  16.152   8.435 -0.1169 -0.1714 -0.0386
  210loPI   C6A 3356  16.699  16.161   8.182 -0.1862  0.0096  0.1967
  210loPI   C1B 3357  15.530  15.761   9.726  0.0504  0.1262  0.1412
  210loPI   C2B 3358  15.506  15.720   9.291 -0.1709  0.1800 -0.1976
  210loPI   C3B 3359  15.633  15.565   8.884  0.0866  0.0464 -0.2499
  210loPI   C4B 3360  15.634  15.815   8.552  0.2211 -0.1778  0.1886
  211loPI    C1 3361  13.071   1.938  11.006 -0.0347 -0.1280 -0.1162
  211loPI    C2 3362  13.334   2.100  11.261  0.0409 -0.1129 -0.2028
  211loPI    C3 3363  12.986   1.956  11.396 -0.1552  0.3826 -0.1584
  211loPI   PO4 3364  13.120   2.142  10.726  0.2029 -0.0902 -0.2903
  211loPI   GL1 3365  13.308   2.333  10.446 -0.0936 -0.2004 -0.1321
  211loPI   GL2 3366  13.670   2.261  10.369 -0.0109  0.2460 -0.2141
  211loPI   C1A 3367  13.202   2.279   9.974 -0.0059  0.2368 -0.2558
  211loPI   C2A 3368  13.303   2.260   9.558 -0.0416 -0.1294  0.1541
  211loPI   C3A 3369  13.093   2.136   9.163  0.2115 -0.4925  0.1751
  211loPI   C4A 3370  12.928   2.051   8.747 -0.0083  0.0978  0.1016
  211loPI   C5A 3371  12.974   1.956   8.276 -0.0523  0.1723 -0.1181
  211loPI   C6A 3372  12.787   2.241   7.809 -0.0107 -0.1756 -0.2654
  211loPI   C1B 3373  13.776   2.094  10.033  0.0195 -0.4674  0.0348
  211loPI   C2B 3374  13.878   2.131   9.576 -0.1295 -0.0655 -0.1896
  211loPI   C3B 3375  13.885   2.181   9.105 -0.4162  0.0393  0.0458
  211loPI   C4B 3376  13.988   2.135   8.722 -0.0011 -0.1027  0.1827
  212loPI    C1 3377  12.746  12.872  10.411 -0.0580 -0.3368  0.1190
  212loPI    C2 3378  13.003  13.062  10.653 -0.0171 -0.3244  0.0659
  212loPI    C3 3379  12.613  13.057  10.740 -0.0166 -0.2266  0.0743
  212loPI   PO4 3380  12.975  12.577  10.380 -0.1494 -0.0499 -0.0677
  212loPI   GL1 3381  13.275  12.298  10.209 -0.1005  0.1419  0.1413
  212loPI   GL2 3382  13.289  12.547   9.958  0.3650  0.2179  0.2543
  212loPI   C1A 3383  13.311  11.944  10.024  0.0475 -0.0948  0.1111
  212loPI   C2A 3384  13.326  11.770   9.521 -0.3449  0.1202  0.2838
  212loPI   C3A 3385  13.317  11.602   9.179  0.2962 -0.0051 -0.0658
  212loPI   C4A 3386  13.087  11.529   8.834  0.0869 -0.2249  0.1715
  212loPI   C5A 3387  12.961  11.642   8.392  0.1476  0.0996  0.0792
  212loPI   C6A 3388  12.771  12.037   8.086  0.0250  0.0105  0.2005
  212loPI   C1B 3389  13.076  12.634   9.637 -0.0669 -0.1078 -0.0042
  212loPI   C2B 3390  12.979  12.489   9.240 -0.0417 -0.1538  0.0105
  212loPI   C3B 3391  12.815  12.337   8.876  0.1277  0.0183 -0.0813
  212loPI   C4B 3392  12.711  12.048   8.558 -0.0072 -0.0233  0.2021
  213loPI    C1 3393  15.869   7.855  10.242  0.1811  0.2023  0.1153
  213loPI    C2 3394  15.762   8.178  10.452  0.0317  0.1654  0.0973
  213loPI    C3 3395  15.557   7.837  10.491  0.2056  0.0639  0.1365
  213loPI   PO4 3396  16.190   7.828  10.307  0.1085 -0.0181 -0.1856
  213loPI   GL1 3397  16.617   7.878  10.103  0.0835  0.3148  0.1065
  213loPI   GL2 3398  16.466   8.077   9.890 -0.2151 -0.2750  0.0565
  213loPI   C1A 3399  17.030   7.989   9.868 -0.1974  0.2398 -0.0745
  213loPI   C2A 3400  17.130   8.020   9.389  0.0234 -0.2267 -0.1210
  213loPI   C3A 3401  17.281   8.083   8.965  0.1664  0.0075  0.2301
  213loPI   C4A 3402  17.191   8.151   8.553  0.3356 -0.1309  0.1971
  213loPI   C5A 3403  16.990   8.275   8.033  0.2826 -0.1033 -0.3180
  213loPI   C6A 3404  16.880   8.308   7.694  0.1916  0.1090 -0.1825
  213loPI   C1B 3405  16.499   8.108   9.441  0.2715 -0.1451  0.0558
  213loPI   C2B 3406  16.605   8.133   8.940 -0.0659 -0.1180  0.4414
  213loPI   C3B 3407  16.515   8.310   8.594  0.1003  0.2715  0.1254
  213loPI   C4B 3408  16.197   8.298   8.166 -0.2009  0.1049  0.2408
  214loPI    C1 3409   0.272  13.460  10.857  0.1601 -0.0970 -0.1447
  214loPI    C2 3410   0.198  13.104  11.024  0.2690 -0.1039 -0.1105
  214loPI    C3 3411   0.024  13.432  11.170  0.3612 -0.1104  0.0160
  214loPI   PO4 3412   0.201  13.481  10.593 -0.2243 -0.0772  0.0360
  214loPI   GL1 3413   0.172  13.363  10.145  0.1994  0.2689 -0.0624
  214loPI   GL2 3414   0.319  13.706  10.165  0.1297 -0.1727 -0.2979
  214loPI   C1A 3415   0.284  13.252   9.805  0.0888 -0.1095 -0.0394
  214loPI   C2A 3416   0.208  13.134   9.424  0.2643  0.1248  0.1733
  214loPI   C3A 3417   0.028  13.176   8.953  0.1758 -0.3863  0.1156
  214loPI   C4A 3418   0.203  13.203   8.556  0.1122 -0.0885  0.1176
  214loPI   C5A 3419   0.325  12.861   8.247  0.0043 -0.1683 -0.0246
  214loPI   C6A 3420   0.314  12.506   8.046  0.0485 -0.0569  0.1455
  214loPI   C1B 3421   0.102  13.742   9.798  0.0461  0.1418  0.0762
  214loPI   C2B 3422  -0.006  13.570   9.305 -0.0151  0.0146 -0.1283
  214loPI   C3B 3423  -0.106  13.648   8.829  0.2003  0.1601  0.0453
  214loPI   C4B 3424  -0.377  13.446   8.520  0.0199  0.0883 -0.0332
  215loPI    C1 3425   8.150  13.919  10.569  0.0157 -0.1862 -0.0110
  215loPI    C2 3426   8.258  14.244  10.776 -0.3820 -0.0453 -0.0159
  215loPI    C3 3427   8.537  14.009  10.614 -0.0827  0.1594  0.1910
  215loPI   PO4 3428   7.881  14.019  10.481  0.0274  0.4550  0.1456
  215loPI   GL1 3429   7.533  14.138  10.260 -0.2433 -0.0810 -0.1627
  215loPI   GL2 3430   7.802  14.215  10.023 -0.0838 -0.0095  0.0892
  215loPI   C1A 3431   7.331  14.377   9.910  0.1508 -0.2017  0.2101
  215loPI   C2A 3432   7.272  14.379   9.521  0.3357  0.0722 -0.1139
  215loPI   C3A 3433   7.314  14.531   9.113 -0.1672 -0.1416  0.0355
  215loPI   C4A 3434   7.515  14.763   8.729 -0.3592 -0.0634 -0.1171
  215loPI   C5A 3435   7.835  14.964   8.431 -0.1632  0.0682 -0.2315
  215loPI   C6A 3436   8.279  14.987   8.538 -0.1129  0.1228  0.1598
  215loPI   C1B 3437   7.794  14.465   9.640 -0.2388  0.0323 -0.1337
  215loPI   C2B 3438   7.797  14.659   9.205 -0.1532 -0.1730  0.2676
  215loPI   C3B 3439   8.054  14.668   8.860 -0.0757  0.2996 -0.1587
  215loPI   C4B 3440   8.468  14.520   8.729  0.0977  0.0756 -0.2121
  216loPI    C1 3441   9.683  16.908  10.342 -0.0278 -0.1279  0.0096
  216loPI    C2 3442   9.655  16.893  10.741 -0.1102 -0.1409  0.0035
  216loPI    C3 3443   9.461  16.625  10.517  0.0905 -0.2527 -0.0397
  216loPI   PO4 3444   9.577  17.123  10.312 -0.0956  0.1973 -0.1068
  216loPI   GL1 3445   9.740  17.283   9.996 -0.3602 -0.0894  0.0047
  216loPI   GL2 3446   9.942  17.419   9.785 -0.0612  0.0747  0.0927
  216loPI   C1A 3447   9.474  17.405   9.622  0.1397  0.2957 -0.1682
  216loPI   C2A 3448   9.466  17.383   9.250  0.1516  0.2840  0.1022
  216loPI   C3A 3449   9.435  17.334   8.822  0.0895  0.0345 -0.1096
  216loPI   C4A 3450   9.255  17.708   8.698 -0.0930 -0.0009  0.1208
  216loPI   C5A 3451   9.307  18.026   8.502 -0.0895 -0.0129  0.1744
  216loPI   C6A 3452   9.156  18.392   8.195  0.1153  0.0950 -0.2834
  216loPI   C1B 3453   9.980  17.435   9.359 -0.0814 -0.2842  0.1013
  216loPI   C2B 3454   9.887  17.547   8.909  0.3477 -0.0250  0.2534
  216loPI   C3B 3455   9.688  17.615   8.474 -0.3194 -0.1191 -0.2005
  216loPI   C4B 3456   9.512  17.845   8.088  0.0382  0.2127  0.0354
  217loPI    C1 3457  14.288   3.756  10.423  0.2775 -0.0673 -0.2504
  217loPI    C2 3458  14.393   3.965  10.747 -0.0806 -0.1538 -0.0726
  217loPI    C3 3459  14.585   3.626  10.657  0.1318 -0.0420 -0.0480
  217loPI   PO4 3460  13.970   3.645  10.537 -0.1834 -0.3486 -0.0079
  217loPI   GL1 3461  13.727   3.509  10.104  0.1081 -0.2748  0.0505
  217loPI   GL2 3462  13.756   3.308  10.154  0.2037  0.0938 -0.3074
  217loPI   C1A 3463  13.497   3.605   9.775 -0.2430 -0.0981  0.1065
  217loPI   C2A 3464  13.349   3.553   9.318 -0.4004  0.0132  0.1081
  217loPI   C3A 3465  13.339   3.450   8.847  0.0662 -0.0587 -0.1683
  217loPI   C4A 3466  13.360   3.398   8.513 -0.0313 -0.1445 -0.1650
  217loPI   C5A 3467  13.080   3.115   8.179  0.0203 -0.1212  0.1599
  217loPI   C6A 3468  12.799   2.840   7.806 -0.0257 -0.3717 -0.0848
  217loPI   C1B 3469  13.636   3.098   9.791 -0.1242 -0.2234 -0.0756
  217loPI   C2B 3470  13.496   3.089   9.473 -0.0552  0.2143  0.0523
  217loPI   C3B 3471  13.475   2.933   9.031  0.1737  0.0385 -0.0736
  217loPI   C4B 3472  13.357   2.890   8.582  0.0178 -0.0410  0.1358
  218loPI    C1 3473  16.581  13.158  10.712  0.1264 -0.1180 -0.0394
  218loPI    C2 3474  16.895  13.325  10.896  0.0442 -0.0469  0.0379
  218loPI    C3 3475  16.619  13.128  11.109  0.0287 -0.0975 -0.0281
  218loPI   PO4 3476  16.657  13.322  10.448  0.0266 -0.1839 -0.0546
  218loPI   GL1 3477  16.923  13.306  10.193  0.1861  0.3662 -0.0909
  218loPI   GL2 3478  16.760  12.954  10.181  0.0529 -0.0227 -0.2676
  218loPI   C1A 3479  16.933  13.295   9.797  0.0268  0.1236 -0.1146
  218loPI   C2A 3480  17.033  13.131   9.422  0.0777 -0.1515  0.1936
  218loPI   C3A 3481  17.009  13.186   9.012 -0.0976 -0.0678  0.0597
  218loPI   C4A 3482  16.962  13.054   8.590  0.2508  0.0936  0.0253
  218loPI   C5A 3483  16.722  12.921   8.374 -0.1574 -0.0423  0.0168
  218loPI   C6A 3484  16.522  12.639   8.111 -0.0008  0.2973 -0.1894
  218loPI   C1B 3485  16.734  12.767   9.827  0.0444  0.3616  0.3627
  218loPI   C2B 3486  16.805  12.562   9.492 -0.0563 -0.0200 -0.1328
  218loPI   C3B 3487  17.007  12.295   9.114  0.2307  0.0915 -0.1291
  218loPI   C4B 3488  17.173  12.108   8.771  0.0528 -0.0140  0.2365
  219loPI    C1 3489  16.824  11.561  10.497  0.1973  0.2387  0.1310
  219loPI    C2 3490  17.018  11.470  10.835  0.1408 -0.0314  0.0931
  219loPI    C3 3491  16.645  11.614  10.851  0.1975  0.1101  0.1512
  219loPI   PO4 3492  16.877  11.336  10.391  0.0639  0.2422  0.4526
  219loPI   GL1 3493  16.766  11.144   9.910 -0.1315 -0.2986 -0.0710
  219loPI   GL2 3494  16.873  10.925  10.007  0.0931 -0.1236  0.1208
  219loPI   C1A 3495  16.753  11.348   9.621 -0.0262 -0.0902  0.2021
  219loPI   C2A 3496  16.594  11.369   9.225  0.3014  0.0852 -0.0447
  219loPI   C3A 3497  16.514  11.533   8.962  0.1437  0.2922 -0.0101
  219loPI   C4A 3498  16.456  11.754   8.494 -0.0994  0.0683  0.1477
  219loPI   C5A 3499  16.674  11.684   8.059  0.0493  0.1714 -0.1236
  219loPI   C6A 3500  16.841  11.386   7.817 -0.3588  0.0912  0.0229
  219loPI   C1B 3501  16.999  10.801   9.600 -0.1725 -0.0231 -0.0004
  219loPI   C2B 3502  17.044  11.089   9.258 -0.4172 -0.2946  0.0605
  219loPI   C3B 3503  16.925  11.141   8.839  0.2273  0.3557 -0.1950
  219loPI   C4B 3504  16.635  11.204   8.544 -0.2126 -0.1685  0.0985
  220loPI    C1 3505  14.793   0.682  10.794 -0.0632  0.0054 -0.0472
  220loPI    C2 3506  15.110   0.594  11.022 -0.1098  0.2589  0.1193
  220loPI    C3 3507  14.749   0.637  11.188 -0.1591  0.3663 -0.0133
  220loPI   PO4 3508  14.824   0.893  10.629  0.0483  0.1024 -0.1368
  220loPI   GL1 3509  15.009   1.040  10.214  0.1843  0.0928 -0.1421
  220loPI   GL2 3510  15.221   0.728  10.086  0.2236 -0.2386 -0.3272
  220loPI   C1A 3511  15.103   1.119   9.815  0.1116  0.0305  0.0545
  220loPI   C2A 3512  15.140   1.257   9.390 -0.0384 -0.1979  0.0539
  220loPI   C3A 3513  15.054   1.181   8.955 -0.2625 -0.0325  0.3747
  220loPI   C4A 3514  15.117   1.244   8.578  0.1189  0.0033 -0.2571
  220loPI   C5A 3515  15.361   1.149   8.282 -0.0105 -0.0845  0.2291
  220loPI   C6A 3516  15.833   1.190   8.211  0.1566 -0.1613  0.0829
  220loPI   C1B 3517  15.174   0.624   9.621  0.0650  0.4020 -0.1216
  220loPI   C2B 3518  15.112   0.690   9.185 -0.0121  0.1209 -0.0635
  220loPI   C3B 3519  15.162   0.729   8.721  0.0574  0.3654  0.1505
  220loPI   C4B 3520  15.135   0.377   8.387  0.0427  0.0672 -0.1466
  221loPI    C1 3521  15.144   2.261  10.871 -0.0031 -0.1150  0.0057
  221loPI    C2 3522  14.856   2.383  11.120  0.0520  0.2070 -0.0846
  221loPI    C3 3523  15.180   2.199  11.264  0.0195  0.2668  0.0670
  221loPI   PO4 3524  14.989   2.206  10.639 -0.0312 -0.0752  0.0031
  221loPI   GL1 3525  15.158   2.140  10.249  0.2271 -0.0977 -0.0706
  221loPI   GL2 3526  15.107   2.457  10.211  0.1407  0.1479  0.2027
  221loPI   C1A 3527  15.185   2.049   9.828  0.1723 -0.1916  0.2185
  221loPI   C2A 3528  15.387   2.059   9.450  0.1184  0.0179  0.0041
  221loPI   C3A 3529  15.391   2.065   9.007  0.0474  0.0387 -0.0258
  221loPI   C4A 3530  15.453   2.180   8.650  0.1214 -0.3136  0.3197
  221loPI   C5A 3531  15.680   2.101   8.304 -0.1280 -0.0649 -0.0649
  221loPI   C6A 3532  15.663   2.023   7.893  0.0447  0.0630 -0.0287
  221loPI   C1B 3533  15.224   2.503   9.679  0.0343 -0.0352  0.0954
  221loPI   C2B 3534  15.228   2.488   9.231  0.1392  0.2375  0.2450
  221loPI   C3B 3535  15.331   2.653   8.811 -0.1405 -0.3373 -0.3172
  221loPI   C4B 3536  15.253   2.617   8.425 -0.1317  0.1857  0.0444
  222loPI    C1 3537  10.870  15.677  10.486  0.1755 -0.2848  0.0448
  222loPI    C2 3538  11.250  15.791  10.435  0.0671  0.0676  0.0016
  222loPI    C3 3539  11.110  15.723  10.803  0.0674  0.3218  0.0508
  222loPI   PO4 3540  10.626  15.806  10.312  0.1947  0.1641 -0.3166
  222loPI   GL1 3541  10.212  15.627  10.133 -0.0201 -0.1411 -0.1317
  222loPI   GL2 3542  10.174  15.991  10.059  0.0656 -0.6164 -0.0050
  222loPI   C1A 3543  10.416  15.565   9.747 -0.0144  0.3616  0.0102
  222loPI   C2A 3544  10.503  15.526   9.384 -0.0471  0.2137  0.1492
  222loPI   C3A 3545  10.499  15.431   8.972  0.1969 -0.0956  0.1581
  222loPI   C4A 3546  10.547  15.353   8.491 -0.1596 -0.2041  0.1772
  222loPI   C5A 3547  10.342  15.119   8.218 -0.0531  0.1896 -0.3556
  222loPI   C6A 3548  10.262  14.772   8.035  0.0409  0.1647  0.1147
  222loPI   C1B 3549  10.273  16.062   9.645 -0.0985 -0.0665 -0.1300
  222loPI   C2B 3550  10.354  15.956   9.266  0.0727  0.0884  0.1939
  222loPI   C3B 3551  10.225  16.052   8.846  0.0612 -0.0772 -0.4288
  222loPI   C4B 3552   9.963  16.019   8.527 -0.0339  0.1186  0.0940
  223loPI    C1 3553   3.145  11.307  11.090  0.1393 -0.1098  0.1124
  223loPI    C2 3554   2.937  10.986  10.973  0.0903 -0.0277 -0.0289
  223loPI    C3 3555   3.111  10.991  11.334  0.0659 -0.2000 -0.0136
  223loPI   PO4 3556   3.279  11.364  10.864 -0.3306 -0.2839 -0.0995
  223loPI   GL1 3557   3.081  11.155  10.451  0.1439  0.0666 -0.1798
  223loPI   GL2 3558   3.367  10.947  10.461  0.1415 -0.1649  0.0225
  223loPI   C1A 3559   3.164  11.242   9.962  0.1281  0.1421 -0.3180
  223loPI   C2A 3560   3.391  11.321   9.590  0.1979  0.2137  0.0058
  223loPI   C3A 3561   3.558  11.307   9.120 -0.1545  0.0043 -0.2168
  223loPI   C4A 3562   3.687  11.159   8.718  0.0072  0.4830 -0.1474
  223loPI   C5A 3563   3.962  10.877   8.595 -0.0133  0.2303 -0.2789
  223loPI   C6A 3564   4.088  10.674   8.266 -0.2293 -0.1443 -0.0730
  223loPI   C1B 3565   3.347  10.807  10.067 -0.1073 -0.2613  0.0134
  223loPI   C2B 3566   3.450  10.830   9.577  0.4032  0.1700 -0.2482
  223loPI   C3B 3567   3.580  10.724   9.184  0.0145 -0.2327  0.0125
  223loPI   C4B 3568   3.554  10.588   8.766 -0.1615  0.0037  0.2589
  224loPI    C1 3569   3.285  12.717  11.205 -0.2695  0.1603  0.0365
  224loPI    C2 3570   3.161  12.703  11.585 -0.1709  0.2409  0.0721
  224loPI    C3 3571   3.352  13.027  11.449  0.0115  0.1132  0.0214
  224loPI   PO4 3572   3.087  12.691  10.992 -0.2945  0.0945  0.0765
  224loPI   GL1 3573   3.142  12.508  10.580 -0.2209 -0.0801  0.1294
  224loPI   GL2 3574   3.429  12.606  10.354  0.1299 -0.1118  0.1914
  224loPI   C1A 3575   2.926  12.855  10.257  0.1680 -0.1327  0.2351
  224loPI   C2A 3576   2.708  12.988   9.943 -0.1788 -0.3412 -0.0609
  224loPI   C3A 3577   2.855  13.307   9.629 -0.1146  0.1030  0.1944
  224loPI   C4A 3578   2.840  13.548   9.337 -0.0090 -0.2993  0.0999
  224loPI   C5A 3579   2.687  13.668   8.843 -0.4149  0.0307 -0.0165
  224loPI   C6A 3580   2.532  13.335   8.451 -0.1103 -0.2692 -0.0006
  224loPI   C1B 3581   3.216  12.676   9.866 -0.2257 -0.0642 -0.0965
  224loPI   C2B 3582   2.895  12.794   9.483 -0.0130 -0.2126  0.0786
  224loPI   C3B 3583   2.893  12.990   9.121 -0.0296  0.1182 -0.3010
  224loPI   C4B 3584   3.041  13.281   8.767  0.0489 -0.4353  0.0251
  225loPI    C1 3585  17.123   3.575  10.701  0.2356  0.1992 -0.2130
  225loPI    C2 3586  16.994   3.796  11.008 -0.1109 -0.2623 -0.0136
  225loPI    C3 3587  17.386   3.760  10.938 -0.0298 -0.1021  0.3354
  225loPI   PO4 3588  16.945   3.642  10.440 -0.1341 -0.0402  0.3072
  225loPI   GL1 3589  17.012   3.516  10.054 -0.1287 -0.0503 -0.2008
  225loPI   GL2 3590  17.204   3.223  10.329 -0.2743  0.1129 -0.0950
  225loPI   C1A 3591  17.179   3.409   9.554  0.0882  0.0597 -0.1809
  225loPI   C2A 3592  17.322   3.332   9.145  0.2868  0.0102  0.0952
  225loPI   C3A 3593  17.413   3.314   8.765  0.3384 -0.1910 -0.2698
  225loPI   C4A 3594  17.210   3.515   8.321  0.0644  0.2004 -0.0706
  225loPI   C5A 3595  17.177   3.715   7.940  0.0485  0.1543 -0.0644
  225loPI   C6A 3596  17.114   3.639   7.464 -0.0911 -0.2462  0.2004
  225loPI   C1B 3597  17.437   3.118   9.937  0.1380 -0.3890 -0.0024
  225loPI   C2B 3598  17.465   2.923   9.440 -0.0016 -0.0502  0.0174
  225loPI   C3B 3599  17.445   2.780   9.041  0.3330  0.3669 -0.1923
  225loPI   C4B 3600  17.502   2.710   8.654  0.0376 -0.2492 -0.0812
  226loPI    C1 3601  17.692   3.123  10.381  0.1394 -0.0333 -0.0754
  226loPI    C2 3602  17.973   3.312  10.594  0.0494 -0.2377  0.2315
  226loPI    C3 3603  17.587   3.361  10.685  0.0137 -0.3800  0.1590
  226loPI   PO4 3604  17.867   2.864  10.354  0.1343 -0.1420  0.3347
  226loPI   GL1 3605  17.938   2.536  10.165 -0.1855  0.0028  0.0342
  226loPI   GL2 3606  18.250   2.547  10.099 -0.2421  0.1401  0.1635
  226loPI   C1A 3607  17.622   2.563   9.802  0.2073 -0.1351  0.0683
  226loPI   C2A 3608  17.517   2.387   9.310 -0.0801  0.0679  0.0353
  226loPI   C3A 3609  17.696   2.256   8.933 -0.4106  0.2536  0.2797
  226loPI   C4A 3610  17.895   2.446   8.569 -0.0231  0.0882  0.1902
  226loPI   C5A 3611  18.033   2.746   8.169  0.2135  0.0733 -0.0997
  226loPI   C6A 3612  17.932   2.965   7.800  0.0577  0.2791  0.0513
  226loPI   C1B 3613  18.490   2.783   9.723 -0.0444  0.0905 -0.0916
  226loPI   C2B 3614  18.649   2.844   9.367 -0.0046 -0.2874  0.1981
  226loPI   C3B 3615  18.798   3.004   8.987 -0.1476  0.0071 -0.0379
  226loPI   C4B 3616  18.810   3.064   8.514 -0.0977 -0.2021 -0.2332
  227loPI    C1 3617  17.451   6.287  10.712  0.4408 -0.1439  0.2165
  227loPI    C2 3618  17.541   6.169  11.084 -0.1558  0.1278  0.4596
  227loPI    C3 3619  17.314   6.494  11.026  0.2672  0.3312 -0.1596
  227loPI   PO4 3620  17.449   5.980  10.562  0.2104  0.0476  0.0532
  227loPI   GL1 3621  17.285   5.784  10.174 -0.0032  0.1699  0.2101
  227loPI   GL2 3622  17.183   5.994   9.991 -0.0008  0.1459 -0.0282
  227loPI   C1A 3623  17.210   5.542   9.744  0.2793  0.3273  0.0187
  227loPI   C2A 3624  17.228   5.420   9.265 -0.0540 -0.0365 -0.0315
  227loPI   C3A 3625  17.092   5.133   9.034 -0.3005  0.0435  0.1795
  227loPI   C4A 3626  16.836   4.982   8.721 -0.1721 -0.0156 -0.0825
  227loPI   C5A 3627  16.583   5.048   8.323  0.0926 -0.0854  0.0063
  227loPI   C6A 3628  16.450   4.685   8.045 -0.1551 -0.2075 -0.0562
  227loPI   C1B 3629  17.181   5.978   9.509  0.1234 -0.1047 -0.1762
  227loPI   C2B 3630  17.142   5.906   9.093  0.0013  0.1424  0.0540
  227loPI   C3B 3631  17.185   5.876   8.689 -0.0505 -0.2430 -0.0939
  227loPI   C4B 3632  17.496   5.694   8.286 -0.1952 -0.1744 -0.0188
  228loPI    C1 3633   8.046   6.245  10.518 -0.1382  0.0579 -0.0445
  228loPI    C2 3634   8.077   5.847  10.531  0.0707  0.0636 -0.3020
  228loPI    C3 3635   8.039   6.055  10.870 -0.0234 -0.1730 -0.1648
  228loPI   PO4 3636   7.881   6.275  10.367 -0.1043  0.0825  0.0249
  228loPI   GL1 3637   7.814   6.186  10.010  0.0801 -0.0564  0.0670
  228loPI   GL2 3638   7.576   6.345   9.993 -0.2333  0.1197 -0.1498
  228loPI   C1A 3639   7.547   5.855   9.823 -0.0454 -0.0999  0.1395
  228loPI   C2A 3640   7.257   5.725   9.545 -0.1005 -0.3287 -0.1000
  228loPI   C3A 3641   7.191   5.547   9.215 -0.1672 -0.1638 -0.1915
  228loPI   C4A 3642   7.132   5.285   8.789  0.2302  0.0488  0.1176
  228loPI   C5A 3643   7.251   5.102   8.358  0.1345  0.3276 -0.1481
  228loPI   C6A 3644   7.145   4.921   7.898 -0.0551 -0.1404  0.4339
  228loPI   C1B 3645   7.631   6.213   9.515 -0.0578  0.0109 -0.3660
  228loPI   C2B 3646   7.468   6.041   9.178  0.2419  0.3462 -0.2324
  228loPI   C3B 3647   7.140   5.913   8.885  0.1336  0.0847 -0.2840
  228loPI   C4B 3648   6.962   5.994   8.543  0.0884 -0.2972  0.1023
  229loPI    C1 3649   0.682  17.488  10.842 -0.1408  0.2183 -0.0664
  229loPI    C2 3650   0.900  17.775  11.016 -0.0312 -0.0020  0.1668
  229loPI    C3 3651   0.770  17.465  11.232  0.0112 -0.2250 -0.1219
  229loPI   PO4 3652   0.862  17.431  10.627 -0.1368 -0.0284  0.2301
  229loPI   GL1 3653   0.709  17.555  10.276 -0.0253 -0.0995  0.0880
  229loPI   GL2 3654   0.706  17.900  10.137 -0.0275 -0.1804  0.0796
  229loPI   C1A 3655   0.747  17.403   9.858  0.4961 -0.4053  0.0588
  229loPI   C2A 3656   0.966  17.402   9.486  0.1451  0.2150  0.1235
  229loPI   C3A 3657   0.911  17.474   9.097  0.0269  0.1463 -0.0331
  229loPI   C4A 3658   0.926  17.536   8.624  0.0352 -0.3388 -0.0225
  229loPI   C5A 3659   0.555  17.649   8.300 -0.1971  0.0709 -0.0197
  229loPI   C6A 3660   0.411  17.664   7.860  0.3627  0.1526 -0.0548
  229loPI   C1B 3661   0.716  17.944   9.714 -0.0688  0.0585 -0.0380
  229loPI   C2B 3662   1.020  17.947   9.430 -0.1965  0.0330 -0.3895
  229loPI   C3B 3663   1.150  17.917   8.995 -0.0846 -0.1768 -0.2191
  229loPI   C4B 3664   1.255  18.054   8.625  0.1194 -0.1296 -0.0007
  230loPI    C1 3665   1.608   0.755  10.789  0.0881  0.1359 -0.2103
  230loPI    C2 3666   1.847   1.023  10.967 -0.1937  0.1108  0.2200
  230loPI    C3 3667   1.451   1.081  10.959 -0.2339 -0.1640  0.0835
  230loPI   PO4 3668   1.655   0.720  10.588 -0.0749  0.3499 -0.0294
  230loPI   GL1 3669   2.006   0.712  10.295  0.2845 -0.0742 -0.0465
  230loPI   GL2 3670   2.091   1.014  10.359  0.3434 -0.1410  0.1328
  230loPI   C1A 3671   2.261   0.670   9.878 -0.0363 -0.0765  0.0567
  230loPI   C2A 3672   2.427   0.666   9.435  0.1846  0.2437 -0.1062
  230loPI   C3A 3673   2.518   0.633   9.000 -0.0040  0.1180 -0.0341
  230loPI   C4A 3674   2.656   0.823   8.667 -0.1636 -0.0530  0.0761
  230loPI   C5A 3675   2.701   1.275   8.396  0.2864  0.3661  0.1940
  230loPI   C6A 3676   2.623   1.681   8.398  0.0860  0.2064  0.0287
  230loPI   C1B 3677   2.405   1.110  10.031  0.0284 -0.0537  0.0736
  230loPI   C2B 3678   2.457   1.132   9.593  0.2193  0.1328  0.0017
  230loPI   C3B 3679   2.579   1.088   9.168 -0.3606  0.0206 -0.1166
  230loPI   C4B 3680   2.579   1.363   8.893  0.0459 -0.0737  0.1810
  231loPI    C1 3681   6.156  14.239  11.104  0.1763 -0.1259 -0.0409
  231loPI    C2 3682   6.299  14.337  11.464 -0.1610  0.0491  0.0495
  231loPI    C3 3683   6.074  14.009  11.421  0.0884 -0.1114 -0.0529
  231loPI   PO4 3684   6.296  14.276  10.921 -0.2388  0.0724  0.0729
  231loPI   GL1 3685   6.303  14.276  10.410  0.1191  0.0361 -0.0629
  231loPI   GL2 3686   6.094  14.396  10.253 -0.3117 -0.2320  0.1051
  231loPI   C1A 3687   6.408  13.993  10.185  0.0761 -0.1388 -0.1843
  231loPI   C2A 3688   6.409  14.024   9.677 -0.1933 -0.1372 -0.0129
  231loPI   C3A 3689   6.374  13.979   9.313 -0.1853 -0.1927 -0.0949
  231loPI   C4A 3690   6.137  13.929   8.925 -0.2321 -0.1068  0.0082
  231loPI   C5A 3691   6.221  13.833   8.416  0.1126 -0.0628  0.1338
  231loPI   C6A 3692   6.205  13.465   8.259 -0.0501  0.0696  0.1199
  231loPI   C1B 3693   6.122  14.360   9.856  0.1162  0.1110 -0.1922
  231loPI   C2B 3694   6.031  14.383   9.436 -0.1620 -0.3016  0.0553
  231loPI   C3B 3695   6.078  14.471   8.987  0.1047 -0.1041 -0.2106
  231loPI   C4B 3696   6.081  14.360   8.526  0.0555 -0.1776  0.0713
  232loPI    C1 3697   0.336  16.195  10.501  0.0505 -0.0811  0.0070
  232loPI    C2 3698   0.392  16.202  10.897 -0.0823 -0.1362  0.0271
  232loPI    C3 3699   0.703  16.251  10.650  0.0006 -0.1008  0.1380
  232loPI   PO4 3700   0.006  16.272  10.469  0.0502  0.4251  0.2098
  232loPI   GL1 3701  -0.140  16.675  10.365 -0.2478 -0.0001  0.1236
  232loPI   GL2 3702  -0.418  16.726  10.155  0.0442 -0.1842 -0.0793
  232loPI   C1A 3703   0.131  16.645   9.987  0.1940 -0.1800 -0.1165
  232loPI   C2A 3704   0.060  16.708   9.557  0.2255  0.0253  0.0463
  232loPI   C3A 3705   0.004  16.836   9.115  0.0818  0.1578  0.0818
  232loPI   C4A 3706   0.038  16.624   8.776 -0.0088 -0.3711  0.1113
  232loPI   C5A 3707   0.185  16.692   8.324  0.1002  0.2550  0.1916
  232loPI   C6A 3708  -0.038  16.775   8.028 -0.1620 -0.2149 -0.0380
  232loPI   C1B 3709  -0.354  16.728   9.793 -0.2822 -0.1671 -0.2266
  232loPI   C2B 3710  -0.561  16.555   9.492 -0.0633 -0.2116 -0.2276
  232loPI   C3B 3711  -0.986  16.351   9.477  0.4276  0.0409 -0.0705
  232loPI   C4B 3712  -1.289  16.248   9.768  0.1351  0.1838  0.0738
  233loPI    C1 3713   8.402   9.436  10.841  0.0894  0.1583 -0.3051
  233loPI    C2 3714   8.363   9.725  11.115  0.0360 -0.1675  0.0391
  233loPI    C3 3715   8.727   9.607  10.999  0.0577  0.0774 -0.1501
  233loPI   PO4 3716   8.281   9.535  10.614  0.0965  0.0882  0.0200
  233loPI   GL1 3717   8.297   9.813  10.237 -0.3404 -0.1051  0.0117
  233loPI   GL2 3718   8.360  10.063  10.152  0.0912  0.0070 -0.2942
  233loPI   C1A 3719   7.959   9.726   9.948  0.0507 -0.0926  0.0145
  233loPI   C2A 3720   7.729   9.739   9.548 -0.1965  0.1196  0.0196
  233loPI   C3A 3721   7.698   9.807   9.123  0.1494 -0.2537  0.2697
  233loPI   C4A 3722   7.686  10.123   8.837 -0.0142 -0.0898  0.0716
  233loPI   C5A 3723   7.563  10.179   8.373 -0.0863  0.1607  0.0272
  233loPI   C6A 3724   7.437  10.240   7.964 -0.0328 -0.0235  0.1283
  233loPI   C1B 3725   8.296  10.008   9.717  0.2493  0.1302  0.0310
  233loPI   C2B 3726   8.173   9.964   9.232  0.1548 -0.0133  0.2144
  233loPI   C3B 3727   8.182   9.929   8.804 -0.0176  0.0490  0.0916
  233loPI   C4B 3728   7.994   9.916   8.471 -0.1419 -0.1453  0.2810
  234loPI    C1 3729  12.388   3.437  10.326  0.1502  0.1618 -0.0227
  234loPI    C2 3730  12.148   3.720  10.474 -0.0393  0.1436 -0.2884
  234loPI    C3 3731  12.375   3.501  10.720 -0.2238  0.2247 -0.0422
  234loPI   PO4 3732  12.520   3.580  10.180 -0.2144 -0.0195 -0.0506
  234loPI   GL1 3733  12.431   3.832   9.910 -0.2378  0.0541  0.2264
  234loPI   GL2 3734  12.643   4.037  10.017  0.1785  0.0614 -0.0274
  234loPI   C1A 3735  12.720   3.735   9.604 -0.0893  0.0985  0.0240
  234loPI   C2A 3736  12.921   3.681   9.147 -0.1705  0.0420  0.1767
  234loPI   C3A 3737  12.894   3.697   8.731 -0.1819  0.1060  0.0150
  234loPI   C4A 3738  12.583   3.758   8.474 -0.1992  0.1680  0.0545
  234loPI   C5A 3739  12.156   3.774   8.176  0.1152 -0.3817  0.0617
  234loPI   C6A 3740  12.097   3.660   7.817  0.3099 -0.0951  0.0502
  234loPI   C1B 3741  12.848   4.269   9.630 -0.2286  0.1583  0.1048
  234loPI   C2B 3742  12.861   4.394   9.086  0.1948  0.1732 -0.0868
  234loPI   C3B 3743  12.775   4.520   8.629  0.1246 -0.0856  0.0587
  234loPI   C4B 3744  12.892   4.602   8.217  0.2224  0.0984  0.3549
  235loPI    C1 3745   1.072   8.029  10.772 -0.0442 -0.0205  0.1691
  235loPI    C2 3746   1.172   8.392  10.909 -0.1227  0.1121 -0.1161
  235loPI    C3 3747   1.053   8.107  11.164  0.0274  0.2567  0.1196
  235loPI   PO4 3748   0.900   8.067  10.518 -0.1200 -0.0162 -0.2056
  235loPI   GL1 3749   0.886   7.942  10.144  0.0685 -0.6372 -0.0081
  235loPI   GL2 3750   1.172   7.831  10.025 -0.0806  0.1099  0.2246
  235loPI   C1A 3751   0.678   7.794   9.802  0.2177 -0.0731  0.0830
  235loPI   C2A 3752   0.618   7.881   9.403 -0.0676 -0.0372  0.0329
  235loPI   C3A 3753   0.735   7.688   9.127 -0.0323  0.0575  0.2721
  235loPI   C4A 3754   0.677   7.604   8.674 -0.0169  0.1046  0.3169
  235loPI   C5A 3755   0.484   7.745   8.235  0.3629 -0.2087 -0.2138
  235loPI   C6A 3756   0.090   7.847   8.231  0.1206  0.1680 -0.1245
  235loPI   C1B 3757   1.048   8.025   9.589 -0.2002 -0.2466  0.0273
  235loPI   C2B 3758   1.176   7.956   9.171 -0.1967  0.5377 -0.1199
  235loPI   C3B 3759   1.158   7.819   8.735 -0.0496 -0.0017 -0.1311
  235loPI   C4B 3760   1.469   7.556   8.591 -0.0940  0.4551  0.0314
  236loPI    C1 3761  13.126   4.757  10.580  0.1340 -0.1251 -0.2638
  236loPI    C2 3762  12.832   4.564  10.769  0.1327  0.0676 -0.0646
  236loPI    C3 3763  13.199   4.405  10.756  0.0798 -0.0533 -0.0959
  236loPI   PO4 3764  13.022   4.858  10.307  0.0675  0.0497 -0.0782
  236loPI   GL1 3765  12.894   4.753   9.896  0.0599  0.3581 -0.1416
  236loPI   GL2 3766  12.617   4.860   9.984 -0.0168 -0.0810  0.1616
  236loPI   C1A 3767  13.105   5.086   9.651 -0.1489  0.2227 -0.0888
  236loPI   C2A 3768  13.163   5.219   9.233  0.1401  0.0081  0.2242
  236loPI   C3A 3769  13.231   5.313   8.814 -0.1471 -0.1860 -0.2667
  236loPI   C4A 3770  13.351   5.441   8.372  0.1116 -0.1147 -0.1660
  236loPI   C5A 3771  13.468   5.787   8.078  0.0346  0.1146  0.1158
  236loPI   C6A 3772  13.314   6.130   7.820 -0.2850 -0.0249  0.0360
  236loPI   C1B 3773  12.401   4.990   9.656 -0.1815 -0.0861  0.2969
  236loPI   C2B 3774  12.466   5.115   9.196 -0.0774  0.0411 -0.0459
  236loPI   C3B 3775  12.452   5.109   8.722  0.1323 -0.0684  0.2456
  236loPI   C4B 3776  12.704   5.038   8.425  0.0615  0.2964 -0.3397
  237loPI    C1 3777   1.791   3.626  10.809 -0.1706 -0.1278 -0.1256
  237loPI    C2 3778   1.485   3.539  11.050 -0.1029 -0.0340 -0.0046
  237loPI    C3 3779   1.821   3.322  11.067 -0.0624  0.0328  0.0538
  237loPI   PO4 3780   1.781   3.634  10.609  0.2130  0.0343 -0.1765
  237loPI   GL1 3781   1.910   3.832  10.291 -0.1050 -0.2189 -0.1172
  237loPI   GL2 3782   1.623   3.969  10.236  0.0158  0.1572 -0.0992
  237loPI   C1A 3783   2.066   3.504   9.993  0.3045 -0.2325 -0.2121
  237loPI   C2A 3784   2.211   3.494   9.559  0.1816  0.1594  0.0946
  237loPI   C3A 3785   2.322   3.563   9.128  0.2212  0.2608 -0.1009
  237loPI   C4A 3786   2.291   3.407   8.600  0.0840 -0.0655  0.2129
  237loPI   C5A 3787   2.507   3.235   8.259 -0.0035  0.2453  0.2444
  237loPI   C6A 3788   2.387   2.965   7.949 -0.1914 -0.2060  0.2228
  237loPI   C1B 3789   1.700   3.847   9.760 -0.1046 -0.2495  0.0792
  237loPI   C2B 3790   1.870   3.869   9.389 -0.0730 -0.0352  0.2908
  237loPI   C3B 3791   2.006   3.921   9.014  0.1857 -0.0809  0.0885
  237loPI   C4B 3792   2.082   3.839   8.658  0.2133  0.0154 -0.0274
  238loPI    C1 3793   3.248   7.750  10.596 -0.1547  0.0838 -0.0092
  238loPI    C2 3794   2.923   7.517  10.591 -0.0803 -0.0189 -0.1006
  238loPI    C3 3795   2.988   7.762  10.900 -0.2163 -0.0376 -0.0563
  238loPI   PO4 3796   3.381   7.586  10.465  0.2890  0.2000 -0.4058
  238loPI   GL1 3797   3.747   7.552  10.179 -0.1970 -0.0450  0.1125
  238loPI   GL2 3798   3.622   7.943  10.187  0.1716  0.4142  0.5089
  238loPI   C1A 3799   3.505   7.493   9.853 -0.0169  0.2397  0.1989
  238loPI   C2A 3800   3.402   7.374   9.430  0.1322  0.1325 -0.1484
  238loPI   C3A 3801   3.269   7.275   9.017  0.1249  0.1171  0.1562
  238loPI   C4A 3802   3.241   7.219   8.551  0.1994 -0.0808  0.0637
  238loPI   C5A 3803   3.526   6.927   8.381 -0.0577 -0.1468  0.0728
  238loPI   C6A 3804   3.791   6.884   8.095 -0.0193 -0.1461 -0.1054
  238loPI   C1B 3805   3.534   7.980   9.770  0.1346 -0.0578  0.0500
  238loPI   C2B 3806   3.365   7.869   9.362  0.0915 -0.3022 -0.0211
  238loPI   C3B 3807   3.312   7.842   8.956  0.1272  0.0532  0.4526
  238loPI   C4B 3808   3.568   8.050   8.639 -0.1869  0.3015  0.0542
  239loPI    C1 3809   4.725  11.094  10.710 -0.1180 -0.0735  0.1341
  239loPI    C2 3810   4.877  11.401  10.503 -0.0898 -0.2378 -0.0935
  239loPI    C3 3811   4.998  11.333  10.879  0.1328 -0.1542 -0.1482
  239loPI   PO4 3812   4.651  10.865  10.581 -0.0499  0.2250  0.1975
  239loPI   GL1 3813   4.789  10.632  10.286  0.2986  0.2216 -0.1817
  239loPI   GL2 3814   5.001  10.968  10.228  0.1927 -0.1059  0.1688
  239loPI   C1A 3815   4.971  10.446  10.034 -0.0681 -0.3001 -0.0475
  239loPI   C2A 3816   4.879  10.301   9.701  0.3340  0.0327 -0.0914
  239loPI   C3A 3817   5.042  10.493   9.318 -0.2990  0.1033  0.3885
  239loPI   C4A 3818   5.313  10.301   8.944 -0.1317  0.2423 -0.0945
  239loPI   C5A 3819   5.307  10.050   8.558  0.0977  0.0926  0.2785
  239loPI   C6A 3820   4.962   9.943   8.435 -0.1607  0.0036 -0.1159
  239loPI   C1B 3821   4.899  10.874   9.698  0.0082 -0.1152 -0.1736
  239loPI   C2B 3822   4.891  10.936   9.192  0.4211 -0.0262  0.1562
  239loPI   C3B 3823   4.855  10.836   8.836  0.1734 -0.1140  0.0019
  239loPI   C4B 3824   5.107  10.653   8.461  0.1272  0.1735  0.1193
  240loPI    C1 3825   7.324   4.674  10.668  0.1252 -0.0203 -0.0606
  240loPI    C2 3826   7.367   4.370  10.924 -0.0226  0.0949  0.1040
  240loPI    C3 3827   7.645   4.657  10.906  0.2020 -0.1332 -0.1712
  240loPI   PO4 3828   7.130   4.533  10.483 -0.0532  0.1146 -0.0240
  240loPI   GL1 3829   6.938   4.527  10.114 -0.1174 -0.2691  0.3667
  240loPI   GL2 3830   7.212   4.355  10.011  0.2546  0.3290  0.0830
  240loPI   C1A 3831   6.882   4.457   9.688 -0.0854 -0.0295 -0.0876
  240loPI   C2A 3832   6.859   4.558   9.257 -0.0735 -0.1387  0.0555
  240loPI   C3A 3833   6.690   4.786   8.885 -0.2009  0.1267 -0.2322
  240loPI   C4A 3834   6.852   4.867   8.494  0.0621  0.0423 -0.1561
  240loPI   C5A 3835   6.716   5.204   8.150 -0.0081  0.1131 -0.0134
  240loPI   C6A 3836   6.494   5.449   7.877  0.2302  0.0411  0.3283
  240loPI   C1B 3837   7.451   4.259   9.698 -0.3810  0.1788 -0.1468
  240loPI   C2B 3838   7.740   4.122   9.383 -0.1737  0.2755  0.1056
  240loPI   C3B 3839   7.810   4.150   8.943 -0.2462  0.3247 -0.1140
  240loPI   C4B 3840   8.032   4.162   8.479  0.1433  0.0012  0.1282
  241loPI    C1 3841   3.582  12.238  10.978 -0.1840  0.0715  0.0377
  241loPI    C2 3842   3.910  12.010  10.955 -0.0680  0.2576 -0.2046
  241loPI    C3 3843   3.793  12.158  11.308  0.0199  0.0646 -0.0927
  241loPI   PO4 3844   3.418  12.055  10.804 -0.0818 -0.3215  0.2373
  241loPI   GL1 3845   3.260  11.972  10.344 -0.0066  0.0302  0.0339
  241loPI   GL2 3846   3.254  11.662  10.409 -0.3897 -0.0897  0.0684
  241loPI   C1A 3847   3.308  12.192   9.981 -0.2662 -0.3182  0.4396
  241loPI   C2A 3848   3.243  12.305   9.517 -0.3634  0.0411 -0.1736
  241loPI   C3A 3849   3.130  12.135   9.183  0.0323  0.0171 -0.0669
  241loPI   C4A 3850   3.244  12.090   8.899  0.0959  0.1774  0.0000
  241loPI   C5A 3851   3.471  12.281   8.510  0.3238 -0.3889 -0.0142
  241loPI   C6A 3852   3.617  12.408   8.090 -0.0630  0.0048 -0.1641
  241loPI   C1B 3853   3.500  11.645  10.001 -0.2740 -0.2049 -0.0318
  241loPI   C2B 3854   3.482  11.849   9.593 -0.2485  0.1183  0.1731
  241loPI   C3B 3855   3.552  11.826   9.204  0.1400  0.0459 -0.2901
  241loPI   C4B 3856   3.675  11.739   8.761  0.0710  0.2075 -0.3342
  242loPI    C1 3857   5.885  17.355  10.929 -0.0755  0.1716 -0.1138
  242loPI    C2 3858   6.155  17.366  11.225 -0.0535  0.0237 -0.1277
  242loPI    C3 3859   5.801  17.189  11.283 -0.0735  0.0497 -0.1702
  242loPI   PO4 3860   5.833  17.551  10.786 -0.3903  0.2299 -0.1748
  242loPI   GL1 3861   5.505  17.655  10.410 -0.1277 -0.0786  0.1249
  242loPI   GL2 3862   5.125  17.736  10.453  0.1946 -0.1717  0.2289
  242loPI   C1A 3863   5.474  17.629  10.031  0.1737  0.0072  0.0951
  242loPI   C2A 3864   5.348  17.674   9.647 -0.3501 -0.1874 -0.3969
  242loPI   C3A 3865   5.375  17.675   9.259  0.0534  0.0601 -0.0875
  242loPI   C4A 3866   5.241  17.812   8.825  0.0888  0.0096  0.0544
  242loPI   C5A 3867   5.085  18.043   8.441  0.0756 -0.1731 -0.1423
  242loPI   C6A 3868   4.668  18.196   8.362 -0.1031  0.2988  0.2751
  242loPI   C1B 3869   5.084  17.898  10.115 -0.0146 -0.1977 -0.1794
  242loPI   C2B 3870   5.005  17.980   9.634  0.0211 -0.0406 -0.1045
  242loPI   C3B 3871   4.966  18.069   9.218  0.0206 -0.1291 -0.0197
  242loPI   C4B 3872   4.728  18.056   8.866  0.1187  0.0123  0.3661
  243loPI    C1 3873   3.734  17.569  10.991 -0.0605 -0.0415  0.0018
  243loPI    C2 3874   3.589  17.276  11.220  0.0700 -0.1690 -0.0764
  243loPI    C3 3875   3.694  17.625  11.385  0.1094 -0.2393  0.0489
  243loPI   PO4 3876   3.536  17.492  10.789 -0.2151 -0.1104  0.0017
  243loPI   GL1 3877   3.441  17.385  10.438 -0.1113  0.0391 -0.0431
  243loPI   GL2 3878   3.737  17.228  10.328 -0.0885  0.0455  0.0748
  243loPI   C1A 3879   3.343  17.254   9.995  0.0449  0.0100 -0.0316
  243loPI   C2A 3880   3.431  17.304   9.647  0.1873  0.1056  0.0213
  243loPI   C3A 3881   3.474  17.261   9.210 -0.0152 -0.2531 -0.3165
  243loPI   C4A 3882   3.568  17.310   8.814  0.1184  0.4180 -0.0948
  243loPI   C5A 3883   3.727  17.383   8.306  0.1231 -0.0404 -0.0341
  243loPI   C6A 3884   4.156  17.491   8.416 -0.1370  0.4081 -0.3617
  243loPI   C1B 3885   3.704  17.599  10.042  0.0258  0.1425 -0.1446
  243loPI   C2B 3886   3.877  17.628   9.628 -0.0569 -0.2252 -0.1555
  243loPI   C3B 3887   3.985  17.557   9.244  0.2061 -0.0317  0.1520
  243loPI   C4B 3888   4.404  17.535   9.019  0.5127 -0.3277 -0.0959
  244loPI    C1 3889   5.079  13.101  11.341  0.2013  0.0999  0.0028
  244loPI    C2 3890   5.301  13.042  11.668  0.1119 -0.1893  0.0148
  244loPI    C3 3891   4.902  13.034  11.693  0.1051 -0.2357 -0.1055
  244loPI   PO4 3892   5.218  13.263  11.173 -0.0411 -0.0282 -0.0066
  244loPI   GL1 3893   5.155  13.347  10.705  0.1518 -0.1034  0.0315
  244loPI   GL2 3894   5.309  13.013  10.671 -0.0088 -0.0888 -0.1544
  244loPI   C1A 3895   5.351  13.430  10.325 -0.1569 -0.1627  0.1153
  244loPI   C2A 3896   5.209  13.351   9.876  0.3270  0.1766 -0.2457
  244loPI   C3A 3897   5.206  13.266   9.445 -0.1655  0.2363 -0.0043
  244loPI   C4A 3898   4.972  13.320   9.140 -0.1424  0.0428  0.3234
  244loPI   C5A 3899   5.132  13.340   8.701  0.0900 -0.0502  0.1063
  244loPI   C6A 3900   5.465  13.360   8.399  0.3216  0.1208  0.1544
  244loPI   C1B 3901   5.523  12.980  10.263 -0.0218  0.1595  0.1518
  244loPI   C2B 3902   5.590  13.018   9.902 -0.0058 -0.1542 -0.0334
  244loPI   C3B 3903   5.641  13.031   9.430  0.0112 -0.3051 -0.0905
  244loPI   C4B 3904   5.472  13.099   8.958  0.0201 -0.3445  0.0067
  245loPI    C1 3905  15.280   9.743  10.704  0.0947 -0.1798  0.0498
  245loPI    C2 3906  15.664   9.692  10.804  0.1796  0.1588 -0.0898
  245loPI    C3 3907  15.470  10.023  10.917 -0.0715 -0.0069 -0.0266
  245loPI   PO4 3908  15.277   9.608  10.421  0.2668 -0.3641 -0.1775
  245loPI   GL1 3909  15.458   9.670  10.105 -0.2863 -0.0552  0.1275
  245loPI   GL2 3910  15.570   9.848   9.857 -0.0428 -0.0893 -0.0670
  245loPI   C1A 3911  15.411   9.368   9.826  0.1455 -0.0992 -0.0818
  245loPI   C2A 3912  15.412   9.293   9.377  0.1291 -0.1415 -0.1561
  245loPI   C3A 3913  15.441   9.385   9.025  0.0912  0.3332 -0.0551
  245loPI   C4A 3914  15.290   9.642   8.684  0.3167  0.2625  0.1955
  245loPI   C5A 3915  15.261   9.852   8.393  0.0900  0.1367 -0.0331
  245loPI   C6A 3916  14.907   9.792   8.036  0.2028  0.0640 -0.1979
  245loPI   C1B 3917  15.505   9.843   9.445  0.0328  0.0481 -0.0407
  245loPI   C2B 3918  15.645   9.805   8.995  0.0175 -0.3463 -0.2641
  245loPI   C3B 3919  15.850   9.784   8.625 -0.0737  0.0207 -0.0821
  245loPI   C4B 3920  16.169   9.892   8.270  0.0458  0.1809 -0.0680
  246loPI    C1 3921   1.560   6.075  10.879  0.1312 -0.1389  0.1052
  246loPI    C2 3922   1.829   6.330  11.029 -0.0332  0.1009 -0.0015
  246loPI    C3 3923   1.475   6.465  10.902  0.0503 -0.1128 -0.4843
  246loPI   PO4 3924   1.729   5.832  10.830  0.1624 -0.0993  0.1410
  246loPI   GL1 3925   2.010   5.621  10.472  0.0996  0.2558 -0.0094
  246loPI   GL2 3926   1.896   5.876  10.313  0.2666 -0.2484 -0.1254
  246loPI   C1A 3927   1.773   5.483  10.042  0.1995  0.0644 -0.1053
  246loPI   C2A 3928   1.633   5.591   9.598  0.2029  0.0175  0.0201
  246loPI   C3A 3929   1.473   5.816   9.216 -0.2021 -0.1451 -0.3177
  246loPI   C4A 3930   1.448   5.788   8.772 -0.3227 -0.1073 -0.1768
  246loPI   C5A 3931   1.655   5.599   8.454  0.1227  0.0035  0.0725
  246loPI   C6A 3932   1.640   5.592   7.993  0.1270  0.0609  0.1847
  246loPI   C1B 3933   1.978   5.911   9.893  0.0805  0.0177  0.0269
  246loPI   C2B 3934   1.860   6.082   9.470  0.2655 -0.1459 -0.1731
  246loPI   C3B 3935   1.927   6.057   8.973 -0.0862 -0.0161 -0.2307
  246loPI   C4B 3936   2.017   5.877   8.626  0.0818  0.0457  0.3555
  247loPI    C1 3937  17.922  11.797  11.171 -0.1821 -0.1450 -0.2416
  247loPI    C2 3938  17.647  12.075  11.255  0.0516 -0.0042  0.0793
  247loPI    C3 3939  17.610  11.706  11.404  0.0009 -0.0053  0.0641
  247loPI   PO4 3940  17.976  11.883  10.868  0.4528  0.3496 -0.0367
  247loPI   GL1 3941  18.177  11.860  10.484  0.3746 -0.1243  0.3049
  247loPI   GL2 3942  18.247  11.504  10.490  0.0803  0.0799 -0.0920
  247loPI   C1A 3943  18.120  11.815  10.029  0.0077  0.1790 -0.0061
  247loPI   C2A 3944  18.015  11.835   9.539  0.1362 -0.0422 -0.1343
  247loPI   C3A 3945  18.022  12.104   9.122  0.1322  0.0403  0.2534
  247loPI   C4A 3946  18.345  11.974   8.776  0.1396  0.0967 -0.0794
  247loPI   C5A 3947  18.667  11.845   8.590 -0.2851 -0.1367  0.3204
  247loPI   C6A 3948  19.065  11.773   8.580  0.0617 -0.1207  0.2158
  247loPI   C1B 3949  18.316  11.322  10.121  0.2250 -0.0553 -0.0870
  247loPI   C2B 3950  18.509  11.627   9.779  0.1120 -0.2900 -0.0908
  247loPI   C3B 3951  18.650  11.825   9.454 -0.1836 -0.1214 -0.0106
  247loPI   C4B 3952  18.855  11.905   9.047 -0.2473 -0.0308 -0.0408
  248loPI    C1 3953  12.985  16.437  10.910 -0.2242 -0.0090 -0.1813
  248loPI    C2 3954  12.813  16.114  11.072 -0.1416  0.0976  0.1257
  248loPI    C3 3955  12.638  16.472  11.106  0.0356  0.1729  0.2609
  248loPI   PO4 3956  13.040  16.405  10.671 -0.0994  0.0948 -0.0460
  248loPI   GL1 3957  13.113  16.515  10.324 -0.0537 -0.0557  0.1784
  248loPI   GL2 3958  12.896  16.694  10.160  0.2042  0.2764 -0.0597
  248loPI   C1A 3959  13.215  16.398   9.916  0.1763  0.2178  0.1680
  248loPI   C2A 3960  13.350  16.411   9.649 -0.0946  0.0053  0.1865
  248loPI   C3A 3961  13.473  16.461   9.223 -0.2477 -0.3181  0.2402
  248loPI   C4A 3962  13.629  16.708   8.874 -0.0124  0.1955  0.1034
  248loPI   C5A 3963  13.451  16.845   8.578  0.0131 -0.2647 -0.0350
  248loPI   C6A 3964  13.203  16.774   8.174  0.0095  0.1370  0.2214
  248loPI   C1B 3965  12.987  16.780   9.723  0.1953 -0.1916  0.1078
  248loPI   C2B 3966  13.032  16.800   9.293  0.1212  0.0791 -0.0739
  248loPI   C3B 3967  13.115  16.693   8.890 -0.0558 -0.0265  0.2235
  248loPI   C4B 3968  13.223  16.363   8.599 -0.3754  0.0850 -0.0761
  249loPI    C1 3969   0.562   9.584  10.572  0.0994  0.1142 -0.2646
  249loPI    C2 3970   0.463   9.958  10.672 -0.0641  0.0225 -0.0746
  249loPI    C3 3971   0.730   9.757  10.892 -0.1537 -0.0545 -0.0360
  249loPI   PO4 3972   0.387   9.583  10.357  0.1383 -0.2110 -0.1066
  249loPI   GL1 3973   0.077   9.705  10.133  0.3186 -0.3468  0.0418
  249loPI   GL2 3974   0.074  10.008  10.193 -0.0182 -0.3254  0.2684
  249loPI   C1A 3975   0.200   9.798   9.663 -0.1709  0.0298  0.0108
  249loPI   C2A 3976   0.325   9.710   9.255 -0.0588  0.0000  0.1723
  249loPI   C3A 3977   0.325   9.758   8.909 -0.3186  0.0633 -0.0685
  249loPI   C4A 3978   0.561   9.656   8.571  0.3760 -0.0355 -0.2479
  249loPI   C5A 3979   0.412   9.586   8.078 -0.2394 -0.1033  0.3387
  249loPI   C6A 3980   0.442   9.302   7.724  0.1794  0.0866 -0.0515
  249loPI   C1B 3981   0.018  10.254   9.815 -0.2072  0.1194  0.0210
  249loPI   C2B 3982  -0.096  10.430   9.346  0.0972 -0.2579 -0.0298
  249loPI   C3B 3983  -0.312  10.494   9.016 -0.0943 -0.1489 -0.1875
  249loPI   C4B 3984  -0.591  10.342   8.687 -0.0399  0.0424 -0.0296
  250loPI    C1 3985  13.642   2.623  10.699  0.0640  0.0205 -0.1201
  250loPI    C2 3986  13.580   2.865  11.011  0.0319  0.0677 -0.1630
  250loPI    C3 3987  13.524   2.471  11.050 -0.0811  0.0856 -0.1398
  250loPI   PO4 3988  13.874   2.686  10.514 -0.0508  0.3811 -0.0045
  250loPI   GL1 3989  13.954   2.629  10.137 -0.1953 -0.3045 -0.0602
  250loPI   GL2 3990  14.225   2.857  10.181 -0.1406 -0.2168 -0.1554
  250loPI   C1A 3991  13.662   2.571   9.846  0.5350  0.0608  0.0583
  250loPI   C2A 3992  13.715   2.574   9.411  0.0236 -0.0282  0.1059
  250loPI   C3A 3993  13.525   2.448   8.972 -0.0964  0.1430 -0.1044
  250loPI   C4A 3994  13.327   2.379   8.616 -0.0022  0.2346 -0.0882
  250loPI   C5A 3995  13.242   2.384   8.203  0.1084 -0.1636  0.0591
  250loPI   C6A 3996  13.373   2.182   7.849  0.0474  0.0465 -0.1867
  250loPI   C1B 3997  14.093   2.879   9.741  0.0332 -0.2333 -0.0734
  250loPI   C2B 3998  14.045   2.959   9.329 -0.0429 -0.4908 -0.3777
  250loPI   C3B 3999  14.005   2.694   9.016  0.0801 -0.3439  0.2293
  250loPI   C4B 4000  13.829   2.657   8.549 -0.1099  0.0442  0.2003
  251loPI    C1 4001   2.567  10.369  10.871  0.2002  0.1625 -0.1412
  251loPI    C2 4002   2.428  10.330  11.245  0.2441  0.0010 -0.1410
  251loPI    C3 4003   2.716  10.085  11.112  0.1680  0.0017 -0.3090
  251loPI   PO4 4004   2.603  10.624  10.846  0.1859  0.2184 -0.3334
  251loPI   GL1 4005   2.613  10.850  10.446  0.0792  0.0041 -0.3578
  251loPI   GL2 4006   2.379  10.639  10.225 -0.1692  0.0982 -0.0426
  251loPI   C1A 4007   2.857  10.710  10.054  0.2870 -0.2165  0.1545
  251loPI   C2A 4008   2.956  10.648   9.510 -0.1213  0.0945  0.1122
  251loPI   C3A 4009   3.128  10.574   9.121 -0.0827  0.0771 -0.0926
  251loPI   C4A 4010   3.094  10.336   8.754  0.2565 -0.2261 -0.1988
  251loPI   C5A 4011   3.058  10.016   8.371 -0.1324  0.1449  0.0556
  251loPI   C6A 4012   2.981   9.624   8.144 -0.1894 -0.1790  0.0486
  251loPI   C1B 4013   2.377  10.421   9.986 -0.1657 -0.1430  0.2529
  251loPI   C2B 4014   2.407  10.119   9.625 -0.1185  0.1374  0.1876
  251loPI   C3B 4015   2.513   9.811   9.246 -0.0015 -0.1080 -0.2933
  251loPI   C4B 4016   2.523   9.850   8.838 -0.2781  0.0006  0.0177
  252loPI    C1 4017   7.219  12.746  11.034  0.0441 -0.1287 -0.1799
  252loPI    C2 4018   7.340  12.367  10.998  0.1613 -0.1165  0.0628
  252loPI    C3 4019   6.958  12.447  11.083  0.1430 -0.1813  0.0425
  252loPI   PO4 4020   7.217  12.880  10.809 -0.0945 -0.0779  0.0150
  252loPI   GL1 4021   7.036  12.863  10.342  0.2014  0.3254  0.1227
  252loPI   GL2 4022   7.354  12.890  10.264 -0.3239  0.1074  0.0876
  252loPI   C1A 4023   6.962  12.766   9.963  0.2760  0.1461 -0.0570
  252loPI   C2A 4024   7.054  12.843   9.525 -0.0623  0.2805 -0.1290
  252loPI   C3A 4025   7.329  12.895   9.148 -0.0442 -0.0078 -0.0088
  252loPI   C4A 4026   7.537  13.187   8.858 -0.1059 -0.2273 -0.0473
  252loPI   C5A 4027   7.682  13.424   8.500  0.3029  0.3446  0.1284
  252loPI   C6A 4028   8.072  13.484   8.409  0.1432  0.0461  0.0172
  252loPI   C1B 4029   7.448  12.931   9.838 -0.1950  0.2448 -0.2548
  252loPI   C2B 4030   7.676  12.970   9.505  0.1235 -0.0283  0.0871
  252loPI   C3B 4031   7.826  13.245   9.217  0.1323 -0.0709 -0.1594
  252loPI   C4B 4032   8.031  13.229   8.834  0.2091 -0.0339 -0.3637
  253loPI    C1 4033  15.045  15.109  10.764 -0.1865 -0.2443 -0.0553
  253loPI    C2 4034  14.948  15.396  11.025 -0.0805 -0.1663 -0.1008
  253loPI    C3 4035  15.079  15.041  11.156  0.2432 -0.0313 -0.0495
  253loPI   PO4 4036  15.171  15.273  10.548 -0.2005  0.4732  0.3853
  253loPI   GL1 4037  15.254  15.200  10.035 -0.1883  0.1135 -0.2982
  253loPI   GL2 4038  15.045  15.486   9.928  0.2571 -0.0082  0.1040
  253loPI   C1A 4039  15.455  15.160   9.621 -0.3458 -0.0312 -0.0202
  253loPI   C2A 4040  15.401  15.184   9.232  0.0673  0.2756  0.0842
  253loPI   C3A 4041  15.276  15.212   8.799 -0.1782 -0.0657 -0.0167
  253loPI   C4A 4042  15.121  15.478   8.418 -0.2133 -0.1480  0.0290
  253loPI   C5A 4043  15.402  15.714   8.142 -0.2265 -0.2480 -0.1443
  253loPI   C6A 4044  15.630  15.957   7.809  0.1544  0.1004  0.1006
  253loPI   C1B 4045  14.946  15.579   9.523  0.2912  0.6166 -0.1216
  253loPI   C2B 4046  15.066  15.575   9.087  0.0964  0.1355 -0.0915
  253loPI   C3B 4047  15.247  15.812   8.829  0.1994  0.0019 -0.1615
  253loPI   C4B 4048  15.074  15.997   8.487  0.0174 -0.1449 -0.2340
  254loPI    C1 4049   2.869   1.494  11.143 -0.1423 -0.0051 -0.1398
  254loPI    C2 4050   3.100   1.761  11.332 -0.1406  0.0618 -0.2350
  254loPI    C3 4051   3.228   1.385  11.282  0.0279  0.1460 -0.4489
  254loPI   PO4 4052   2.807   1.603  10.873 -0.0759 -0.2015  0.1106
  254loPI   GL1 4053   2.902   1.518  10.466 -0.3592 -0.1324 -0.1854
  254loPI   GL2 4054   3.073   1.834  10.395  0.1475  0.0740 -0.4413
  254loPI   C1A 4055   2.863   1.442  10.027 -0.0850  0.2355 -0.1718
  254loPI   C2A 4056   2.888   1.300   9.655 -0.2159 -0.1914  0.0150
  254loPI   C3A 4057   2.998   1.312   9.199  0.0613  0.0682  0.0042
  254loPI   C4A 4058   3.050   1.268   8.826  0.0060  0.2230 -0.0421
  254loPI   C5A 4059   3.175   1.008   8.448 -0.0126 -0.1734 -0.1093
  254loPI   C6A 4060   3.373   0.963   8.121 -0.1671 -0.1907 -0.1151
  254loPI   C1B 4061   3.413   1.657  10.119  0.0130 -0.0537  0.0665
  254loPI   C2B 4062   3.296   1.615   9.653 -0.1045 -0.2954  0.0210
  254loPI   C3B 4063   3.423   1.594   9.227 -0.1283 -0.0019  0.0173
  254loPI   C4B 4064   3.590   1.389   8.845  0.0078  0.1083  0.0016
  255loPI    C1 4065  12.602  14.374  10.810 -0.0133  0.4003  0.0630
  255loPI    C2 4066  12.234  14.395  10.654  0.0130 -0.2099 -0.1056
  255loPI    C3 4067  12.290  14.228  11.013  0.1283 -0.1253 -0.0835
  255loPI   PO4 4068  12.782  14.251  10.582  0.2170  0.1386  0.1740
  255loPI   GL1 4069  12.711  14.034  10.203 -0.1002 -0.0231 -0.1405
  255loPI   GL2 4070  13.054  13.950  10.113 -0.0944 -0.0255  0.0682
  255loPI   C1A 4071  12.613  14.309   9.812  0.1139 -0.1040 -0.2637
  255loPI   C2A 4072  12.320  14.325   9.536  0.3057 -0.0174 -0.0819
  255loPI   C3A 4073  12.236  14.080   9.053 -0.0601 -0.2101  0.1656
  255loPI   C4A 4074  12.117  14.006   8.634  0.1756  0.2698  0.0110
  255loPI   C5A 4075  12.052  13.689   8.409  0.4113 -0.1055 -0.3468
  255loPI   C6A 4076  11.875  13.297   8.245  0.2606  0.1536 -0.3902
  255loPI   C1B 4077  12.950  13.908   9.651  0.0733 -0.3471 -0.0270
  255loPI   C2B 4078  12.555  13.806   9.376  0.0445  0.2641 -0.0045
  255loPI   C3B 4079  12.465  13.658   8.971  0.0472  0.0307  0.0289
  255loPI   C4B 4080  12.519  13.708   8.561  0.3882 -0.1402  0.2321
  256loPI    C1 4081  17.150   2.109  10.777 -0.2756  0.2034  0.1224
  256loPI    C2 4082  16.933   1.838  10.975  0.1424 -0.1372  0.1282
  256loPI    C3 4083  17.052   2.172  11.159  0.0062 -0.1601  0.2599
  256loPI   PO4 4084  17.040   2.084  10.514 -0.1508  0.1960 -0.2535
  256loPI   GL1 4085  17.168   1.996  10.096  0.1898  0.0315 -0.0455
  256loPI   GL2 4086  17.545   2.048  10.072  0.2384 -0.1930 -0.1158
  256loPI   C1A 4087  17.124   1.985   9.633 -0.4498  0.3771 -0.2797
  256loPI   C2A 4088  17.235   1.932   9.234 -0.0154 -0.3791  0.0201
  256loPI   C3A 4089  17.324   1.887   8.803  0.1990 -0.1198  0.0034
  256loPI   C4A 4090  17.445   1.801   8.419 -0.1408  0.0943  0.1640
  256loPI   C5A 4091  17.552   2.060   8.083  0.4045  0.1862  0.1301
  256loPI   C6A 4092  17.557   2.540   7.967  0.0217  0.3510 -0.1283
  256loPI   C1B 4093  17.584   2.010   9.609 -0.1017  0.2208 -0.0662
  256loPI   C2B 4094  17.732   1.850   9.232  0.1706  0.1576 -0.1335
  256loPI   C3B 4095  17.823   1.730   8.823  0.0308 -0.2960  0.1681
  256loPI   C4B 4096  17.898   1.902   8.470 -0.1419  0.0351 -0.0057
  257loPI    C1 4097   7.466  17.497  10.664  0.0253  0.2840 -0.0806
  257loPI    C2 4098   7.782  17.582  10.893  0.0258 -0.0827  0.0611
  257loPI    C3 4099   7.789  17.262  10.653 -0.1161  0.0913 -0.1795
  257loPI   PO4 4100   7.399  17.749  10.544 -0.1902  0.3490  0.1502
  257loPI   GL1 4101   7.236  18.033  10.166 -0.2058  0.2148 -0.2433
  257loPI   GL2 4102   6.951  17.806  10.269 -0.2214  0.3351 -0.1296
  257loPI   C1A 4103   7.356  18.120   9.672  0.1383 -0.0026  0.1986
  257loPI   C2A 4104   7.374  18.237   9.281 -0.0041  0.2782  0.0661
  257loPI   C3A 4105   7.361  18.116   8.763  0.0955  0.1761  0.0176
  257loPI   C4A 4106   7.147  17.947   8.467  0.2840  0.0173  0.0468
  257loPI   C5A 4107   6.789  17.694   8.238 -0.0805 -0.0169 -0.1139
  257loPI   C6A 4108   6.888  17.240   8.362  0.1758  0.0659 -0.1885
  257loPI   C1B 4109   6.846  17.912   9.895 -0.1224 -0.1176  0.0080
  257loPI   C2B 4110   6.908  18.023   9.452  0.0284  0.0458  0.0893
  257loPI   C3B 4111   6.988  18.006   9.043  0.1251 -0.2684 -0.3926
  257loPI   C4B 4112   6.722  18.033   8.702 -0.2064  0.1828 -0.4318
  258loPI    C1 4113   5.332  17.331  11.055 -0.0750  0.2085 -0.1954
  258loPI    C2 4114   4.982  17.142  11.092  0.0408 -0.0025 -0.1597
  258loPI    C3 4115   5.300  17.015  11.299  0.1192  0.2380 -0.1301
  258loPI   PO4 4116   5.347  17.326  10.814 -0.1070 -0.1079  0.0912
  258loPI   GL1 4117   5.600  17.191  10.429  0.3549  0.2588  0.0426
  258loPI   GL2 4118   5.908  17.052  10.516  0.0488  0.0262  0.0355
  258loPI   C1A 4119   5.779  17.175  10.004  0.1913  0.1513 -0.0128
  258loPI   C2A 4120   5.831  17.289   9.529  0.1511  0.2469 -0.0580
  258loPI   C3A 4121   5.747  17.324   9.171 -0.1484  0.1989 -0.0818
  258loPI   C4A 4122   5.598  17.439   8.788 -0.0394  0.1074 -0.2294
  258loPI   C5A 4123   5.788  17.621   8.479 -0.1620  0.2580 -0.3913
  258loPI   C6A 4124   6.126  17.929   8.606 -0.1007 -0.3374  0.1205
  258loPI   C1B 4125   6.196  17.154  10.260 -0.1795  0.1275 -0.4030
  258loPI   C2B 4126   6.584  17.032  10.233  0.1855 -0.0911  0.2047
  258loPI   C3B 4127   6.949  16.801  10.099  0.5864 -0.0718  0.4400
  258loPI   C4B 4128   7.254  16.506  10.085 -0.3950  0.1197 -0.3972
  259loPI    C1 4129   5.812   2.834  11.315  0.0892  0.0977 -0.0692
  259loPI    C2 4130   6.026   2.867  11.652 -0.0741 -0.0075  0.0464
  259loPI    C3 4131   5.671   3.049  11.622 -0.0946 -0.0614 -0.0405
  259loPI   PO4 4132   5.998   2.895  11.103 -0.0650  0.1060 -0.0213
  259loPI   GL1 4133   6.142   2.958  10.591  0.1546  0.0353  0.2225
  259loPI   GL2 4134   5.863   2.870  10.628  0.0479  0.1466 -0.0405
  259loPI   C1A 4135   6.457   2.905  10.168  0.0236  0.0311 -0.4397
  259loPI   C2A 4136   6.588   2.911   9.720 -0.1690  0.0169 -0.0209
  259loPI   C3A 4137   6.549   2.873   9.329  0.0123 -0.1625 -0.0009
  259loPI   C4A 4138   6.669   2.882   8.903 -0.1317  0.1022 -0.0647
  259loPI   C5A 4139   6.655   2.693   8.458 -0.0914  0.0027 -0.1537
  259loPI   C6A 4140   6.613   2.240   8.452 -0.1519  0.0232 -0.0948
  259loPI   C1B 4141   5.887   2.856  10.167 -0.0039  0.0666 -0.1656
  259loPI   C2B 4142   5.811   3.011   9.774  0.0513 -0.2352  0.0333
  259loPI   C3B 4143   5.733   3.030   9.304  0.2556  0.1745 -0.0313
  259loPI   C4B 4144   5.810   3.095   8.850 -0.0062 -0.1859  0.0392
  260loPI    C1 4145   3.391  16.615  10.904 -0.0319  0.1959 -0.1795
  260loPI    C2 4146   3.769  16.531  11.007 -0.0705  0.1470 -0.0766
  260loPI    C3 4147   3.546  16.768  11.240 -0.2227 -0.1264  0.0601
  260loPI   PO4 4148   3.347  16.376  10.749 -0.0127  0.0662 -0.2849
  260loPI   GL1 4149   3.462  16.280  10.364  0.1300 -0.0277  0.1678
  260loPI   GL2 4150   3.148  16.411  10.324  0.0007 -0.3248  0.2907
  260loPI   C1A 4151   3.760  16.423  10.024  0.3335 -0.0319  0.3115
  260loPI   C2A 4152   3.644  16.349   9.595 -0.1813  0.1338  0.0096
  260loPI   C3A 4153   3.497  16.246   9.250 -0.0795  0.2368 -0.1298
  260loPI   C4A 4154   3.406  16.131   8.905  0.1510 -0.1856 -0.1333
  260loPI   C5A 4155   3.211  16.113   8.418  0.1806  0.0151 -0.2034
  260loPI   C6A 4156   3.455  16.202   8.142  0.0026 -0.1793  0.2047
  260loPI   C1B 4157   3.186  16.454   9.906  0.0182 -0.2652 -0.0690
  260loPI   C2B 4158   3.101  16.410   9.513 -0.1115  0.2127  0.2917
  260loPI   C3B 4159   3.079  16.467   9.088 -0.1057 -0.0652  0.1084
  260loPI   C4B 4160   3.088  16.536   8.644  0.2171  0.2912  0.0081
  261loPI    C1 4161   6.581  12.160  11.055  0.2892  0.0036  0.1652
  261loPI    C2 4162   6.218  12.174  11.222  0.1887  0.0316 -0.0526
  261loPI    C3 4163   6.429  11.835  11.233  0.1081 -0.0179 -0.0251
  261loPI   PO4 4164   6.592  12.179  10.774  0.1509 -0.2049 -0.0113
  261loPI   GL1 4165   6.803  11.993  10.400 -0.1544  0.2592 -0.1008
  261loPI   GL2 4166   6.576  11.805  10.261 -0.1764  0.1550 -0.1458
  261loPI   C1A 4167   6.790  12.314  10.091 -0.1622  0.1176  0.1718
  261loPI   C2A 4168   6.899  12.324   9.606  0.0704 -0.0072 -0.2183
  261loPI   C3A 4169   7.044  12.504   9.182 -0.1589 -0.0975 -0.1325
  261loPI   C4A 4170   7.085  12.707   8.721 -0.3411  0.1400  0.0059
  261loPI   C5A 4171   7.290  12.830   8.389 -0.0867  0.1416  0.1525
  261loPI   C6A 4172   7.615  12.926   8.093  0.0266 -0.0404  0.0898
  261loPI   C1B 4173   6.650  11.888   9.764 -0.2194 -0.0717 -0.0316
  261loPI   C2B 4174   6.731  11.748   9.381 -0.0198 -0.4497  0.3429
  261loPI   C3B 4175   6.751  11.671   8.992 -0.1652 -0.2437  0.1081
  261loPI   C4B 4176   6.678  11.741   8.489 -0.3262  0.2571  0.2193
  262loPI    C1 4177  15.912  14.095  10.544  0.0545  0.1788  0.0553
  262loPI    C2 4178  16.115  13.973  10.867  0.3540  0.0368 -0.1820
  262loPI    C3 4179  15.837  13.736  10.704  0.0963  0.1701  0.0555
  262loPI   PO4 4180  16.165  14.101  10.328  0.2890  0.0940 -0.0786
  262loPI   GL1 4181  16.358  14.281   9.982 -0.2420 -0.1232  0.0597
  262loPI   GL2 4182  16.410  14.615   9.915 -0.2429 -0.1207  0.1451
  262loPI   C1A 4183  16.456  14.240   9.595 -0.1166 -0.2883  0.1359
  262loPI   C2A 4184  16.553  14.495   9.184  0.0411  0.0583  0.2246
  262loPI   C3A 4185  16.608  14.431   8.673 -0.2987  0.0788 -0.0203
  262loPI   C4A 4186  16.405  14.537   8.283 -0.0486 -0.0019 -0.0746
  262loPI   C5A 4187  16.230  14.871   7.978  0.0149  0.1695 -0.2413
  262loPI   C6A 4188  16.334  15.317   7.847 -0.0644  0.0140 -0.1822
  262loPI   C1B 4189  16.181  14.606   9.442  0.0445  0.1173 -0.1257
  262loPI   C2B 4190  16.154  14.728   9.017 -0.2393  0.1871  0.1419
  262loPI   C3B 4191  16.187  14.824   8.672  0.0864  0.4907 -0.0503
  262loPI   C4B 4192  15.904  14.836   8.383 -0.0087 -0.0895 -0.4257
  263loPI    C1 4193  16.769  10.298  10.379 -0.2523  0.1984  0.2807
  263loPI    C2 4194  17.062  10.388  10.637  0.0668  0.0294 -0.0143
  263loPI    C3 4195  16.920  10.014  10.617  0.0383  0.0435 -0.0780
  263loPI   PO4 4196  16.843  10.439  10.178  0.0767  0.0862  0.1153
  263loPI   GL1 4197  16.641  10.486   9.774 -0.2414 -0.0431 -0.0025
  263loPI   GL2 4198  16.353  10.298   9.725 -0.2165 -0.0218 -0.3047
  263loPI   C1A 4199  16.846  10.376   9.457  0.0811 -0.2015  0.3537
  263loPI   C2A 4200  17.273  10.370   9.337 -0.1495  0.0098  0.1128
  263loPI   C3A 4201  17.463  10.723   9.460  0.0129 -0.2268  0.2202
  263loPI   C4A 4202  17.649  11.018   9.215 -0.1700 -0.1631  0.2839
  263loPI   C5A 4203  18.032  11.292   9.072 -0.1213  0.1500  0.0447
  263loPI   C6A 4204  18.132  11.650   9.087 -0.0575  0.2629  0.1240
  263loPI   C1B 4205  16.214  10.415   9.351 -0.3533 -0.0136 -0.0825
  263loPI   C2B 4206  16.213  10.349   8.888 -0.0615 -0.0980 -0.0903
  263loPI   C3B 4207  16.079  10.358   8.455  0.0499  0.1345 -0.2255
  263loPI   C4B 4208  15.998  10.452   8.060 -0.2231 -0.0457 -0.0843
  264loPI    C1 4209  11.106   1.188  10.631  0.0774  0.2545 -0.0586
  264loPI    C2 4210  10.730   1.309  10.571 -0.0998 -0.0791  0.3302
  264loPI    C3 4211  10.964   1.503  10.831 -0.0873 -0.0275  0.2807
  264loPI   PO4 4212  11.143   1.075  10.409  0.1490 -0.1938  0.1336
  264loPI   GL1 4213  10.993   0.878  10.052  0.1772  0.4728  0.0938
  264loPI   GL2 4214  11.034   0.545  10.156  0.1157  0.1022 -0.1284
  264loPI   C1A 4215  10.914   0.772   9.701 -0.0772 -0.0827 -0.4853
  264loPI   C2A 4216  10.973   0.710   9.243  0.5510 -0.0043 -0.0191
  264loPI   C3A 4217  11.241   0.887   8.993 -0.1203  0.1923  0.1972
  264loPI   C4A 4218  11.422   0.912   8.526 -0.2361 -0.2995  0.1854
  264loPI   C5A 4219  11.568   1.083   8.077  0.1542 -0.2798 -0.1867
  264loPI   C6A 4220  11.910   0.968   7.875  0.0290  0.1325  0.0221
  264loPI   C1B 4221  11.133   0.298   9.738 -0.1931 -0.3081 -0.0743
  264loPI   C2B 4222  11.099   0.130   9.239  0.2046 -0.1197  0.0425
  264loPI   C3B 4223  11.186   0.197   8.816 -0.0709  0.2186  0.4331
  264loPI   C4B 4224  10.955   0.162   8.433  0.2259  0.2530 -0.1955
  265loPI    C1 4225  10.809  11.438  11.247 -0.1490  0.0127 -0.1685
  265loPI    C2 4226  10.706  11.723  11.509  0.2810  0.0348 -0.0159
  265loPI    C3 4227  10.938  11.418  11.625  0.0906 -0.2078 -0.2590
  265loPI   PO4 4228  10.841  11.532  10.958  0.0793 -0.1100 -0.0901
  265loPI   GL1 4229  10.893  11.497  10.535 -0.0059  0.1295  0.2019
  265loPI   GL2 4230  11.222  11.503  10.400  0.0435  0.2984 -0.1895
  265loPI   C1A 4231  10.728  11.698  10.126 -0.3958 -0.0209  0.0324
  265loPI   C2A 4232  10.673  11.628   9.739  0.2566  0.1514 -0.1527
  265loPI   C3A 4233  10.672  11.642   9.308  0.1174  0.0417  0.1281
  265loPI   C4A 4234  10.704  11.707   8.887  0.0911 -0.1740  0.2997
  265loPI   C5A 4235  10.405  11.996   8.615  0.1834  0.0657  0.1092
  265loPI   C6A 4236  10.229  12.210   8.341 -0.2471  0.3288  0.0578
  265loPI   C1B 4237  11.302  11.568  10.004  0.0584  0.0727  0.0063
  265loPI   C2B 4238  11.313  11.605   9.584  0.1703  0.0366  0.2422
  265loPI   C3B 4239  11.150  11.679   9.196 -0.1833 -0.2203  0.0053
  265loPI   C4B 4240  11.136  11.596   8.706  0.0548  0.0933 -0.2217
  266loPI    C1 4241   3.582   4.591  10.938 -0.1031  0.0286  0.1059
  266loPI    C2 4242   3.751   4.605  11.300  0.0932 -0.0036  0.0168
  266loPI    C3 4243   3.530   4.288  11.195  0.1469 -0.0557  0.0600
  266loPI   PO4 4244   3.874   4.641  10.781  0.0342  0.0676  0.1212
  266loPI   GL1 4245   4.034   4.876  10.384 -0.1151  0.0630  0.1911
  266loPI   GL2 4246   4.284   4.744  10.302 -0.2389 -0.0422  0.1506
  266loPI   C1A 4247   3.747   4.870  10.015  0.1058  0.0122 -0.1180
  266loPI   C2A 4248   3.730   4.709   9.572  0.1702  0.1699 -0.0815
  266loPI   C3A 4249   3.576   4.636   9.128  0.1371 -0.0472  0.0023
  266loPI   C4A 4250   3.541   4.783   8.705  0.1612 -0.1020  0.1793
  266loPI   C5A 4251   3.483   5.061   8.422  0.0239  0.2204 -0.0144
  266loPI   C6A 4252   3.340   4.864   7.982 -0.1221  0.0498  0.1176
  266loPI   C1B 4253   4.251   4.994   9.941 -0.1534  0.3822 -0.5735
  266loPI   C2B 4254   4.085   5.106   9.550 -0.5850  0.1802  0.0346
  266loPI   C3B 4255   4.355   5.119   9.119  0.2412  0.0443  0.0815
  266loPI   C4B 4256   4.432   4.774   8.783  0.1383  0.0867  0.0539
  267loPI    C1 4257  10.335  13.599  11.048  0.0042  0.0247 -0.0124
  267loPI    C2 4258  10.371  13.214  11.149 -0.1997 -0.0156 -0.0880
  267loPI    C3 4259  10.211  13.474  11.408 -0.0460  0.0223 -0.0302
  267loPI   PO4 4260  10.130  13.557  10.759 -0.0065  0.0412 -0.1745
  267loPI   GL1 4261  10.204  13.509  10.329 -0.3850 -0.5044 -0.0661
  267loPI   GL2 4262  10.413  13.635  10.132  0.0421 -0.0719 -0.2774
  267loPI   C1A 4263   9.912  13.575   9.984  0.1162  0.0431 -0.0859
  267loPI   C2A 4264   9.601  13.577   9.709  0.1953  0.2411 -0.1103
  267loPI   C3A 4265   9.513  13.474   9.235 -0.1661 -0.1689  0.0209
  267loPI   C4A 4266   9.329  13.483   8.827  0.0941 -0.0060 -0.1007
  267loPI   C5A 4267   8.925  13.592   8.650 -0.0846  0.0875  0.2366
  267loPI   C6A 4268   8.545  13.582   8.435  0.0692  0.0955 -0.2154
  267loPI   C1B 4269  10.353  13.200   9.967  0.0687  0.0558 -0.0389
  267loPI   C2B 4270  10.221  12.887   9.626  0.0918 -0.1649  0.0115
  267loPI   C3B 4271  10.252  12.638   9.200  0.2338  0.1677 -0.1369
  267loPI   C4B 4272  10.381  12.478   8.763 -0.4136 -0.2293  0.0881
  268loPI    C1 4273   9.926  15.331  10.725  0.0413  0.0583  0.1368
  268loPI    C2 4274   9.961  15.659  10.950 -0.2000  0.0733  0.1549
  268loPI    C3 4275  10.161  15.327  11.048  0.0248  0.2057  0.1510
  268loPI   PO4 4276   9.917  15.437  10.500 -0.0117 -0.0714 -0.0324
  268loPI   GL1 4277   9.775  15.352  10.164  0.2291  0.0603  0.2674
  268loPI   GL2 4278   9.663  15.091  10.039 -0.0933  0.3774  0.2032
  268loPI   C1A 4279   9.899  15.528   9.782 -0.1519 -0.0854  0.0537
  268loPI   C2A 4280  10.018  15.581   9.403 -0.0120 -0.0546 -0.0744
  268loPI   C3A 4281  10.019  15.623   9.002 -0.1665  0.2708 -0.0356
  268loPI   C4A 4282  10.079  15.516   8.627  0.1440 -0.0476  0.1179
  268loPI   C5A 4283   9.949  15.682   8.146  0.2193 -0.0255  0.1963
  268loPI   C6A 4284   9.965  15.685   7.787  0.2275 -0.1465 -0.1920
  268loPI   C1B 4285   9.698  15.126   9.594 -0.0466  0.1329  0.3272
  268loPI   C2B 4286   9.558  15.373   9.260 -0.4153 -0.0772  0.1161
  268loPI   C3B 4287   9.580  15.365   8.830  0.2017 -0.0150  0.2058
  268loPI   C4B 4288   9.578  15.385   8.411 -0.2938  0.1076 -0.1875
  269loPI    C1 4289   5.691   8.089  10.833 -0.0171 -0.2779  0.0682
  269loPI    C2 4290   6.077   8.168  10.764 -0.0606  0.0338  0.1699
  269loPI    C3 4291   5.947   8.115  11.139 -0.1386  0.0519  0.1457
  269loPI   PO4 4292   5.648   8.000  10.619 -0.0637  0.0041  0.4139
  269loPI   GL1 4293   5.445   8.217  10.327  0.2096 -0.3567  0.3521
  269loPI   GL2 4294   5.164   8.340  10.378  0.2403  0.0450 -0.1279
  269loPI   C1A 4295   5.401   7.877  10.018 -0.2190 -0.1203  0.2117
  269loPI   C2A 4296   5.478   7.926   9.590  0.1513  0.0781  0.0170
  269loPI   C3A 4297   5.323   7.989   9.211 -0.1042 -0.1230  0.1310
  269loPI   C4A 4298   5.122   7.945   8.814 -0.2151 -0.1533 -0.0003
  269loPI   C5A 4299   4.937   8.009   8.358 -0.2995  0.0250 -0.3035
  269loPI   C6A 4300   5.157   8.291   8.136  0.3437  0.1030  0.0060
  269loPI   C1B 4301   4.973   8.388   9.940 -0.2522  0.3236  0.4129
  269loPI   C2B 4302   5.033   8.233   9.561 -0.4392  0.1041 -0.1385
  269loPI   C3B 4303   4.934   8.332   9.188 -0.1692 -0.1373 -0.0097
  269loPI   C4B 4304   4.675   8.263   8.763 -0.1700  0.3009 -0.0489
  270loPI    C1 4305  15.848   3.702  10.990  0.1681  0.0266 -0.0370
  270loPI    C2 4306  15.744   3.555  11.347  0.0468 -0.1010 -0.1241
  270loPI    C3 4307  16.087   3.440  11.177  0.1215 -0.0139 -0.0342
  270loPI   PO4 4308  15.585   3.652  10.793 -0.1953  0.0127  0.0928
  270loPI   GL1 4309  15.591   3.340  10.515 -0.1671  0.1800 -0.2108
  270loPI   GL2 4310  15.573   3.271  10.339  0.0601 -0.0054 -0.1203
  270loPI   C1A 4311  15.148   3.385  10.182  0.0379  0.0830  0.0011
  270loPI   C2A 4312  14.864   3.270   9.861 -0.3660  0.1168  0.0332
  270loPI   C3A 4313  14.849   3.350   9.323  0.0604  0.0865  0.2867
  270loPI   C4A 4314  14.783   3.348   8.933 -0.0302  0.0419  0.1332
  270loPI   C5A 4315  14.774   3.279   8.490 -0.0834  0.0771 -0.0848
  270loPI   C6A 4316  14.473   3.465   8.168 -0.0930 -0.1444 -0.0142
  270loPI   C1B 4317  15.561   3.345   9.861 -0.1601  0.0785  0.1890
  270loPI   C2B 4318  15.413   3.433   9.387 -0.1659  0.1295  0.1042
  270loPI   C3B 4319  15.341   3.454   8.932 -0.0751  0.1904  0.1355
  270loPI   C4B 4320  15.213   3.097   8.721 -0.1182  0.0499  0.2907
  271loPI    C1 4321   5.132  16.584  11.120 -0.1666  0.0041 -0.1627
  271loPI    C2 4322   4.785  16.390  11.166 -0.1764  0.1198  0.2984
  271loPI    C3 4323   4.881  16.690  11.412  0.2727  0.0604  0.2043
  271loPI   PO4 4324   5.132  16.642  10.891 -0.1217 -0.1679  0.0463
  271loPI   GL1 4325   4.996  16.736  10.406 -0.0303  0.1248 -0.0894
  271loPI   GL2 4326   5.236  16.838  10.406  0.1974  0.0467 -0.2909
  271loPI   C1A 4327   4.945  16.821   9.929 -0.4083 -0.2888 -0.1498
  271loPI   C2A 4328   5.089  16.839   9.571 -0.0360  0.0470  0.2059
  271loPI   C3A 4329   4.933  16.757   9.134 -0.0140 -0.0640  0.0201
  271loPI   C4A 4330   4.775  16.751   8.717  0.4375  0.1938  0.0140
  271loPI   C5A 4331   4.505  16.552   8.393 -0.0813 -0.0273  0.1035
  271loPI   C6A 4332   4.206  16.164   8.151 -0.1254  0.0927 -0.0690
  271loPI   C1B 4333   5.191  17.210  10.131  0.2979  0.0172 -0.1808
  271loPI   C2B 4334   5.350  17.215   9.769  0.0751  0.0229  0.1049
  271loPI   C3B 4335   5.271  17.194   9.332 -0.0593  0.0881 -0.1608
  271loPI   C4B 4336   5.143  17.183   8.931  0.1236  0.1435 -0.0692
  272loPI    C1 4337   8.078   5.484  11.081 -0.2414  0.0403 -0.0467
  272loPI    C2 4338   7.845   5.438  11.403 -0.0646 -0.0606  0.0682
  272loPI    C3 4339   8.195   5.245  11.380 -0.0899 -0.0779 -0.1985
  272loPI   PO4 4340   7.796   5.600  10.880 -0.1153 -0.0794  0.2656
  272loPI   GL1 4341   7.703   5.526  10.505 -0.3975  0.1379 -0.0241
  272loPI   GL2 4342   7.393   5.277  10.465 -0.0311  0.0072 -0.0449
  272loPI   C1A 4343   7.870   5.634  10.132  0.1173  0.1291  0.1731
  272loPI   C2A 4344   7.934   5.508   9.721  0.0327 -0.1224 -0.1323
  272loPI   C3A 4345   7.873   5.590   9.309  0.0123 -0.0302  0.2177
  272loPI   C4A 4346   7.824   5.887   8.865 -0.1798 -0.3487  0.1863
  272loPI   C5A 4347   7.665   6.049   8.602 -0.0030 -0.1436  0.0905
  272loPI   C6A 4348   7.407   6.086   8.255 -0.2016 -0.0288  0.0052
  272loPI   C1B 4349   7.530   5.255   9.997 -0.0855 -0.3039  0.0472
  272loPI   C2B 4350   7.418   5.192   9.529  0.0039 -0.1563  0.0175
  272loPI   C3B 4351   7.573   5.203   9.104 -0.0360  0.1047 -0.2174
  272loPI   C4B 4352   7.497   5.550   8.828 -0.3043  0.0800 -0.1176
  273loPI    C1 4353  15.709   1.112  10.743  0.2876 -0.1188  0.2144
  273loPI    C2 4354  15.753   1.499  10.650 -0.2129 -0.1394 -0.1458
  273loPI    C3 4355  15.675   1.392  11.027  0.0121  0.1016 -0.0286
  273loPI   PO4 4356  15.863   0.964  10.620  0.0180 -0.2133 -0.1263
  273loPI   GL1 4357  16.045   1.084  10.229 -0.1304 -0.0454 -0.1745
  273loPI   GL2 4358  16.007   1.297  10.191 -0.1223 -0.5950  0.3874
  273loPI   C1A 4359  16.125   0.790   9.899  0.2020 -0.2732  0.1667
  273loPI   C2A 4360  16.157   0.776   9.522 -0.0385 -0.0546  0.1916
  273loPI   C3A 4361  16.174   0.873   9.145 -0.0717  0.0906  0.1742
  273loPI   C4A 4362  16.104   0.889   8.695 -0.1224 -0.0789 -0.0079
  273loPI   C5A 4363  16.087   0.810   8.282 -0.0077 -0.1599  0.0872
  273loPI   C6A 4364  15.828   0.745   7.959 -0.1635  0.1365 -0.5505
  273loPI   C1B 4365  15.930   1.391   9.753 -0.0181  0.0118  0.1996
  273loPI   C2B 4366  15.983   1.412   9.272  0.1653  0.1010 -0.2542
  273loPI   C3B 4367  15.947   1.424   8.868 -0.1788  0.0761 -0.0969
  273loPI   C4B 4368  16.215   1.361   8.507 -0.0389  0.0639 -0.2649
  274loPI    C1 4369  10.474   6.498  10.748  0.0446  0.0200 -0.0054
  274loPI    C2 4370  10.697   6.762  10.951  0.0723 -0.0627  0.0723
  274loPI    C3 4371  10.484   6.486  11.147  0.1337 -0.1713 -0.0125
  274loPI   PO4 4372  10.326   6.628  10.609  0.0185  0.1588  0.0059
  274loPI   GL1 4373  10.334   6.750  10.251  0.4747  0.2165  0.0028
  274loPI   GL2 4374   9.973   6.650  10.221  0.3846 -0.3765 -0.4128
  274loPI   C1A 4375  10.380   6.372   9.933 -0.0818  0.1124 -0.0239
  274loPI   C2A 4376  10.322   6.382   9.460 -0.2654 -0.1103  0.0691
  274loPI   C3A 4377  10.238   6.476   9.083  0.0080  0.1376  0.0178
  274loPI   C4A 4378  10.219   6.364   8.615 -0.0245 -0.0325 -0.2604
  274loPI   C5A 4379  10.307   6.151   8.242  0.0294 -0.0573  0.3091
  274loPI   C6A 4380  10.417   6.031   7.821  0.3557  0.0882 -0.4572
  274loPI   C1B 4381   9.994   6.693   9.820 -0.2266  0.2173 -0.2394
  274loPI   C2B 4382   9.966   6.762   9.366  0.1371 -0.0521 -0.3269
  274loPI   C3B 4383   9.873   6.797   8.997 -0.5582  0.1558  0.0217
  274loPI   C4B 4384   9.922   6.767   8.549 -0.0396  0.2322 -0.2677
  275loPI    C1 4385  13.066  14.630  10.856 -0.0633 -0.0007  0.0363
  275loPI    C2 4386  13.322  14.930  10.920 -0.1228  0.0737 -0.0699
  275loPI    C3 4387  13.179  14.719  11.229  0.2071 -0.0876 -0.0230
  275loPI   PO4 4388  12.899  14.816  10.620  0.0251 -0.1427 -0.0569
  275loPI   GL1 4389  13.033  14.956  10.264  0.2041 -0.0604 -0.1104
  275loPI   GL2 4390  12.753  15.164  10.121 -0.0186  0.1677 -0.2296
  275loPI   C1A 4391  13.032  14.652   9.956  0.0136 -0.1225 -0.0051
  275loPI   C2A 4392  12.945  14.641   9.558 -0.2384  0.1005  0.1082
  275loPI   C3A 4393  12.813  14.300   9.359  0.0691 -0.0814 -0.2436
  275loPI   C4A 4394  12.715  14.104   8.935  0.0845 -0.1518  0.1200
  275loPI   C5A 4395  12.618  14.378   8.589 -0.1428 -0.0984 -0.1052
  275loPI   C6A 4396  12.853  14.500   8.240  0.1500 -0.0570 -0.1515
  275loPI   C1B 4397  12.559  14.890   9.876  0.0432 -0.0170  0.2277
  275loPI   C2B 4398  12.473  14.782   9.399  0.0848 -0.0522 -0.3983
  275loPI   C3B 4399  12.419  14.563   9.092 -0.3780  0.0788 -0.0528
  275loPI   C4B 4400  12.221  14.602   8.678 -0.0183  0.5210 -0.3113
  276loPI    C1 4401  14.474   1.936  10.616  0.1247  0.0824 -0.1608
  276loPI    C2 4402  14.533   1.601  10.825 -0.1766  0.0754 -0.0824
  276loPI    C3 4403  14.588   1.957  10.999 -0.0822  0.0684 -0.0972
  276loPI   PO4 4404  14.372   1.746  10.355 -0.1386  0.0637  0.0383
  276loPI   GL1 4405  14.321   1.432  10.060  0.1018  0.0766  0.2138
  276loPI   GL2 4406  14.556   1.276   9.898  0.1090  0.2523  0.0913
  276loPI   C1A 4407  14.102   1.332   9.705  0.3608  0.1156  0.1684
  276loPI   C2A 4408  13.827   1.479   9.344 -0.1703  0.1457 -0.1522
  276loPI   C3A 4409  13.817   1.636   8.895  0.0808 -0.2227 -0.1286
  276loPI   C4A 4410  14.081   1.639   8.522  0.2536 -0.0011  0.2523
  276loPI   C5A 4411  14.113   1.581   8.093 -0.2582  0.0553  0.0982
  276loPI   C6A 4412  14.072   1.525   7.681  0.2460  0.1966 -0.0953
  276loPI   C1B 4413  14.669   1.324   9.448 -0.0157 -0.0697 -0.2316
  276loPI   C2B 4414  14.602   1.360   8.985  0.0252  0.1458  0.2136
  276loPI   C3B 4415  14.571   1.508   8.603  0.1436  0.0933 -0.0363
  276loPI   C4B 4416  14.611   1.707   8.222 -0.3143  0.1223  0.1622
  277loPI    C1 4417  11.879   1.936  10.510  0.0127  0.0744 -0.1983
  277loPI    C2 4418  11.985   1.551  10.531  0.0126  0.0788 -0.1132
  277loPI    C3 4419  12.088   1.803  10.824 -0.1287  0.1088 -0.0887
  277loPI   PO4 4420  11.617   1.947  10.394  0.2475  0.0664  0.2398
  277loPI   GL1 4421  11.544   2.234  10.143 -0.2713 -0.0218  0.2557
  277loPI   GL2 4422  11.250   2.335  10.089 -0.0623 -0.0220  0.2589
  277loPI   C1A 4423  11.507   2.066   9.773 -0.0386  0.1274 -0.0591
  277loPI   C2A 4424  11.621   2.208   9.405  0.0409 -0.1484  0.1644
  277loPI   C3A 4425  11.599   2.423   8.986  0.2884 -0.1425  0.3495
  277loPI   C4A 4426  11.396   2.493   8.639  0.0521 -0.0473 -0.2375
  277loPI   C5A 4427  11.510   2.685   8.329 -0.0751  0.0142  0.1083
  277loPI   C6A 4428  11.480   3.014   8.024 -0.0922  0.0416  0.0109
  277loPI   C1B 4429  11.088   2.308   9.620 -0.1447  0.0729 -0.2838
  277loPI   C2B 4430  11.088   2.331   9.133 -0.1667  0.0216  0.2991
  277loPI   C3B 4431  11.022   2.122   8.696 -0.1395 -0.2134  0.1096
  277loPI   C4B 4432  10.852   1.931   8.318 -0.1626 -0.0691 -0.4098
  278loPI    C1 4433   8.042   3.500  10.513  0.1785 -0.0970  0.0475
  278loPI    C2 4434   8.199   3.691  10.827 -0.0177 -0.0403  0.1125
  278loPI    C3 4435   7.837   3.523  10.856  0.0080 -0.1256 -0.0513
  278loPI   PO4 4436   8.200   3.528  10.244  0.0809 -0.3776 -0.2525
  278loPI   GL1 4437   8.113   3.525   9.883  0.0905 -0.1906 -0.2734
  278loPI   GL2 4438   7.825   3.684   9.936  0.3715 -0.0252 -0.0236
  278loPI   C1A 4439   8.324   3.501   9.394 -0.1308  0.3045  0.1105
  278loPI   C2A 4440   8.276   3.327   9.056  0.0558 -0.0066 -0.2112
  278loPI   C3A 4441   8.255   3.328   8.724 -0.1492 -0.0853  0.2205
  278loPI   C4A 4442   8.376   3.151   8.395  0.2157 -0.0732 -0.3698
  278loPI   C5A 4443   8.674   3.077   8.156  0.0095  0.0201  0.1366
  278loPI   C6A 4444   9.015   2.974   8.203 -0.0510 -0.3048 -0.1436
  278loPI   C1B 4445   7.843   3.592   9.461 -0.0239  0.0530  0.2647
  278loPI   C2B 4446   7.847   3.688   9.125  0.1369 -0.0094  0.0301
  278loPI   C3B 4447   7.882   3.662   8.703 -0.2340  0.2472 -0.0742
  278loPI   C4B 4448   7.837   3.731   8.324  0.1670  0.1510 -0.0705
  279loPI    C1 4449  16.662   9.248  10.617 -0.0800 -0.0197 -0.0071
  279loPI    C2 4450  16.897   9.529  10.778 -0.0917 -0.0300  0.0280
  279loPI    C3 4451  16.902   9.157  10.924 -0.3360  0.0367  0.2136
  279loPI   PO4 4452  16.696   9.220  10.403  0.1493 -0.0053  0.1010
  279loPI   GL1 4453  16.599   9.353  10.061  0.0261 -0.2576 -0.0929
  279loPI   GL2 4454  16.378   9.463   9.830  0.1259 -0.0108 -0.4068
  279loPI   C1A 4455  16.834   9.422   9.688 -0.1012  0.0526 -0.0638
  279loPI   C2A 4456  16.850   9.520   9.328  0.1508  0.0315  0.0159
  279loPI   C3A 4457  16.840   9.571   8.847  0.2233  0.0793 -0.0543
  279loPI   C4A 4458  16.690   9.573   8.503 -0.1751 -0.1033  0.2639
  279loPI   C5A 4459  16.722   9.724   8.180 -0.2156 -0.0738 -0.1772
  279loPI   C6A 4460  16.473   9.906   7.803 -0.1953 -0.0480  0.0181
  279loPI   C1B 4461  16.376   9.360   9.505  0.0638 -0.0830 -0.0266
  279loPI   C2B 4462  16.441   9.345   9.163  0.2298  0.0491 -0.0573
  279loPI   C3B 4463  16.393   9.266   8.722  0.2026  0.1447 -0.1134
  279loPI   C4B 4464  16.239   9.384   8.335  0.2215  0.0350  0.0907
  280loPI    C1 4465  10.232   0.538  10.459  0.2438  0.0393  0.3171
  280loPI    C2 4466  10.243   0.160  10.329 -0.0089  0.1081  0.0867
  280loPI    C3 4467   9.960   0.274  10.588 -0.1188  0.2092 -0.0761
  280loPI   PO4 4468  10.237   0.715  10.242  0.2179 -0.1867  0.1242
  280loPI   GL1 4469  10.516   0.913   9.927  0.1688  0.0304  0.2456
  280loPI   GL2 4470  10.202   0.891   9.746 -0.1459 -0.2166 -0.1834
  280loPI   C1A 4471  10.586   0.961   9.401 -0.1577 -0.2452  0.0556
  280loPI   C2A 4472  10.658   1.021   8.992 -0.1170 -0.3428 -0.0639
  280loPI   C3A 4473  10.973   1.074   8.625  0.2293  0.5897  0.3905
  280loPI   C4A 4474  11.046   0.890   8.192 -0.0039 -0.0540  0.3252
  280loPI   C5A 4475  11.050   0.525   7.939 -0.0708  0.0594  0.0337
  280loPI   C6A 4476  10.698   0.201   7.960  0.0410  0.1361 -0.0621
  280loPI   C1B 4477  10.088   0.899   9.393 -0.1110  0.0086  0.2624
  280loPI   C2B 4478  10.172   0.905   9.022  0.0764 -0.1384 -0.0201
  280loPI   C3B 4479   9.952   0.912   8.540 -0.0529 -0.1503  0.0071
  280loPI   C4B 4480  10.181   1.007   8.131  0.1946 -0.2518  0.1658
  281loPI    C1 4481   5.337   1.797  11.135 -0.0771  0.3486 -0.0195
  281loPI    C2 4482   5.714   1.695  11.225  0.0011  0.5089 -0.1615
  281loPI    C3 4483   5.472   1.838  11.510 -0.0975 -0.0217  0.0326
  281loPI   PO4 4484   5.409   1.924  10.903  0.0555  0.2270 -0.0384
  281loPI   GL1 4485   5.293   2.038  10.504  0.2232  0.3643 -0.1910
  281loPI   GL2 4486   5.416   1.826  10.383 -0.3529  0.0862 -0.1483
  281loPI   C1A 4487   5.160   2.239  10.122  0.0034  0.2032  0.2605
  281loPI   C2A 4488   5.119   2.349   9.779 -0.2730 -0.2990 -0.2329
  281loPI   C3A 4489   5.170   2.509   9.349  0.0854 -0.1766 -0.1012
  281loPI   C4A 4490   5.150   2.493   8.900  0.0498 -0.0004  0.0992
  281loPI   C5A 4491   5.154   2.184   8.563  0.1288  0.0512 -0.0139
  281loPI   C6A 4492   4.845   2.012   8.214 -0.2464 -0.0624 -0.2053
  281loPI   C1B 4493   5.524   1.992   9.943  0.2939  0.0177 -0.0390
  281loPI   C2B 4494   5.488   2.045   9.513  0.2355  0.2456  0.5299
  281loPI   C3B 4495   5.489   2.154   9.145  0.0395  0.2770 -0.1315
  281loPI   C4B 4496   5.586   2.119   8.778 -0.1234  0.2550 -0.1136
  282loPI    C1 4497   3.675   3.923  10.780  0.1861  0.1121 -0.0892
  282loPI    C2 4498   4.028   3.743  10.728  0.2444  0.1411  0.1865
  282loPI    C3 4499   3.886   3.800  11.097 -0.0215  0.1840  0.0797
  282loPI   PO4 4500   3.686   4.173  10.659  0.1085  0.2975 -0.0985
  282loPI   GL1 4501   3.665   4.390  10.218 -0.3909  0.1997 -0.0214
  282loPI   GL2 4502   3.406   4.170  10.121 -0.0297 -0.0665  0.2056
  282loPI   C1A 4503   3.275   4.634  10.118 -0.1296  0.0906 -0.0884
  282loPI   C2A 4504   2.842   4.786   9.922  0.0999  0.2437  0.1111
  282loPI   C3A 4505   2.454   5.077   9.718  0.0012 -0.2323  0.0436
  282loPI   C4A 4506   2.506   5.163   9.276  0.1594 -0.1984  0.0813
  282loPI   C5A 4507   2.724   5.165   8.859 -0.0003 -0.1713  0.0522
  282loPI   C6A 4508   2.916   4.798   8.548  0.0194 -0.2219  0.2698
  282loPI   C1B 4509   3.364   4.175   9.669  0.1727  0.0550  0.1621
  282loPI   C2B 4510   3.759   4.249   9.375  0.0556 -0.2370  0.0343
  282loPI   C3B 4511   4.039   4.505   9.129  0.2243  0.0155 -0.2533
  282loPI   C4B 4512   4.371   4.663   9.379  0.0955  0.0308 -0.2956
  283loPI    C1 4513   4.650  13.167  10.871 -0.2045 -0.0642 -0.1377
  283loPI    C2 4514   4.603  13.384  11.203  0.0141 -0.0629 -0.1062
  283loPI    C3 4515   4.724  13.560  10.865 -0.1954 -0.0666 -0.1848
  283loPI   PO4 4516   4.869  12.964  10.923 -0.1920  0.1961  0.1175
  283loPI   GL1 4517   4.833  12.755  10.610  0.0029 -0.0087  0.1479
  283loPI   GL2 4518   4.826  12.431  10.486  0.0699 -0.2616 -0.0386
  283loPI   C1A 4519   5.046  12.833  10.191 -0.1337  0.2635 -0.0636
  283loPI   C2A 4520   5.212  12.850   9.757  0.0950  0.3968 -0.1282
  283loPI   C3A 4521   5.238  12.739   9.300  0.0433  0.0376  0.1555
  283loPI   C4A 4522   5.078  12.865   8.950  0.2357 -0.0231  0.4716
  283loPI   C5A 4523   4.737  13.026   8.652 -0.0226  0.1539 -0.2646
  283loPI   C6A 4524   4.696  13.433   8.428 -0.2581 -0.2272  0.1227
  283loPI   C1B 4525   4.783  12.209  10.145  0.2163 -0.0797 -0.2067
  283loPI   C2B 4526   4.800  12.207   9.675  0.1005 -0.0847 -0.0093
  283loPI   C3B 4527   4.728  12.585   9.474  0.2833  0.1724  0.1284
  283loPI   C4B 4528   4.577  12.914   9.150  0.1465  0.0300  0.1232
  284loPI    C1 4529   7.460   2.026  10.932 -0.0629  0.0554  0.2112
  284loPI    C2 4530   7.487   2.376  11.123  0.1969  0.1515  0.0043
  284loPI    C3 4531   7.555   2.035  11.321  0.2465  0.2358  0.1340
  284loPI   PO4 4532   7.481   2.096  10.695 -0.2241  0.1193  0.5143
  284loPI   GL1 4533   7.518   2.274  10.325  0.3870 -0.3534 -0.2558
  284loPI   GL2 4534   7.368   2.536  10.280  0.3215  0.0648 -0.3648
  284loPI   C1A 4535   7.470   2.234   9.868  0.0089 -0.1232 -0.3555
  284loPI   C2A 4536   7.409   2.201   9.408 -0.0069  0.2265  0.1023
  284loPI   C3A 4537   7.343   2.139   8.998  0.0067  0.1400 -0.0379
  284loPI   C4A 4538   7.438   2.141   8.568 -0.0869 -0.0980 -0.2238
  284loPI   C5A 4539   7.637   1.964   8.238  0.1752 -0.0059 -0.0938
  284loPI   C6A 4540   7.646   1.700   7.844  0.0276  0.0619 -0.3978
  284loPI   C1B 4541   7.042   2.577  10.000  0.3675 -0.1560  0.0304
  284loPI   C2B 4542   7.055   2.468   9.577  0.1213 -0.0084 -0.1831
  284loPI   C3B 4543   6.931   2.392   9.172 -0.1418  0.0545 -0.0766
  284loPI   C4B 4544   6.996   2.402   8.782  0.1137 -0.0799 -0.1446
  285loPI    C1 4545   4.618   6.364  11.049  0.1229  0.0723  0.1502
  285loPI    C2 4546   4.857   6.134  11.272  0.2411  0.0084 -0.0396
  285loPI    C3 4547   4.461   6.125  11.329  0.2622 -0.0826  0.0978
  285loPI   PO4 4548   4.858   6.538  10.956  0.3037 -0.1678  0.3080
  285loPI   GL1 4549   4.956   6.731  10.583 -0.0080 -0.1463 -0.0645
  285loPI   GL2 4550   5.161   6.872  10.397 -0.1890  0.0877  0.2112
  285loPI   C1A 4551   4.770   6.759  10.153  0.1652  0.2336  0.1345
  285loPI   C2A 4552   4.896   6.811   9.741 -0.0667  0.0038  0.2168
  285loPI   C3A 4553   4.800   6.794   9.335 -0.0644  0.0795 -0.3373
  285loPI   C4A 4554   4.817   6.769   8.900  0.1417  0.1657 -0.2747
  285loPI   C5A 4555   4.900   6.765   8.451 -0.1080  0.0133  0.1476
  285loPI   C6A 4556   5.295   6.701   8.214  0.2070 -0.1273  0.0493
  285loPI   C1B 4557   5.343   6.897  10.007  0.0093  0.0892  0.1395
  285loPI   C2B 4558   5.361   6.969   9.582  0.1072 -0.2409  0.0823
  285loPI   C3B 4559   5.203   7.028   9.123  0.2533 -0.0430 -0.2501
  285loPI   C4B 4560   5.266   6.912   8.780 -0.1666 -0.1338  0.1729
  286loPI    C1 4561  14.528  11.022  10.451  0.1046 -0.2208 -0.0763
  286loPI    C2 4562  14.399  10.986  10.828 -0.1136  0.0365 -0.1234
  286loPI    C3 4563  14.654  10.718  10.677 -0.0952 -0.1188  0.1775
  286loPI   PO4 4564  14.346  11.180  10.372 -0.1435  0.2079  0.1575
  286loPI   GL1 4565  14.241  11.173  10.012  0.0046 -0.0437  0.2661
  286loPI   GL2 4566  14.229  10.898   9.850  0.2884  0.1318 -0.2564
  286loPI   C1A 4567  13.970  11.294   9.662 -0.1974 -0.0708 -0.1394
  286loPI   C2A 4568  14.123  11.340   9.217  0.1369 -0.0052 -0.2138
  286loPI   C3A 4569  14.158  11.320   8.804  0.3773 -0.2117 -0.0268
  286loPI   C4A 4570  14.024  11.211   8.383 -0.2061 -0.0699 -0.2130
  286loPI   C5A 4571  13.897  11.253   8.002  0.1023  0.0486  0.0345
  286loPI   C6A 4572  13.630  10.925   7.836  0.1633  0.2124  0.1345
  286loPI   C1B 4573  14.173  10.769   9.429 -0.0060 -0.0394 -0.0821
  286loPI   C2B 4574  14.147  10.842   9.051  0.0764 -0.0604  0.2171
  286loPI   C3B 4575  14.187  10.800   8.647  0.1702 -0.0574 -0.5963
  286loPI   C4B 4576  14.529  10.695   8.354 -0.0991 -0.1558  0.1536
  287loPI    C1 4577   6.973   2.328  11.108 -0.0187 -0.0298 -0.0713
  287loPI    C2 4578   7.052   2.669  11.303  0.0574 -0.1105  0.0408
  287loPI    C3 4579   7.142   2.317  11.471  0.1552 -0.1808 -0.1550
  287loPI   PO4 4580   6.732   2.412  11.001  0.1644 -0.1464  0.0243
  287loPI   GL1 4581   6.667   2.555  10.575  0.0117 -0.0009  0.1936
  287loPI   GL2 4582   6.824   2.739  10.400  0.0588  0.0415  0.0486
  287loPI   C1A 4583   6.208   2.519  10.334 -0.2417 -0.1737 -0.1137
  287loPI   C2A 4584   6.167   2.574   9.847  0.3274  0.1692 -0.2043
  287loPI   C3A 4585   6.128   2.693   9.502 -0.0419  0.0431  0.0160
  287loPI   C4A 4586   6.087   2.747   9.130  0.1256 -0.0401  0.1919
  287loPI   C5A 4587   6.208   2.797   8.662  0.0887  0.0050 -0.1758
  287loPI   C6A 4588   6.129   2.646   8.293  0.0692 -0.1208 -0.1269
  287loPI   C1B 4589   6.586   2.409  10.056 -0.0331 -0.0417  0.0392
  287loPI   C2B 4590   6.551   2.373   9.680  0.0415  0.0156 -0.0591
  287loPI   C3B 4591   6.501   2.310   9.285 -0.2919 -0.3454 -0.1721
  287loPI   C4B 4592   6.508   2.415   8.893 -0.0629  0.2134  0.1279
  288loPI    C1 4593   7.832  13.538  10.826 -0.1192  0.1054 -0.0048
  288loPI    C2 4594   7.878  13.898  10.994  0.0088  0.0943 -0.0160
  288loPI    C3 4595   7.816  13.577  11.224 -0.0832  0.1199 -0.0049
  288loPI   PO4 4596   7.632  13.607  10.591  0.0863  0.2785  0.2144
  288loPI   GL1 4597   7.516  13.618  10.282 -0.2935  0.0484  0.1490
  288loPI   GL2 4598   7.587  13.303  10.163  0.0125 -0.1306  0.1674
  288loPI   C1A 4599   7.658  13.743   9.947 -0.1080 -0.0902  0.2238
  288loPI   C2A 4600   7.553  14.000   9.644  0.0170  0.3372 -0.0874
  288loPI   C3A 4601   7.703  14.125   9.216 -0.1657 -0.0765  0.1142
  288loPI   C4A 4602   7.668  14.242   8.835 -0.0442  0.2550  0.0643
  288loPI   C5A 4603   7.798  14.449   8.481 -0.0190  0.3305  0.3079
  288loPI   C6A 4604   7.578  14.625   8.119 -0.1762 -0.1339 -0.0996
  288loPI   C1B 4605   7.886  13.342   9.797 -0.0285 -0.3027 -0.1429
  288loPI   C2B 4606   7.915  13.658   9.510 -0.0006 -0.0667 -0.0804
  288loPI   C3B 4607   8.159  13.947   9.250  0.4764  0.0772  0.3704
  288loPI   C4B 4608   8.223  14.411   9.259 -0.3253 -0.3194 -0.0245
  289loPI    C1 4609  14.444  12.207  10.925  0.0443 -0.0467 -0.1114
  289loPI    C2 4610  14.515  11.842  11.073  0.3434  0.0539 -0.0002
  289loPI    C3 4611  14.407  12.139  11.318  0.0642  0.0336 -0.0955
  289loPI   PO4 4612  14.248  12.067  10.664  0.2935  0.0921 -0.1128
  289loPI   GL1 4613  14.140  12.170  10.262 -0.0879 -0.0202 -0.2190
  289loPI   GL2 4614  14.309  12.453  10.091 -0.0742 -0.2106  0.1532
  289loPI   C1A 4615  13.773  12.334   9.974  0.0851 -0.2354  0.1410
  289loPI   C2A 4616  13.454  12.255   9.616  0.0850 -0.0300  0.1365
  289loPI   C3A 4617  13.388  12.152   9.210  0.0116 -0.1944  0.1051
  289loPI   C4A 4618  13.171  12.031   8.785  0.1034 -0.2185  0.1504
  289loPI   C5A 4619  13.437  11.878   8.463 -0.1538 -0.2225  0.2419
  289loPI   C6A 4620  13.607  11.614   8.165 -0.1840  0.0264  0.1829
  289loPI   C1B 4621  14.184  12.676   9.643 -0.1553  0.1504 -0.0632
  289loPI   C2B 4622  13.881  12.441   9.528 -0.1925  0.2680  0.4098
  289loPI   C3B 4623  13.782  12.392   9.095 -0.0101 -0.0975 -0.0329
  289loPI   C4B 4624  13.693  12.152   8.770  0.0735 -0.1002  0.0223
  290loPI    C1 4625   9.474   7.014  10.645 -0.0838 -0.1438  0.0538
  290loPI    C2 4626   9.696   6.986  10.976  0.1602 -0.0197 -0.0970
  290loPI    C3 4627   9.564   7.343  10.853 -0.0265 -0.0792 -0.0723
  290loPI   PO4 4628   9.536   6.781  10.480  0.0674 -0.1739 -0.0735
  290loPI   GL1 4629   9.270   6.604  10.143  0.3681  0.0205  0.0318
  290loPI   GL2 4630   9.536   6.576   9.963 -0.0847  0.3707  0.0274
  290loPI   C1A 4631   9.085   6.826   9.806 -0.2147 -0.2834  0.1716
  290loPI   C2A 4632   8.927   6.846   9.304  0.0258  0.0115  0.0535
  290loPI   C3A 4633   8.822   6.609   8.933  0.3234 -0.0625 -0.0914
  290loPI   C4A 4634   8.617   6.742   8.576  0.1989  0.0007 -0.0555
  290loPI   C5A 4635   8.295   6.941   8.251  0.0490  0.0693 -0.2139
  290loPI   C6A 4636   8.107   7.243   7.872 -0.0042  0.1753 -0.2201
  290loPI   C1B 4637   9.488   6.660   9.566 -0.3099 -0.2566 -0.1999
  290loPI   C2B 4638   9.455   6.667   9.225  0.1457  0.1060 -0.0129
  290loPI   C3B 4639   9.424   6.680   8.870 -0.0873 -0.0444 -0.1573
  290loPI   C4B 4640   9.406   6.802   8.497 -0.0211  0.2843 -0.1312
  291loPI    C1 4641   6.261   1.720  10.730 -0.1084  0.1154 -0.2141
  291loPI    C2 4642   6.434   2.080  10.755  0.2475 -0.0543 -0.1708
  291loPI    C3 4643   6.646   1.750  10.834 -0.0936 -0.2717 -0.1420
  291loPI   PO4 4644   6.100   1.752  10.514 -0.0400  0.2416  0.1737
  291loPI   GL1 4645   5.819   1.604  10.195 -0.0152 -0.3636  0.2019
  291loPI   GL2 4646   6.049   1.421  10.177 -0.1849 -0.0849 -0.0485
  291loPI   C1A 4647   5.773   1.595   9.812 -0.0687  0.1427  0.0708
  291loPI   C2A 4648   5.823   1.660   9.362  0.1302 -0.1551 -0.2394
  291loPI   C3A 4649   5.846   1.760   8.982 -0.1445 -0.0173 -0.0096
  291loPI   C4A 4650   6.005   1.807   8.553  0.0032  0.0138  0.1269
  291loPI   C5A 4651   6.193   2.065   8.199 -0.0001  0.2965  0.0698
  291loPI   C6A 4652   6.358   2.366   7.966 -0.0874 -0.1057  0.0523
  291loPI   C1B 4653   6.215   1.274   9.887  0.2395  0.0474  0.2615
  291loPI   C2B 4654   6.190   1.244   9.428 -0.4732 -0.3513 -0.2832
  291loPI   C3B 4655   6.169   1.401   9.035 -0.0155 -0.1419  0.0204
  291loPI   C4B 4656   6.247   1.249   8.676  0.2303  0.0184  0.2388
  292loPI    C1 4657   9.011   8.722  10.854  0.0847  0.0812 -0.1428
  292loPI    C2 4658   9.339   8.525  10.736  0.0985  0.0801 -0.1024
  292loPI    C3 4659   9.348   8.748  11.068 -0.0393 -0.1976  0.0922
  292loPI   PO4 4660   8.904   8.843  10.610 -0.0849 -0.0603  0.0437
  292loPI   GL1 4661   9.118   8.857  10.171 -0.0417  0.1185 -0.0132
  292loPI   GL2 4662   9.379   8.793  10.053 -0.1484  0.1529 -0.0360
  292loPI   C1A 4663   8.947   8.620   9.807  0.0653 -0.2302 -0.0476
  292loPI   C2A 4664   8.946   8.628   9.341 -0.4489  0.0231  0.0413
  292loPI   C3A 4665   8.796   8.474   8.923  0.0668 -0.0391  0.0775
  292loPI   C4A 4666   8.787   8.587   8.599 -0.2768 -0.0804 -0.4079
  292loPI   C5A 4667   8.608   8.429   8.157 -0.0283 -0.2960  0.2446
  292loPI   C6A 4668   8.658   8.152   7.847  0.0441  0.0049  0.3015
  292loPI   C1B 4669   9.300   8.884   9.610 -0.0458  0.0313 -0.2474
  292loPI   C2B 4670   9.243   8.984   9.189  0.1982 -0.3020 -0.2689
  292loPI   C3B 4671   9.151   8.848   8.855 -0.1346  0.1760 -0.4148
  292loPI   C4B 4672   9.116   8.813   8.333  0.2267 -0.0103  0.0325
  293loPI    C1 4673  11.343   3.975  10.879 -0.0098 -0.0979 -0.0682
  293loPI    C2 4674  11.362   4.356  10.999  0.1116 -0.0700 -0.1740
  293loPI    C3 4675  11.527   4.068  11.222 -0.2223 -0.0956  0.0469
  293loPI   PO4 4676  11.317   4.047  10.596 -0.0041 -0.0567  0.1871
  293loPI   GL1 4677  11.278   3.939  10.157  0.3007 -0.4123  0.1192
  293loPI   GL2 4678  11.196   4.147  10.033 -0.1633 -0.0959  0.1973
  293loPI   C1A 4679  11.332   3.701   9.796 -0.1839 -0.0033 -0.0724
  293loPI   C2A 4680  11.361   3.737   9.325 -0.1625 -0.1858 -0.0220
  293loPI   C3A 4681  11.336   3.811   8.967 -0.3376  0.0968  0.0610
  293loPI   C4A 4682  11.310   3.693   8.562 -0.1114  0.1012  0.0275
  293loPI   C5A 4683  11.411   3.913   8.179  0.0796  0.0702  0.0313
  293loPI   C6A 4684  11.249   3.873   7.667  0.1058 -0.1527  0.0394
  293loPI   C1B 4685  10.994   4.109   9.653 -0.1246 -0.2809 -0.1597
  293loPI   C2B 4686  11.062   4.157   9.256  0.1968  0.1775 -0.1939
  293loPI   C3B 4687  11.095   4.279   8.868  0.0663  0.0663  0.1050
  293loPI   C4B 4688  11.287   4.291   8.439 -0.0332 -0.2660 -0.0893
  294loPI    C1 4689   3.691  11.103  10.941  0.0554  0.3919  0.0606
  294loPI    C2 4690   3.960  11.057  11.234 -0.0536  0.0800  0.1152
  294loPI    C3 4691   3.601  11.215  11.315 -0.0958 -0.0366  0.1584
  294loPI   PO4 4692   3.785  11.087  10.718  0.1649  0.0364  0.2462
  294loPI   GL1 4693   3.653  11.295  10.270 -0.0456  0.0820  0.0746
  294loPI   GL2 4694   3.993  11.363  10.331 -0.1071  0.1559 -0.2435
  294loPI   C1A 4695   3.720  11.078   9.907 -0.3859 -0.2057 -0.3990
  294loPI   C2A 4696   3.874  10.999   9.535 -0.2393 -0.0433 -0.0805
  294loPI   C3A 4697   4.057  11.019   9.114 -0.1408 -0.0053 -0.0886
  294loPI   C4A 4698   4.361  11.049   8.835 -0.0112 -0.2277  0.1031
  294loPI   C5A 4699   4.551  10.879   8.429 -0.0709 -0.0912  0.2669
  294loPI   C6A 4700   4.708  10.506   8.170 -0.0756  0.3447  0.0080
  294loPI   C1B 4701   4.018  11.555   9.937 -0.0202  0.0302 -0.2703
  294loPI   C2B 4702   3.900  11.493   9.567 -0.0025 -0.3223 -0.2191
  294loPI   C3B 4703   4.103  11.475   9.184 -0.0536  0.2153 -0.0863
  294loPI   C4B 4704   4.059  11.423   8.641 -0.1669  0.0573 -0.2999
  295loPI    C1 4705   5.175   2.824  11.043  0.0557 -0.3786  0.0194
  295loPI    C2 4706   5.281   2.739  11.419 -0.1085 -0.2594  0.0939
  295loPI    C3 4707   4.933   2.605  11.275 -0.1839 -0.0534  0.0823
  295loPI   PO4 4708   5.382   2.847  10.770 -0.0480  0.0111 -0.1530
  295loPI   GL1 4709   5.444   3.102  10.427 -0.3198 -0.0084  0.1132
  295loPI   GL2 4710   5.437   3.359  10.325 -0.0875 -0.0581  0.0421
  295loPI   C1A 4711   5.397   2.773  10.133  0.1304 -0.1911  0.1109
  295loPI   C2A 4712   5.273   2.841   9.760 -0.4502  0.2187  0.2555
  295loPI   C3A 4713   5.195   2.999   9.295 -0.1210 -0.0250 -0.0636
  295loPI   C4A 4714   5.306   3.026   8.805  0.0076  0.0408 -0.0323
  295loPI   C5A 4715   5.450   3.434   8.593  0.2718 -0.1443  0.1147
  295loPI   C6A 4716   5.505   3.455   8.177 -0.2388 -0.0252 -0.1371
  295loPI   C1B 4717   5.468   3.345   9.976  0.1263 -0.0942  0.1058
  295loPI   C2B 4718   5.455   3.400   9.475  0.0518 -0.0504 -0.2852
  295loPI   C3B 4719   5.367   3.548   9.060  0.0692  0.1992 -0.0473
  295loPI   C4B 4720   4.951   3.496   8.825 -0.1511  0.0052  0.0575
  296loPI    C1 4721  17.612   8.064  10.738  0.1823  0.0079 -0.1566
  296loPI    C2 4722  17.634   7.795  11.033 -0.0797  0.2356  0.0757
  296loPI    C3 4723  17.894   8.099  11.020  0.0408  0.1290 -0.0288
  296loPI   PO4 4724  17.631   7.992  10.502 -0.0961  0.0278  0.0919
  296loPI   GL1 4725  17.468   7.963  10.184  0.2429 -0.0060  0.3544
  296loPI   GL2 4726  17.720   8.083   9.894  0.2862  0.0791 -0.1772
  296loPI   C1A 4727  17.437   7.737   9.809  0.0492  0.4678  0.1159
  296loPI   C2A 4728  17.530   7.705   9.308  0.0578 -0.3266 -0.1954
  296loPI   C3A 4729  17.578   7.689   8.945  0.0414  0.0926  0.1361
  296loPI   C4A 4730  17.512   7.621   8.527 -0.2192 -0.0533  0.2299
  296loPI   C5A 4731  17.203   7.762   8.248  0.3247 -0.0910 -0.0322
  296loPI   C6A 4732  17.053   7.489   8.001  0.0729 -0.0559  0.1093
  296loPI   C1B 4733  17.741   8.188   9.502 -0.0289 -0.3394 -0.1604
  296loPI   C2B 4734  17.799   8.156   9.035  0.0874 -0.1746  0.2806
  296loPI   C3B 4735  17.691   8.070   8.586 -0.2643 -0.0325 -0.1415
  296loPI   C4B 4736  17.617   8.083   8.193 -0.0914 -0.0505 -0.0219
  297loPI    C1 4737   3.227   1.898  10.859 -0.0623  0.0396  0.0716
  297loPI    C2 4738   3.526   1.780  10.621 -0.0888 -0.0309  0.0732
  297loPI    C3 4739   3.564   1.751  11.018 -0.0627  0.0438  0.0762
  297loPI   PO4 4740   3.160   2.214  10.764 -0.0975  0.1292 -0.0160
  297loPI   GL1 4741   3.293   2.359  10.517 -0.0329 -0.1727 -0.0419
  297loPI   GL2 4742   3.488   2.170  10.339  0.0260  0.2543  0.0790
  297loPI   C1A 4743   3.392   2.621  10.196 -0.1538  0.2484  0.0897
  297loPI   C2A 4744   3.308   2.586   9.743  0.0930  0.0836 -0.2202
  297loPI   C3A 4745   3.164   2.321   9.403  0.1652 -0.1633  0.0602
  297loPI   C4A 4746   3.302   2.082   9.025 -0.0013 -0.2179 -0.0639
  297loPI   C5A 4747   3.229   1.711   8.732  0.0922  0.2941  0.3165
  297loPI   C6A 4748   3.203   1.479   8.407  0.1545 -0.0126  0.0611
  297loPI   C1B 4749   3.529   2.103   9.901 -0.4315 -0.1728 -0.0071
  297loPI   C2B 4750   3.600   1.985   9.507  0.2415 -0.2049  0.2193
  297loPI   C3B 4751   3.884   1.872   9.160 -0.0937  0.1527 -0.1181
  297loPI   C4B 4752   4.066   1.772   8.806  0.1996 -0.0166  0.1154
  298loPI    C1 4753   7.994   8.515  10.904 -0.0025 -0.2161 -0.2428
  298loPI    C2 4754   7.732   8.214  10.921 -0.0935 -0.1193  0.1453
  298loPI    C3 4755   7.812   8.429  11.249  0.1638  0.1163 -0.0673
  298loPI   PO4 4756   7.949   8.742  10.732 -0.2733 -0.3649 -0.2270
  298loPI   GL1 4757   7.960   8.696  10.332  0.1286  0.0878  0.1536
  298loPI   GL2 4758   7.946   8.881  10.250  0.0609 -0.1962  0.3580
  298loPI   C1A 4759   7.482   8.822  10.075 -0.0450  0.2782  0.2677
  298loPI   C2A 4760   7.522   8.748   9.630  0.0160 -0.1048 -0.2933
  298loPI   C3A 4761   7.459   8.694   9.200  0.0686  0.0037 -0.2025
  298loPI   C4A 4762   7.509   8.662   8.746  0.0264 -0.2188  0.0625
  298loPI   C5A 4763   7.532   8.721   8.277 -0.0489  0.4273 -0.2030
  298loPI   C6A 4764   7.249   8.878   8.166  0.0346 -0.0321 -0.0003
  298loPI   C1B 4765   8.057   8.894   9.829 -0.4039  0.0675 -0.0777
  298loPI   C2B 4766   7.953   8.958   9.427 -0.1319 -0.0491 -0.0313
  298loPI   C3B 4767   7.941   9.020   8.948 -0.1093 -0.1763 -0.3659
  298loPI   C4B 4768   8.058   9.039   8.608  0.4005  0.2560  0.3230
  299loPI    C1 4769   2.169  10.779  10.697  0.1129 -0.1226 -0.0765
  299loPI    C2 4770   2.157  10.747  11.095  0.1901 -0.1705 -0.0781
  299loPI    C3 4771   2.363  11.044  10.924  0.2095 -0.1871 -0.0834
  299loPI   PO4 4772   1.948  10.838  10.655  0.1727 -0.0399  0.3711
  299loPI   GL1 4773   1.822  10.866  10.251  0.1193  0.0436  0.2526
  299loPI   GL2 4774   1.597  11.147  10.434  0.3230 -0.0327 -0.1517
  299loPI   C1A 4775   1.723  10.806   9.840 -0.0213 -0.1186 -0.0000
  299loPI   C2A 4776   1.819  10.752   9.376  0.1605 -0.1195 -0.0288
  299loPI   C3A 4777   1.776  10.924   8.926  0.2125 -0.1185  0.0831
  299loPI   C4A 4778   1.621  11.280   8.715 -0.1660 -0.1035  0.1044
  299loPI   C5A 4779   1.616  11.782   8.665 -0.0606  0.0949  0.0096
  299loPI   C6A 4780   1.502  12.147   8.496 -0.0914  0.0340 -0.0893
  299loPI   C1B 4781   1.819  11.356  10.029 -0.2971 -0.0672 -0.1957
  299loPI   C2B 4782   1.960  11.193   9.539  0.2286 -0.2272  0.0748
  299loPI   C3B 4783   2.296  11.063   9.289  0.0229 -0.0196 -0.3225
  299loPI   C4B 4784   2.677  10.810   9.045 -0.2344  0.1632  0.0703
  300loPI    C1 4785   0.693  11.752  10.770 -0.1471  0.0137 -0.0587
  300loPI    C2 4786   0.474  12.081  10.834  0.1911  0.2006  0.1667
  300loPI    C3 4787   0.452  11.773  11.088 -0.1023  0.0565 -0.0275
  300loPI   PO4 4788   0.925  11.812  10.754 -0.2964 -0.2986 -0.3692
  300loPI   GL1 4789   1.050  12.279  10.754 -0.1114 -0.2253  0.2451
  300loPI   GL2 4790   0.827  12.286  10.569  0.2046  0.2301 -0.0483
  300loPI   C1A 4791   1.361  12.428  10.418 -0.0095 -0.1574 -0.1850
  300loPI   C2A 4792   1.403  12.291  10.022  0.0032 -0.0307 -0.1145
  300loPI   C3A 4793   1.522  12.292   9.698 -0.0647 -0.0681  0.0071
  300loPI   C4A 4794   1.572  12.208   9.259 -0.2770 -0.0454  0.0227
  300loPI   C5A 4795   1.314  12.187   8.957 -0.0377  0.0354 -0.0438
  300loPI   C6A 4796   1.066  12.283   8.685  0.0689 -0.0188  0.2072
  300loPI   C1B 4797   0.932  12.379  10.159 -0.1433  0.1903  0.0340
  300loPI   C2B 4798   0.903  12.205   9.789  0.0256 -0.1733 -0.0095
  300loPI   C3B 4799   1.220  11.957   9.529  0.0897  0.3152  0.0461
  300loPI   C4B 4800   1.361  11.749   9.107 -0.0582  0.1718 -0.1604
  301loPI    C1 4801  11.899  11.376  10.873  0.1988  0.1163 -0.0952
  301loPI    C2 4802  12.047  11.162  11.177  0.0578  0.0321 -0.0846
  301loPI    C3 4803  11.725  11.392  11.233 -0.0594 -0.1004 -0.2066
  301loPI   PO4 4804  11.844  11.222  10.657  0.0742  0.1006 -0.0639
  301loPI   GL1 4805  11.715  11.232  10.344 -0.0103  0.3066  0.0903
  301loPI   GL2 4806  11.421  11.054  10.390 -0.0158 -0.0229 -0.0785
  301loPI   C1A 4807  11.633  11.238   9.920 -0.1648 -0.0217  0.0337
  301loPI   C2A 4808  11.666  11.225   9.428  0.1832 -0.2013  0.1906
  301loPI   C3A 4809  11.440  11.305   9.059  0.3630 -0.2162 -0.0477
  301loPI   C4A 4810  11.366  11.168   8.614  0.0488  0.3332  0.0716
  301loPI   C5A 4811  11.325  10.877   8.218 -0.1638 -0.0320 -0.0039
  301loPI   C6A 4812  11.548  10.496   8.240 -0.0871  0.3951 -0.0162
  301loPI   C1B 4813  11.396  10.814   9.945  0.3233 -0.4902  0.0180
  301loPI   C2B 4814  11.279  10.842   9.505 -0.2422  0.1532 -0.0742
  301loPI   C3B 4815  11.208  10.825   9.046 -0.1118  0.3103  0.2028
  301loPI   C4B 4816  11.123  10.614   8.620 -0.2679  0.1907 -0.1171
  302loPI    C1 4817   7.169  15.173  11.102 -0.1161  0.0120 -0.0192
  302loPI    C2 4818   6.816  15.191  11.290 -0.0683  0.0704  0.0654
  302loPI    C3 4819   7.114  15.435  11.400  0.0526 -0.0945  0.1072
  302loPI   PO4 4820   7.020  15.206  10.798  0.1544 -0.0147 -0.0029
  302loPI   GL1 4821   7.031  14.892  10.408 -0.0300  0.0163 -0.3294
  302loPI   GL2 4822   6.668  14.970  10.460  0.1633  0.1434 -0.2030
  302loPI   C1A 4823   7.032  14.807   9.963  0.0994  0.1245  0.1201
  302loPI   C2A 4824   6.930  14.816   9.571 -0.1493 -0.1857 -0.0845
  302loPI   C3A 4825   6.898  14.768   9.156 -0.2796 -0.4982  0.1026
  302loPI   C4A 4826   7.019  14.858   8.765 -0.3272 -0.2245  0.2297
  302loPI   C5A 4827   6.990  15.013   8.320 -0.1292 -0.1961  0.0382
  302loPI   C6A 4828   6.648  15.042   8.092 -0.0796  0.0723 -0.1789
  302loPI   C1B 4829   6.683  15.162  10.121  0.1238 -0.0160 -0.0537
  302loPI   C2B 4830   6.581  15.395   9.769  0.0514  0.0149 -0.0274
  302loPI   C3B 4831   6.763  15.292   9.360  0.0464  0.1018 -0.1018
  302loPI   C4B 4832   6.684  15.283   8.999  0.2175 -0.1696 -0.1160
  303loPI    C1 4833   9.005   2.087  10.727  0.2599  0.0031 -0.1935
  303loPI    C2 4834   9.221   1.914  11.016  0.1530 -0.0419 -0.1400
  303loPI    C3 4835   8.859   2.063  11.098  0.2173  0.1505 -0.2002
  303loPI   PO4 4836   9.091   1.955  10.471  0.1261 -0.2123  0.0658
  303loPI   GL1 4837   8.866   1.792  10.122 -0.1527  0.1095  0.2837
  303loPI   GL2 4838   8.989   1.496  10.070 -0.1059  0.0768  0.3488
  303loPI   C1A 4839   8.790   2.042   9.832  0.0096 -0.2798  0.1596
  303loPI   C2A 4840   8.820   2.067   9.354  0.1966  0.0395  0.0260
  303loPI   C3A 4841   8.861   2.072   8.978 -0.0616  0.0140 -0.0591
  303loPI   C4A 4842   8.822   2.251   8.539 -0.1817  0.0853 -0.2364
  303loPI   C5A 4843   8.791   2.564   8.228  0.0197 -0.3714  0.1661
  303loPI   C6A 4844   8.662   2.710   7.814  0.0391 -0.2343  0.1367
  303loPI   C1B 4845   8.881   1.403   9.729 -0.0724  0.0928 -0.1722
  303loPI   C2B 4846   8.808   1.391   9.332 -0.0922 -0.1061 -0.4595
  303loPI   C3B 4847   8.875   1.516   8.843  0.3689 -0.0547 -0.0120
  303loPI   C4B 4848   8.906   1.736   8.453 -0.1522 -0.1130 -0.0260
  304loPI    C1 4849  12.419   9.577  10.781  0.3867 -0.1105  0.1535
  304loPI    C2 4850  12.479   9.279  10.522 -0.2613 -0.2243  0.1180
  304loPI    C3 4851  12.438   9.200  10.912  0.2471 -0.1008  0.2037
  304loPI   PO4 4852  12.626   9.747  10.665 -0.1155 -0.2945  0.3698
  304loPI   GL1 4853  12.738   9.716  10.267  0.1380 -0.0946  0.2696
  304loPI   GL2 4854  13.017   9.829  10.204 -0.1707 -0.2874  0.0515
  304loPI   C1A 4855  12.764   9.645   9.830  0.2896  0.1673  0.0800
  304loPI   C2A 4856  12.649   9.413   9.440  0.0532  0.1082 -0.1355
  304loPI   C3A 4857  12.700   9.381   8.963 -0.1421 -0.2932  0.0597
  304loPI   C4A 4858  12.794   9.201   8.568 -0.1066  0.2099  0.0028
  304loPI   C5A 4859  12.573   9.187   8.208 -0.1828 -0.0483 -0.0878
  304loPI   C6A 4860  12.352   9.263   7.838 -0.0623 -0.0923  0.0296
  304loPI   C1B 4861  13.155   9.968   9.917 -0.4116 -0.0302  0.1569
  304loPI   C2B 4862  13.055   9.896   9.441 -0.1743  0.1451 -0.0151
  304loPI   C3B 4863  12.834   9.900   8.985 -0.3363 -0.2069 -0.0608
  304loPI   C4B 4864  12.716   9.788   8.641 -0.3625  0.0863 -0.0486
  305loPI    C1 4865   1.603   2.809  11.029 -0.1491 -0.0873 -0.0893
  305loPI    C2 4866   1.294   3.059  11.077  0.1789  0.3217 -0.0488
  305loPI    C3 4867   1.447   2.866  11.393 -0.1916 -0.0846 -0.1079
  305loPI   PO4 4868   1.531   2.748  10.760 -0.2222 -0.1710  0.3276
  305loPI   GL1 4869   1.573   2.707  10.424  0.1733  0.2978  0.3876
  305loPI   GL2 4870   1.746   2.668  10.184  0.2697  0.0652 -0.0160
  305loPI   C1A 4871   1.296   2.895  10.059 -0.1429 -0.0254 -0.3033
  305loPI   C2A 4872   1.405   2.926   9.677  0.1527  0.2342 -0.2544
  305loPI   C3A 4873   1.599   2.879   9.327  0.0613 -0.1895  0.0901
  305loPI   C4A 4874   1.862   2.864   8.875  0.1174 -0.1624  0.0565
  305loPI   C5A 4875   2.136   2.949   8.528 -0.1651  0.0616  0.0913
  305loPI   C6A 4876   2.589   2.595   8.312  0.2094  0.0990 -0.2121
  305loPI   C1B 4877   2.021   2.605   9.891 -0.1975 -0.1522  0.1709
  305loPI   C2B 4878   2.156   2.497   9.474 -0.1636  0.1831  0.0141
  305loPI   C3B 4879   2.235   2.563   9.068 -0.0955 -0.0331  0.0727
  305loPI   C4B 4880   2.157   2.446   8.654 -0.1980  0.1077  0.3658
  306loPI    C1 4881   3.116   6.233  10.661  0.0839  0.1770 -0.2027
  306loPI    C2 4882   3.414   6.066  10.869  0.0012 -0.0602 -0.2719
  306loPI    C3 4883   3.154   6.308  11.052 -0.0553 -0.2465 -0.1022
  306loPI   PO4 4884   3.251   6.259  10.427  0.1383  0.0487  0.1342
  306loPI   GL1 4885   3.285   6.474  10.117 -0.2005  0.0516 -0.0676
  306loPI   GL2 4886   3.117   6.761  10.069 -0.0092 -0.2641 -0.3980
  306loPI   C1A 4887   3.395   6.398   9.692 -0.1708  0.0177 -0.1706
  306loPI   C2A 4888   3.435   6.253   9.224  0.0499  0.0393  0.0939
  306loPI   C3A 4889   3.443   6.042   8.841 -0.0165 -0.0607  0.1748
  306loPI   C4A 4890   3.257   6.080   8.455  0.2762 -0.3283  0.0246
  306loPI   C5A 4891   3.113   6.416   8.096  0.2645 -0.0653 -0.1177
  306loPI   C6A 4892   3.218   6.884   7.995 -0.0172  0.0825  0.0363
  306loPI   C1B 4893   2.919   6.485   9.701  0.3210  0.0232 -0.0013
  306loPI   C2B 4894   2.938   6.478   9.311  0.0009 -0.1973  0.1709
  306loPI   C3B 4895   2.987   6.370   8.928  0.0742 -0.0367  0.2100
  306loPI   C4B 4896   2.758   6.304   8.565  0.1472  0.1138  0.1260
  307loPI    C1 4897  12.079  16.589  10.676  0.3123  0.0723 -0.1374
  307loPI    C2 4898  12.174  16.350  10.983  0.1154 -0.0417 -0.1633
  307loPI    C3 4899  12.148  16.745  11.038 -0.1152 -0.0802  0.0157
  307loPI   PO4 4900  12.110  16.441  10.500 -0.0600 -0.3632  0.2012
  307loPI   GL1 4901  12.425  16.456  10.178  0.2714 -0.0246 -0.1517
  307loPI   GL2 4902  12.282  16.133  10.038 -0.2947  0.0649  0.0584
  307loPI   C1A 4903  12.474  16.802   9.935 -0.0920 -0.4075  0.1720
  307loPI   C2A 4904  12.542  16.850   9.469 -0.3508 -0.4199  0.1476
  307loPI   C3A 4905  12.540  16.695   9.004  0.2671 -0.0908 -0.1156
  307loPI   C4A 4906  12.348  16.607   8.597  0.1778  0.0459 -0.1666
  307loPI   C5A 4907  12.204  16.369   8.299  0.2180 -0.2057 -0.0273
  307loPI   C6A 4908  11.902  15.971   8.430  0.1889 -0.1376  0.0302
  307loPI   C1B 4909  12.339  16.399   9.661  0.1730  0.3216  0.1329
  307loPI   C2B 4910  12.394  16.263   9.267 -0.3418 -0.1884 -0.0539
  307loPI   C3B 4911  12.312  16.113   8.769  0.0984 -0.0016 -0.1310
  307loPI   C4B 4912  12.340  15.855   8.341 -0.3880  0.0137 -0.3291
  308loPI    C1 4913  12.125   8.735  10.934 -0.0503  0.1072  0.1160
  308loPI    C2 4914  11.849   8.447  10.903  0.1624 -0.0747 -0.1315
  308loPI    C3 4915  12.116   8.436  11.200 -0.0160  0.0349  0.0361
  308loPI   PO4 4916  12.265   8.751  10.642  0.0487 -0.1818  0.2558
  308loPI   GL1 4917  12.296   8.871  10.185  0.1313  0.3663  0.0754
  308loPI   GL2 4918  12.061   9.064  10.168 -0.1349 -0.0275 -0.0803
  308loPI   C1A 4919  12.208   8.638   9.783  0.3768  0.1011  0.0180
  308loPI   C2A 4920  12.041   8.608   9.348  0.1439  0.0096  0.0203
  308loPI   C3A 4921  12.302   8.476   9.025 -0.0139 -0.3082 -0.0647
  308loPI   C4A 4922  12.355   8.397   8.607  0.1473 -0.2152  0.0418
  308loPI   C5A 4923  12.330   8.459   8.203 -0.2636  0.2367 -0.0423
  308loPI   C6A 4924  12.295   8.143   7.848 -0.0081 -0.2405 -0.1961
  308loPI   C1B 4925  12.362   9.301   9.986 -0.0745 -0.0479  0.0981
  308loPI   C2B 4926  12.265   9.160   9.637  0.0046  0.1382  0.0123
  308loPI   C3B 4927  12.450   8.964   9.300 -0.2528 -0.0478  0.2874
  308loPI   C4B 4928  12.558   8.810   8.838 -0.0016 -0.1825 -0.1058
  309loPI    C1 4929  15.982  10.895  10.203  0.1174  0.3561 -0.1762
  309loPI    C2 4930  15.627  10.939  10.382  0.0216 -0.0865 -0.2444
  309loPI    C3 4931  15.946  11.139  10.517 -0.1459 -0.0676  0.1336
  309loPI   PO4 4932  15.989  10.609  10.107 -0.1376 -0.2082  0.1194
  309loPI   GL1 4933  15.947  10.532   9.770 -0.2415  0.0713 -0.4167
  309loPI   GL2 4934  15.756  10.333   9.648 -0.0373 -0.0794 -0.0725
  309loPI   C1A 4935  15.810  10.801   9.479  0.1046 -0.1767  0.2453
  309loPI   C2A 4936  15.900  10.824   9.085 -0.1401 -0.0498  0.0266
  309loPI   C3A 4937  15.959  10.802   8.682 -0.1853 -0.2017 -0.1237
  309loPI   C4A 4938  16.047  10.924   8.280 -0.0568 -0.0490  0.1767
  309loPI   C5A 4939  16.360  11.262   8.081 -0.2061  0.1164  0.4244
  309loPI   C6A 4940  16.358  11.432   7.683 -0.1937 -0.0685 -0.1458
  309loPI   C1B 4941  15.741  10.334   9.229  0.2191 -0.0275  0.1401
  309loPI   C2B 4942  15.723  10.265   8.816  0.1472 -0.1230  0.2130
  309loPI   C3B 4943  15.544  10.216   8.513 -0.0229  0.1004 -0.0921
  309loPI   C4B 4944  15.503  10.325   8.013  0.0053  0.1168  0.1404
  310loPI    C1 4945   4.953  11.888  11.095 -0.3142 -0.0802  0.0709
  310loPI    C2 4946   5.135  12.090  11.389  0.1294 -0.2372 -0.0871
  310loPI    C3 4947   4.818  11.860  11.470  0.0809 -0.0666  0.2193
  310loPI   PO4 4948   4.953  12.079  10.876 -0.0340  0.0073  0.1544
  310loPI   GL1 4949   5.020  11.939  10.527  0.2410 -0.1364  0.0243
  310loPI   GL2 4950   4.664  11.925  10.458 -0.1759 -0.0710 -0.0461
  310loPI   C1A 4951   5.050  11.813  10.156 -0.2398  0.0605 -0.1351
  310loPI   C2A 4952   4.932  11.703   9.717  0.0850  0.0684  0.1095
  310loPI   C3A 4953   4.971  11.799   9.381 -0.1721  0.0322 -0.1799
  310loPI   C4A 4954   4.797  12.085   9.163  0.0033 -0.0056 -0.0469
  310loPI   C5A 4955   4.911  12.410   9.033  0.2091  0.1966 -0.0939
  310loPI   C6A 4956   4.943  12.554   8.559 -0.1048  0.3291 -0.0617
  310loPI   C1B 4957   4.494  11.665  10.073 -0.2306 -0.2575  0.1093
  310loPI   C2B 4958   4.453  11.874   9.688  0.2007 -0.2892  0.3271
  310loPI   C3B 4959   4.417  11.793   9.360 -0.1459  0.2284 -0.1704
  310loPI   C4B 4960   4.342  11.747   8.885 -0.0462 -0.3794  0.0463
  311loPI    C1 4961   5.932   6.315  10.631  0.0087  0.0563  0.1107
  311loPI    C2 4962   6.184   6.496  10.884  0.0525  0.1441  0.0051
  311loPI    C3 4963   5.829   6.662  10.803  0.0427  0.1212  0.0012
  311loPI   PO4 4964   6.120   6.175  10.440 -0.5805  0.1078 -0.1330
  311loPI   GL1 4965   6.360   6.185  10.080  0.0859 -0.0448  0.1025
  311loPI   GL2 4966   6.704   6.106  10.185 -0.0483 -0.3523  0.0346
  311loPI   C1A 4967   6.169   6.453   9.666  0.0175  0.0690 -0.1488
  311loPI   C2A 4968   6.161   6.502   9.242 -0.0834 -0.1624 -0.4418
  311loPI   C3A 4969   6.093   6.534   8.855 -0.0988 -0.1629 -0.1221
  311loPI   C4A 4970   6.300   6.569   8.587  0.1326 -0.3802 -0.0075
  311loPI   C5A 4971   6.640   6.682   8.395 -0.0707  0.0185  0.2722
  311loPI   C6A 4972   6.954   6.906   8.145 -0.0216  0.3087 -0.0952
  311loPI   C1B 4973   6.709   5.848   9.794  0.1244 -0.0423 -0.1660
  311loPI   C2B 4974   6.781   5.748   9.303  0.2819 -0.1693  0.1758
  311loPI   C3B 4975   6.700   5.697   8.921 -0.0008  0.0581  0.2630
  311loPI   C4B 4976   6.686   5.605   8.546 -0.0368 -0.1131  0.0067
  312loPI    C1 4977  14.482   5.644  10.512  0.2197 -0.0511 -0.0283
  312loPI    C2 4978  14.188   5.577  10.774  0.1162 -0.0637 -0.1470
  312loPI    C3 4979  14.282   5.952  10.671  0.2482 -0.0528  0.0108
  312loPI   PO4 4980  14.390   5.465  10.323  0.0241 -0.3513  0.1151
  312loPI   GL1 4981  14.417   5.440   9.955 -0.0415  0.0754 -0.1268
  312loPI   GL2 4982  14.751   5.573   9.937 -0.1230  0.0914  0.1009
  312loPI   C1A 4983  14.235   5.515   9.633  0.1579 -0.0774  0.1099
  312loPI   C2A 4984  14.396   5.751   9.218  0.1446  0.1110  0.1289
  312loPI   C3A 4985  14.534   6.006   8.826  0.0581 -0.1379  0.0294
  312loPI   C4A 4986  14.648   6.044   8.408 -0.0003 -0.2143  0.0474
  312loPI   C5A 4987  14.888   6.007   8.034  0.1674 -0.0198  0.0508
  312loPI   C6A 4988  15.177   5.703   7.963 -0.0217  0.0469  0.1202
  312loPI   C1B 4989  14.823   5.610   9.481 -0.0241  0.0761 -0.1776
  312loPI   C2B 4990  14.804   5.619   9.003 -0.0242 -0.0357  0.0220
  312loPI   C3B 4991  14.888   5.656   8.627 -0.0339  0.1472 -0.5196
  312loPI   C4B 4992  14.717   5.583   8.257 -0.1293  0.0574  0.0234
  313loPI    C1 4993  12.980  11.847  10.630 -0.0738  0.0846 -0.0497
  313loPI    C2 4994  13.275  11.860  10.899  0.0749 -0.0114 -0.2065
  313loPI    C3 4995  12.944  11.650  10.976  0.0414  0.1053 -0.0256
  313loPI   PO4 4996  12.880  12.113  10.468  0.0092 -0.0480  0.1667
  313loPI   GL1 4997  12.814  12.289   9.999 -0.0383 -0.4157 -0.1075
  313loPI   GL2 4998  12.595  12.495  10.010 -0.0524  0.2019 -0.0220
  313loPI   C1A 4999  12.959  12.132   9.687 -0.2212 -0.3858  0.2058
  313loPI   C2A 5000  12.853  11.973   9.237 -0.1912  0.1201 -0.1540
  313loPI   C3A 5001  12.655  11.741   8.997  0.2157 -0.0831 -0.0285
  313loPI   C4A 5002  12.601  11.462   8.658 -0.0099 -0.0821  0.0580
  313loPI   C5A 5003  12.362  11.238   8.439 -0.1285 -0.0290 -0.0646
  313loPI   C6A 5004  12.219  11.195   8.080  0.2358  0.2244  0.0398
  313loPI   C1B 5005  12.591  12.433   9.571 -0.1068 -0.0551  0.0956
  313loPI   C2B 5006  12.417  12.170   9.216  0.2226 -0.0340 -0.2212
  313loPI   C3B 5007  12.309  12.041   8.797 -0.0670 -0.3333 -0.0655
  313loPI   C4B 5008  11.945  12.031   8.489 -0.2350 -0.0720 -0.3653
  314loPI    C1 5009   9.731  11.714  10.752  0.1343  0.2195 -0.0775
  314loPI    C2 5010   9.581  11.736  11.122  0.0223 -0.0168 -0.1066
  314loPI    C3 5011   9.341  11.784  10.806  0.0821 -0.0059 -0.1506
  314loPI   PO4 5012   9.895  11.441  10.742 -0.1587  0.0126  0.2832
  314loPI   GL1 5013  10.129  11.632  10.404  0.1954 -0.1752 -0.1750
  314loPI   GL2 5014  10.333  11.564  10.554  0.2665  0.0669 -0.1061
  314loPI   C1A 5015   9.882  11.492  10.129  0.1793  0.1063  0.0681
  314loPI   C2A 5016   9.686  11.377   9.721  0.0970  0.2600  0.1199
  314loPI   C3A 5017   9.652  11.544   9.350  0.1938 -0.1187  0.1445
  314loPI   C4A 5018   9.547  11.723   8.971 -0.0970 -0.2521 -0.0786
  314loPI   C5A 5019   9.379  11.776   8.564 -0.3005 -0.3318 -0.2840
  314loPI   C6A 5020   9.021  11.534   8.276  0.2132 -0.1757  0.2992
  314loPI   C1B 5021  10.397  11.303  10.204  0.0001  0.1188  0.0563
  314loPI   C2B 5022  10.294  11.356   9.768  0.2811  0.0191 -0.1613
  314loPI   C3B 5023  10.060  11.222   9.449 -0.3495  0.2685  0.1524
  314loPI   C4B 5024   9.936  11.282   9.027 -0.1257  0.3091  0.0113
  315loPI    C1 5025  10.958  11.037  10.950  0.1028  0.1198 -0.0487
  315loPI    C2 5026  10.674  11.084  10.672  0.1371  0.0281 -0.1002
  315loPI    C3 5027  10.581  10.930  11.030  0.0821  0.1993 -0.0398
  315loPI   PO4 5028  11.155  10.872  10.787 -0.1496 -0.0517 -0.0907
  315loPI   GL1 5029  11.000  10.774  10.442  0.2882  0.1582 -0.0713
  315loPI   GL2 5030  11.069  10.499  10.259  0.2359  0.1422  0.2668
  315loPI   C1A 5031  10.959  11.014  10.155 -0.3096 -0.1442 -0.0281
  315loPI   C2A 5032  10.920  11.224   9.804 -0.2218 -0.0409  0.2066
  315loPI   C3A 5033  11.003  11.258   9.430 -0.1248  0.2319 -0.0358
  315loPI   C4A 5034  10.925  11.207   9.013 -0.0412 -0.0251 -0.0222
  315loPI   C5A 5035  10.847  11.093   8.610  0.1139  0.0370 -0.0533
  315loPI   C6A 5036  10.859  10.799   8.240 -0.1516  0.2740 -0.0116
  315loPI   C1B 5037  10.951  10.639   9.801  0.0174  0.1375 -0.1361
  315loPI   C2B 5038  10.839  10.707   9.348 -0.0041  0.0172 -0.2107
  315loPI   C3B 5039  10.685  10.732   8.931 -0.1028  0.3257  0.0513
  315loPI   C4B 5040  10.418  10.777   8.553 -0.1224 -0.0380  0.2869
  316loPI    C1 5041   1.099   7.215  10.736  0.1015  0.2373 -0.0994
  316loPI    C2 5042   1.084   6.910  10.995 -0.1721  0.0342 -0.3481
  316loPI    C3 5043   0.853   7.232  11.050  0.0593  0.1661 -0.1284
  316loPI   PO4 5044   1.036   7.147  10.503  0.0796 -0.0944  0.1636
  316loPI   GL1 5045   0.973   6.960  10.141  0.0351  0.0210  0.2267
  316loPI   GL2 5046   0.671   6.775  10.061 -0.1689  0.2079 -0.0577
  316loPI   C1A 5047   1.321   7.160   9.916  0.1966  0.0352  0.0475
  316loPI   C2A 5048   1.605   6.990   9.617  0.2721  0.0048  0.1228
  316loPI   C3A 5049   1.622   6.855   9.162  0.0683  0.4054 -0.0095
  316loPI   C4A 5050   1.383   6.765   8.816  0.1894  0.1855 -0.1131
  316loPI   C5A 5051   1.241   6.570   8.385 -0.3269 -0.1701  0.2468
  316loPI   C6A 5052   1.112   6.448   8.028 -0.0687  0.2410  0.2418
  316loPI   C1B 5053   0.613   6.771   9.771 -0.1245 -0.0577 -0.1962
  316loPI   C2B 5054   0.667   6.659   9.439  0.2112  0.2218  0.1292
  316loPI   C3B 5055   0.931   6.654   9.075  0.2891 -0.0731 -0.1251
  316loPI   C4B 5056   1.013   6.477   8.794 -0.1193 -0.0287  0.1236
  317loPI    C1 5057  17.015  17.497  10.746 -0.1104 -0.0307  0.0980
  317loPI    C2 5058  17.082  17.372  11.120 -0.1315 -0.1367  0.0666
  317loPI    C3 5059  16.849  17.690  11.055 -0.0857 -0.0862  0.1464
  317loPI   PO4 5060  16.923  17.196  10.631 -0.1138 -0.1130  0.0919
  317loPI   GL1 5061  16.690  17.136  10.309  0.0228 -0.0431  0.0345
  317loPI   GL2 5062  16.537  17.424  10.304  0.0926 -0.1025  0.4269
  317loPI   C1A 5063  16.905  17.134   9.922 -0.2563  0.1648  0.0211
  317loPI   C2A 5064  16.684  17.182   9.557  0.0307 -0.0566 -0.2509
  317loPI   C3A 5065  16.538  17.315   9.131  0.2288 -0.0618 -0.0094
  317loPI   C4A 5066  16.512  17.332   8.681  0.0388  0.0761 -0.1326
  317loPI   C5A 5067  16.490  17.537   8.333 -0.2303 -0.1062  0.0448
  317loPI   C6A 5068  16.642  17.812   8.005 -0.2005  0.0876 -0.0258
  317loPI   C1B 5069  16.527  17.439   9.885  0.0959 -0.2982 -0.1014
  317loPI   C2B 5070  16.454  17.634   9.501 -0.2002 -0.1497 -0.2642
  317loPI   C3B 5071  16.331  17.822   9.162 -0.1148  0.0743  0.1976
  317loPI   C4B 5072  16.433  17.818   8.769  0.0327  0.0172  0.0096
  318loPI    C1 5073  13.495   0.602  10.686  0.1023 -0.2685 -0.0502
  318loPI    C2 5074  13.486   0.255  10.885 -0.0305 -0.1365  0.1768
  318loPI    C3 5075  13.461   0.602  11.085  0.3587  0.0125 -0.0243
  318loPI   PO4 5076  13.309   0.491  10.445  0.2965 -0.0814 -0.1353
  318loPI   GL1 5077  13.278   0.582  10.087 -0.3364 -0.0288  0.3854
  318loPI   GL2 5078  13.023   0.713   9.966  0.1941 -0.0197 -0.3269
  318loPI   C1A 5079  13.415   0.590   9.724 -0.0775  0.1182 -0.0052
  318loPI   C2A 5080  13.411   0.529   9.261 -0.2818  0.1596 -0.4046
  318loPI   C3A 5081  13.271   0.463   8.830  0.0147 -0.0320 -0.0190
  318loPI   C4A 5082  12.951   0.245   8.666  0.3814  0.0885 -0.0130
  318loPI   C5A 5083  12.866  -0.026   8.323 -0.0947 -0.0593  0.0570
  318loPI   C6A 5084  12.943  -0.376   8.049 -0.1731 -0.0971  0.0345
  318loPI   C1B 5085  13.120   0.906   9.512  0.0727  0.0786 -0.1908
  318loPI   C2B 5086  13.191   1.043   9.082  0.2632  0.0151  0.2000
  318loPI   C3B 5087  13.206   1.000   8.585 -0.0239 -0.3160 -0.1415
  318loPI   C4B 5088  13.067   1.385   8.315  0.1094  0.0631  0.2519
  319loPI    C1 5089   1.356   1.632  10.588 -0.1429  0.0940 -0.0749
  319loPI    C2 5090   1.181   1.651  10.946  0.2079  0.0520  0.1035
  319loPI    C3 5091   1.506   1.872  10.871  0.1134  0.0903 -0.2041
  319loPI   PO4 5092   1.254   1.330  10.515 -0.1481 -0.0386  0.2004
  319loPI   GL1 5093   1.521   1.089  10.315  0.2482 -0.1122  0.4870
  319loPI   GL2 5094   1.700   1.337  10.208 -0.1122  0.0072 -0.1293
  319loPI   C1A 5095   1.897   0.998   9.912 -0.2745 -0.0196  0.0686
  319loPI   C2A 5096   1.981   1.006   9.503  0.0738 -0.1316 -0.1127
  319loPI   C3A 5097   2.040   1.095   9.122 -0.0011 -0.0236  0.1015
  319loPI   C4A 5098   2.169   1.036   8.644 -0.0025  0.1518 -0.0297
  319loPI   C5A 5099   2.361   0.944   8.264 -0.0627 -0.3440  0.3016
  319loPI   C6A 5100   2.301   0.506   8.023 -0.0278 -0.3090 -0.0030
  319loPI   C1B 5101   1.517   1.342   9.787 -0.0249 -0.0002  0.0628
  319loPI   C2B 5102   1.674   1.433   9.363 -0.1102 -0.1308 -0.0718
  319loPI   C3B 5103   1.726   1.362   8.862 -0.1736 -0.2186 -0.0803
  319loPI   C4B 5104   1.629   1.177   8.481 -0.2325  0.4007 -0.1180
  320loPI    C1 5105   9.301   2.869  10.816  0.1457 -0.4262  0.0409
  320loPI    C2 5106   9.667   2.768  10.941  0.2672  0.0165  0.0618
  320loPI    C3 5107   9.405   2.930  11.197  0.1523 -0.0399 -0.0189
  320loPI   PO4 5108   9.329   3.001  10.615 -0.0718  0.0479 -0.3835
  320loPI   GL1 5109   9.072   3.227  10.280  0.0412  0.0071  0.0688
  320loPI   GL2 5110   8.870   3.432  10.130  0.1070 -0.3660 -0.1928
  320loPI   C1A 5111   9.268   3.136   9.754 -0.0151 -0.0241 -0.0393
  320loPI   C2A 5112   9.156   2.860   9.486  0.1097 -0.0504 -0.1162
  320loPI   C3A 5113   9.249   2.863   9.058  0.2362  0.0385  0.0801
  320loPI   C4A 5114   9.360   3.112   8.630 -0.1165  0.0882  0.0879
  320loPI   C5A 5115   9.515   3.328   8.248 -0.4052 -0.2266 -0.1075
  320loPI   C6A 5116   9.597   3.175   7.842  0.1094 -0.0367  0.1039
  320loPI   C1B 5117   8.796   3.629   9.662 -0.0596  0.1102 -0.0907
  320loPI   C2B 5118   8.696   3.724   9.214  0.0473 -0.2612 -0.2099
  320loPI   C3B 5119   8.719   3.506   8.801  0.0754  0.0026  0.2248
  320loPI   C4B 5120   8.975   3.419   8.442 -0.1340 -0.0508 -0.2486
  321loPI    C1 5121  11.747  16.991  10.828  0.0550 -0.3628  0.1721
  321loPI    C2 5122  11.361  16.948  10.925  0.0082 -0.1464  0.0878
  321loPI    C3 5123  11.642  16.934  11.210 -0.0867 -0.0127  0.1891
  321loPI   PO4 5124  11.761  17.112  10.645  0.2620  0.0993 -0.0014
  321loPI   GL1 5125  11.914  17.210  10.211 -0.2521  0.1591  0.0232
  321loPI   GL2 5126  12.004  16.944  10.191  0.0736 -0.4037 -0.0225
  321loPI   C1A 5127  12.145  17.324   9.807 -0.1403 -0.2332  0.0751
  321loPI   C2A 5128  12.226  17.215   9.379 -0.1603  0.0075  0.1066
  321loPI   C3A 5129  12.498  17.334   9.131 -0.1236  0.0782  0.1429
  321loPI   C4A 5130  12.791  17.161   8.992  0.0159 -0.0652  0.0221
  321loPI   C5A 5131  12.888  17.367   8.670 -0.5044  0.1210  0.0863
  321loPI   C6A 5132  13.167  17.224   8.342 -0.2986  0.0096 -0.0696
  321loPI   C1B 5133  12.023  16.802   9.789  0.1407 -0.1517 -0.1375
  321loPI   C2B 5134  12.018  16.711   9.347  0.0610 -0.2181  0.1016
  321loPI   C3B 5135  12.020  16.516   9.066 -0.1558 -0.2393  0.0002
  321loPI   C4B 5136  11.841  16.453   8.781  0.0294 -0.2309  0.0145
  322loPI    C1 5137   6.043   2.044  11.053  0.0304 -0.0253  0.2562
  322loPI    C2 5138   5.812   2.214  11.332 -0.0528 -0.0469  0.2009
  322loPI    C3 5139   6.137   2.008  11.440  0.0783  0.1911  0.2658
  322loPI   PO4 5140   5.887   2.022  10.885  0.0655  0.3526 -0.1426
  322loPI   GL1 5141   5.772   2.130  10.476  0.1717  0.3265 -0.0403
  322loPI   GL2 5142   5.630   2.437  10.432  0.2117  0.0752 -0.1113
  322loPI   C1A 5143   6.031   2.176  10.044  0.2916  0.0651  0.0991
  322loPI   C2A 5144   5.998   2.149   9.535  0.3043  0.0476 -0.1931
  322loPI   C3A 5145   6.023   2.209   9.142  0.2057  0.0345 -0.2652
  322loPI   C4A 5146   6.122   2.298   8.643  0.0022 -0.3534 -0.0107
  322loPI   C5A 5147   5.738   2.295   8.310 -0.0616  0.1051  0.3861
  322loPI   C6A 5148   5.695   2.166   7.826 -0.0160 -0.1961  0.0063
  322loPI   C1B 5149   5.669   2.453   9.890  0.0937  0.4346 -0.3656
  322loPI   C2B 5150   5.680   2.549   9.483 -0.2760  0.0503 -0.3325
  322loPI   C3B 5151   5.611   2.640   8.993 -0.0241 -0.0525 -0.2412
  322loPI   C4B 5152   5.705   2.634   8.630  0.1116 -0.1703  0.1184
  323loPI    C1 5153  10.307   7.484  10.461  0.0358  0.0735 -0.0770
  323loPI    C2 5154  10.493   7.183  10.275 -0.2606 -0.2143  0.0805
  323loPI    C3 5155  10.450   7.175  10.673 -0.2413  0.0556  0.0893
  323loPI   PO4 5156  10.414   7.768  10.379 -0.4718 -0.2106 -0.0012
  323loPI   GL1 5157  10.079   7.902  10.051 -0.1490 -0.0075 -0.1594
  323loPI   GL2 5158  10.222   7.661   9.935 -0.0190 -0.1974  0.0828
  323loPI   C1A 5159  10.106   8.181   9.762  0.0120 -0.2286  0.0735
  323loPI   C2A 5160  10.324   8.372   9.296  0.2323  0.3671 -0.1257
  323loPI   C3A 5161  10.452   8.430   8.863 -0.1272 -0.0022 -0.1636
  323loPI   C4A 5162  10.432   8.567   8.477 -0.1083  0.2112 -0.0411
  323loPI   C5A 5163   9.991   8.620   8.173  0.1953 -0.0384 -0.0353
  323loPI   C6A 5164   9.918   8.690   7.741  0.1870 -0.1156  0.0216
  323loPI   C1B 5165  10.165   7.763   9.476  0.2346  0.3938  0.1832
  323loPI   C2B 5166  10.208   7.939   9.121  0.0946  0.1717  0.3493
  323loPI   C3B 5167  10.013   7.941   8.838 -0.2237  0.2562  0.0572
  323loPI   C4B 5168   9.821   7.790   8.371  0.1941 -0.0495 -0.2529
  324loPI    C1 5169  10.869   4.154  10.396  0.2018 -0.0461  0.0405
  324loPI    C2 5170  11.028   4.462  10.595  0.1457  0.0478 -0.0584
  324loPI    C3 5171  10.843   4.169  10.795  0.0606  0.1579  0.0250
  324loPI   PO4 5172  10.715   4.235  10.235 -0.0201 -0.0106 -0.0702
  324loPI   GL1 5173  10.586   4.499   9.851  0.1198  0.0270 -0.0060
  324loPI   GL2 5174  10.404   4.828   9.908  0.1603 -0.4239  0.1947
  324loPI   C1A 5175  10.732   4.469   9.408  0.0182 -0.1315 -0.2456
  324loPI   C2A 5176  10.610   4.597   9.006  0.0661 -0.0075 -0.2513
  324loPI   C3A 5177  10.409   4.826   8.642  0.2715 -0.1581  0.3927
  324loPI   C4A 5178  10.040   4.894   8.255 -0.0025  0.0600  0.3822
  324loPI   C5A 5179   9.739   4.834   7.920 -0.1943 -0.2543 -0.0682
  324loPI   C6A 5180   9.334   5.093   7.700 -0.1780  0.0003  0.3543
  324loPI   C1B 5181  10.330   4.878   9.463 -0.1652  0.1395 -0.1522
  324loPI   C2B 5182  10.176   4.868   9.052 -0.2339  0.2641 -0.0228
  324loPI   C3B 5183   9.885   4.806   8.746 -0.0754 -0.0345  0.1150
  324loPI   C4B 5184   9.673   4.627   8.519  0.3372  0.0416  0.0604
  325loPI    C1 5185   0.944  10.222  10.719  0.1656  0.3480  0.0584
  325loPI    C2 5186   1.035  10.146  11.101  0.1365  0.3135  0.0585
  325loPI    C3 5187   0.667  10.268  11.004  0.1341  0.2896  0.0373
  325loPI   PO4 5188   0.962   9.945  10.504  0.1390 -0.1862 -0.1827
  325loPI   GL1 5189   0.735   9.752  10.075  0.1193 -0.3452 -0.1439
  325loPI   GL2 5190   0.571  10.133  10.210  0.1938  0.1521  0.1768
  325loPI   C1A 5191   0.619   9.557   9.733  0.1780 -0.1579  0.0619
  325loPI   C2A 5192   0.818   9.341   9.327  0.0127  0.0116 -0.0227
  325loPI   C3A 5193   0.922   9.442   8.936  0.2580  0.1155 -0.1523
  325loPI   C4A 5194   1.098   9.570   8.525  0.1562 -0.0123  0.2375
  325loPI   C5A 5195   1.151   9.402   8.165 -0.1356  0.3481 -0.3583
  325loPI   C6A 5196   1.022   9.053   7.933  0.3428  0.1119  0.1080
  325loPI   C1B 5197   0.571  10.161   9.767  0.2021  0.0890 -0.0954
  325loPI   C2B 5198   0.436  10.170   9.397  0.1075  0.0460  0.2767
  325loPI   C3B 5199   0.234  10.225   9.079  0.0162  0.1144  0.0339
  325loPI   C4B 5200   0.009  10.219   8.682  0.0582  0.0317 -0.1024
  326loPI    C1 5201   8.011   1.083  11.095 -0.0932 -0.0082 -0.0843
  326loPI    C2 5202   7.717   1.203  11.338 -0.0510 -0.1412  0.0336
  326loPI    C3 5203   8.090   1.165  11.478 -0.0175 -0.1731 -0.0636
  326loPI   PO4 5204   7.979   1.206  10.873 -0.1199  0.0863  0.3116
  326loPI   GL1 5205   7.802   0.964  10.512  0.0005 -0.0407 -0.0173
  326loPI   GL2 5206   7.613   0.762  10.515  0.1149 -0.0014  0.2407
  326loPI   C1A 5207   7.889   0.937  10.099 -0.0777 -0.2318 -0.0825
  326loPI   C2A 5208   7.961   0.944   9.653  0.3547 -0.0905  0.0507
  326loPI   C3A 5209   7.896   0.964   9.167  0.1174  0.2002  0.0293
  326loPI   C4A 5210   7.983   0.862   8.697 -0.2172 -0.0895  0.2360
  326loPI   C5A 5211   8.289   0.881   8.416  0.1636  0.0010 -0.2118
  326loPI   C6A 5212   8.288   0.835   7.964 -0.1809 -0.3151 -0.0406
  326loPI   C1B 5213   7.313   0.886  10.200 -0.1860 -0.0075  0.1360
  326loPI   C2B 5214   7.346   1.137   9.902  0.1917  0.0496  0.1028
  326loPI   C3B 5215   7.118   1.254   9.563 -0.1179 -0.0465  0.0399
  326loPI   C4B 5216   7.122   1.191   9.208  0.0470 -0.3680  0.2083
  327loPI    C1 5217  11.273   9.556  10.691  0.1655 -0.0231 -0.0203
  327loPI    C2 5218  11.081   9.312  10.943  0.0265  0.1866  0.0805
  327loPI    C3 5219  11.232   9.657  11.076 -0.2527  0.4105 -0.1680
  327loPI   PO4 5220  11.380   9.366  10.535 -0.1247 -0.3729  0.1524
  327loPI   GL1 5221  11.581   9.320  10.209  0.0884  0.2014 -0.0957
  327loPI   GL2 5222  11.412   9.041  10.164  0.1682 -0.1429  0.2415
  327loPI   C1A 5223  11.306   9.271   9.687  0.2397  0.0041 -0.1987
  327loPI   C2A 5224  11.418   8.972   9.380 -0.0437 -0.1346  0.1816
  327loPI   C3A 5225  11.425   9.024   9.011  0.0454  0.0060  0.1491
  327loPI   C4A 5226  11.218   9.014   8.653  0.1425 -0.1888 -0.0604
  327loPI   C5A 5227  11.263   8.974   8.127 -0.0922 -0.2797 -0.2502
  327loPI   C6A 5228  11.274   9.015   7.624 -0.3258 -0.0188 -0.1255
  327loPI   C1B 5229  11.312   8.765   9.828  0.2931  0.1035  0.5360
  327loPI   C2B 5230  11.128   8.537   9.591  0.1351 -0.1537  0.1560
  327loPI   C3B 5231  11.062   8.654   9.097 -0.1583  0.0336 -0.0432
  327loPI   C4B 5232  10.932   8.559   8.725 -0.3313 -0.4241  0.2399
  328loPI    C1 5233   3.055   2.957  10.900 -0.1708  0.2159  0.1946
  328loPI    C2 5234   2.755   2.735  11.044 -0.2656  0.0309 -0.2720
  328loPI    C3 5235   3.132   2.603  11.069 -0.2278  0.2106  0.2096
  328loPI   PO4 5236   2.989   2.984  10.643 -0.0609  0.0382  0.1883
  328loPI   GL1 5237   2.781   3.102  10.382  0.1916 -0.0175 -0.0217
  328loPI   GL2 5238   2.483   3.140  10.264 -0.0964  0.0666  0.2039
  328loPI   C1A 5239   2.934   2.854  10.002  0.0189 -0.3316 -0.2434
  328loPI   C2A 5240   3.117   2.936   9.512 -0.2992  0.3083  0.2362
  328loPI   C3A 5241   3.374   2.792   9.242  0.0854 -0.2943 -0.0321
  328loPI   C4A 5242   3.433   2.758   8.839  0.1558 -0.3671 -0.0465
  328loPI   C5A 5243   3.151   2.937   8.576  0.0862  0.0274  0.0897
  328loPI   C6A 5244   2.994   3.028   8.077  0.1208  0.0132 -0.0286
  328loPI   C1B 5245   2.378   2.989   9.813  0.0374  0.3401  0.3132
  328loPI   C2B 5246   2.595   2.828   9.448 -0.1503  0.0423 -0.1214
  328loPI   C3B 5247   2.839   2.805   9.117 -0.0386 -0.3348 -0.0481
  328loPI   C4B 5248   2.936   2.536   8.845  0.0814  0.0382  0.1887
  329loPI    C1 5249  16.547  16.364  10.799 -0.3988  0.1042 -0.0266
  329loPI    C2 5250  16.705  16.731  10.773  0.2153 -0.1360  0.1268
  329loPI    C3 5251  16.625  16.573  11.131 -0.0683 -0.1492  0.0606
  329loPI   PO4 5252  16.617  16.291  10.525 -0.4726  0.0916 -0.1496
  329loPI   GL1 5253  16.707  15.986  10.249  0.0737 -0.0702  0.1527
  329loPI   GL2 5254  16.405  15.876  10.193 -0.1714 -0.1410 -0.0399
  329loPI   C1A 5255  16.893  15.747   9.848  0.2152  0.2265  0.2644
  329loPI   C2A 5256  16.951  15.834   9.409 -0.2858  0.0210  0.1220
  329loPI   C3A 5257  16.910  15.843   8.990 -0.0705 -0.0582 -0.1116
  329loPI   C4A 5258  16.798  15.836   8.568  0.3908  0.2255  0.1742
  329loPI   C5A 5259  16.445  15.698   8.291 -0.0995  0.0215  0.0858
  329loPI   C6A 5260  16.028  15.802   8.117  0.2654  0.1923 -0.1016
  329loPI   C1B 5261  16.361  15.868   9.766 -0.1342 -0.1162 -0.0068
  329loPI   C2B 5262  16.441  15.565   9.516 -0.0420  0.1054 -0.0530
  329loPI   C3B 5263  16.542  15.471   9.128  0.0740  0.2067 -0.2902
  329loPI   C4B 5264  16.678  15.389   8.704  0.0904  0.1544 -0.0659
  330loPI    C1 5265  16.728   1.339  10.854  0.0438  0.0700 -0.2484
  330loPI    C2 5266  16.927   1.072  10.632  0.2821  0.2179 -0.2157
  330loPI    C3 5267  16.887   1.015  11.026 -0.0156  0.0292 -0.2696
  330loPI   PO4 5268  16.789   1.540  10.598 -0.0546 -0.1013 -0.2928
  330loPI   GL1 5269  16.779   1.725  10.263  0.4327 -0.2685 -0.0376
  330loPI   GL2 5270  16.476   1.745  10.175  0.1990  0.1211 -0.1358
  330loPI   C1A 5271  16.821   1.571   9.831 -0.4283  0.2436 -0.0307
  330loPI   C2A 5272  16.783   1.631   9.430 -0.0318  0.0467  0.0526
  330loPI   C3A 5273  16.927   1.631   8.981 -0.0553 -0.0688  0.1848
  330loPI   C4A 5274  17.048   1.455   8.576  0.2097 -0.0310 -0.2747
  330loPI   C5A 5275  17.122   1.075   8.352 -0.1596 -0.0000  0.2648
  330loPI   C6A 5276  16.878   0.753   8.121  0.1462 -0.0752 -0.1134
  330loPI   C1B 5277  16.288   1.695   9.904  0.0563  0.3569 -0.2699
  330loPI   C2B 5278  16.284   1.772   9.541 -0.3151 -0.3071  0.0670
  330loPI   C3B 5279  16.303   1.747   9.097  0.0572 -0.2772 -0.1711
  330loPI   C4B 5280  16.507   1.734   8.628  0.3900 -0.2590 -0.0734
  331loPI    C1 5281   2.341  14.567  11.110 -0.1859  0.1709 -0.0058
  331loPI    C2 5282   2.353  14.940  11.255  0.0946  0.0639  0.2570
  331loPI    C3 5283   2.115  14.666  11.424 -0.1305  0.1272  0.0482
  331loPI   PO4 5284   2.481  14.624  10.802  0.1057 -0.5100 -0.0193
  331loPI   GL1 5285   2.459  14.949  10.393 -0.1138  0.2999  0.2253
  331loPI   GL2 5286   2.430  15.211  10.395  0.0626  0.0361  0.0157
  331loPI   C1A 5287   2.581  14.898   9.938 -0.0097 -0.2553 -0.1630
  331loPI   C2A 5288   2.596  15.089   9.515  0.2033 -0.1038 -0.0346
  331loPI   C3A 5289   2.668  15.324   9.165 -0.0876  0.1740  0.0429
  331loPI   C4A 5290   2.941  15.295   8.730 -0.1400 -0.2111  0.2359
  331loPI   C5A 5291   3.132  15.313   8.330  0.1626 -0.2519  0.3610
  331loPI   C6A 5292   3.266  15.051   7.982 -0.2684 -0.3328  0.2287
  331loPI   C1B 5293   2.322  15.344  10.066 -0.0698 -0.0912 -0.0200
  331loPI   C2B 5294   2.266  15.380   9.699 -0.1379 -0.0076 -0.1874
  331loPI   C3B 5295   2.180  15.271   9.234 -0.1220  0.1747  0.0075
  331loPI   C4B 5296   1.866  15.257   8.815  0.0613  0.0085  0.0440
  332loPI    C1 5297   1.941   4.026  11.076 -0.0892 -0.2508  0.1393
  332loPI    C2 5298   1.780   4.392  11.064 -0.1379 -0.2770 -0.0257
  332loPI    C3 5299   1.828   4.206  11.415 -0.1400 -0.1246  0.0561
  332loPI   PO4 5300   2.082   4.052  10.760 -0.2573  0.2951  0.1514
  332loPI   GL1 5301   2.486   3.994  10.523  0.3161 -0.2331  0.2536
  332loPI   GL2 5302   2.775   4.196  10.382 -0.0322 -0.0821  0.0442
  332loPI   C1A 5303   2.411   3.916   9.995 -0.2383  0.3994  0.1009
  332loPI   C2A 5304   2.384   3.963   9.600  0.0168 -0.0993 -0.0014
  332loPI   C3A 5305   2.419   4.146   9.218 -0.1871  0.0422 -0.1392
  332loPI   C4A 5306   2.572   4.226   8.830  0.0724  0.3715  0.0000
  332loPI   C5A 5307   2.380   4.219   8.378 -0.0812  0.1145  0.2251
  332loPI   C6A 5308   1.963   4.139   8.193  0.1217 -0.3142 -0.1360
  332loPI   C1B 5309   2.849   4.283  10.083 -0.2057  0.0686 -0.0816
  332loPI   C2B 5310   2.821   4.248   9.645 -0.1796 -0.1239  0.1061
  332loPI   C3B 5311   2.832   4.439   9.233 -0.0923  0.1057  0.1687
  332loPI   C4B 5312   3.062   4.679   8.984  0.0387  0.0455 -0.1482
  333loPI    C1 5313   9.873   1.691  10.846  0.0305  0.0248  0.1141
  333loPI    C2 5314   9.806   1.776  11.231  0.0762 -0.0267  0.1337
  333loPI    C3 5315  10.167   1.841  11.071  0.0729 -0.0569  0.1138
  333loPI   PO4 5316   9.572   1.814  10.709 -0.0951  0.2853  0.3190
  333loPI   GL1 5317   9.594   1.993  10.295  0.1967  0.1040 -0.0615
  333loPI   GL2 5318   9.417   1.742  10.210 -0.0002  0.2089 -0.0718
  333loPI   C1A 5319   9.689   2.107   9.906 -0.0627  0.3811 -0.2320
  333loPI   C2A 5320   9.650   2.018   9.508 -0.0890 -0.0229 -0.2831
  333loPI   C3A 5321   9.683   2.036   9.125 -0.3884  0.0904 -0.0136
  333loPI   C4A 5322   9.694   1.805   8.806 -0.1803  0.0246 -0.2629
  333loPI   C5A 5323   9.602   1.570   8.427  0.0049 -0.2050 -0.2094
  333loPI   C6A 5324   9.753   1.294   8.188  0.2688 -0.0409  0.0847
  333loPI   C1B 5325   9.307   1.815   9.839 -0.0839  0.1200  0.1886
  333loPI   C2B 5326   9.221   1.712   9.527 -0.4371 -0.2565  0.1267
  333loPI   C3B 5327   9.210   1.784   9.153 -0.3090  0.0934 -0.0804
  333loPI   C4B 5328   9.256   1.931   8.697  0.1371  0.0260  0.2134
  334loPI    C1 5329  15.443  11.053  10.834 -0.0216  0.2370 -0.0019
  334loPI    C2 5330  15.807  10.931  10.945 -0.0133  0.3175  0.0598
  334loPI    C3 5331  15.509  10.940  11.212 -0.1550 -0.1037 -0.0765
  334loPI   PO4 5332  15.432  11.305  10.711  0.1434  0.0045 -0.1300
  334loPI   GL1 5333  15.638  11.452  10.346  0.1511  0.0200  0.6699
  334loPI   GL2 5334  15.900  11.472  10.158 -0.0387  0.2790  0.0181
  334loPI   C1A 5335  15.514  11.241   9.979 -0.2259 -0.4233  0.1805
  334loPI   C2A 5336  15.559  11.250   9.549 -0.2066 -0.2169  0.0319
  334loPI   C3A 5337  15.445  11.323   9.114  0.2443 -0.0325  0.0672
  334loPI   C4A 5338  15.102  11.219   8.853 -0.0836 -0.0864  0.3066
  334loPI   C5A 5339  15.016  11.422   8.561  0.0570  0.1541 -0.0070
  334loPI   C6A 5340  15.348  11.638   8.230  0.1568  0.0160  0.0462
  334loPI   C1B 5341  16.024  11.317   9.784 -0.1477 -0.0383 -0.0788
  334loPI   C2B 5342  15.988  11.246   9.394 -0.0533 -0.0495  0.0481
  334loPI   C3B 5343  16.102  11.281   9.072  0.2099 -0.0534  0.1287
  334loPI   C4B 5344  16.173  11.344   8.630 -0.0110 -0.0359  0.0064
  335loPI    C1 5345   7.578   3.080  10.733 -0.0403 -0.0607  0.1363
  335loPI    C2 5346   7.492   2.878  11.067 -0.1987 -0.2206  0.0010
  335loPI    C3 5347   7.871   2.974  10.984 -0.1275 -0.4178  0.0929
  335loPI   PO4 5348   7.565   2.973  10.544 -0.0579 -0.1804 -0.3706
  335loPI   GL1 5349   7.691   2.933  10.106 -0.0679  0.1639 -0.3220
  335loPI   GL2 5350   7.884   3.175  10.157 -0.2109 -0.0144  0.0833
  335loPI   C1A 5351   7.554   2.724   9.810 -0.2503 -0.1533  0.1716
  335loPI   C2A 5352   7.491   2.687   9.355 -0.3751 -0.3601  0.0405
  335loPI   C3A 5353   7.395   2.634   8.941  0.1096 -0.3689 -0.1432
  335loPI   C4A 5354   7.282   2.590   8.455  0.1250 -0.0557  0.0790
  335loPI   C5A 5355   7.504   2.880   8.153 -0.4868 -0.2795 -0.1681
  335loPI   C6A 5356   7.747   3.025   7.773  0.1239  0.2140  0.0290
  335loPI   C1B 5357   7.842   3.094   9.719 -0.3218 -0.1601  0.4183
  335loPI   C2B 5358   7.939   3.036   9.215  0.3439  0.0189 -0.0726
  335loPI   C3B 5359   7.774   3.140   8.813 -0.0431 -0.0930  0.0001
  335loPI   C4B 5360   7.883   3.191   8.378  0.1723 -0.2480  0.0446
  336loPI    C1 5361  10.519  16.959  10.532 -0.1510  0.0427  0.0325
  336loPI    C2 5362  10.713  17.254  10.344  0.1185 -0.2236 -0.1176
  336loPI    C3 5363  10.547  17.320  10.702 -0.1175  0.1992 -0.2971
  336loPI   PO4 5364  10.685  16.743  10.409 -0.0430 -0.1928 -0.1404
  336loPI   GL1 5365  10.903  16.804  10.115 -0.0886  0.2048  0.0581
  336loPI   GL2 5366  10.622  17.012   9.954 -0.1817 -0.2845 -0.2211
  336loPI   C1A 5367  11.148  16.492   9.738  0.0802  0.1106 -0.1781
  336loPI   C2A 5368  11.239  16.193   9.491  0.0954 -0.0338 -0.1523
  336loPI   C3A 5369  11.369  15.823   9.273 -0.0043 -0.2022  0.3025
  336loPI   C4A 5370  11.224  15.683   8.842  0.3644  0.0959  0.1551
  336loPI   C5A 5371  10.990  15.628   8.375 -0.0191 -0.2069 -0.5297
  336loPI   C6A 5372  10.878  15.926   8.088  0.1001 -0.4115  0.0231
  336loPI   C1B 5373  10.788  16.848   9.619 -0.4271 -0.1176 -0.0839
  336loPI   C2B 5374  11.019  16.675   9.294  0.0782 -0.1639 -0.1931
  336loPI   C3B 5375  10.998  16.755   8.986 -0.1495  0.0542 -0.2913
  336loPI   C4B 5376  10.965  16.929   8.631  0.1813  0.1025 -0.0350
  337loPI    C1 5377   1.409  17.797  10.880  0.1111 -0.1653 -0.0185
  337loPI    C2 5378   1.683  18.088  10.889 -0.1485  0.0909 -0.1878
  337loPI    C3 5379   1.477  17.997  11.219 -0.1402  0.1718 -0.1600
  337loPI   PO4 5380   1.475  17.532  10.715 -0.1554  0.3151 -0.1238
  337loPI   GL1 5381   1.305  17.478  10.399 -0.0333 -0.0220  0.1011
  337loPI   GL2 5382   1.191  17.637  10.134 -0.1029 -0.0891  0.1470
  337loPI   C1A 5383   1.429  17.260  10.020  0.1793 -0.0453  0.1149
  337loPI   C2A 5384   1.416  17.205   9.508  0.1918 -0.1029 -0.1800
  337loPI   C3A 5385   1.396  17.214   9.123  0.1196 -0.1179  0.0899
  337loPI   C4A 5386   1.263  17.122   8.686  0.0518 -0.0913 -0.1073
  337loPI   C5A 5387   1.457  16.773   8.492 -0.0320 -0.1350  0.1741
  337loPI   C6A 5388   1.442  16.407   8.228 -0.0341  0.2643  0.0665
  337loPI   C1B 5389   1.488  17.636   9.753  0.1037 -0.0416  0.1088
  337loPI   C2B 5390   1.570  17.686   9.274  0.2598  0.1461 -0.1538
  337loPI   C3B 5391   1.569  17.720   8.861 -0.2374 -0.0754  0.1633
  337loPI   C4B 5392   1.419  17.542   8.442  0.0246  0.0098 -0.0898
  338loPI    C1 5393   3.284  13.649  10.859  0.0597 -0.1854  0.0191
  338loPI    C2 5394   3.119  13.615  11.222 -0.1554 -0.0691 -0.0653
  338loPI    C3 5395   3.202  13.977  11.074 -0.0697 -0.1162 -0.1337
  338loPI   PO4 5396   3.120  13.532  10.700  0.0911 -0.2584  0.1441
  338loPI   GL1 5397   2.988  13.415  10.314  0.0033  0.1686  0.0920
  338loPI   GL2 5398   2.682  13.532  10.389 -0.1178  0.1525  0.0418
  338loPI   C1A 5399   3.163  13.614   9.897  0.0815 -0.0083  0.1073
  338loPI   C2A 5400   3.358  13.696   9.467 -0.0578 -0.1187  0.2146
  338loPI   C3A 5401   3.125  13.794   9.056  0.0045 -0.2133  0.1891
  338loPI   C4A 5402   3.079  13.885   8.639  0.1145  0.3872 -0.2132
  338loPI   C5A 5403   3.040  14.217   8.339 -0.2351 -0.0156 -0.2007
  338loPI   C6A 5404   2.869  14.572   8.208  0.0695 -0.0909 -0.2778
  338loPI   C1B 5405   2.627  13.529  10.002 -0.0783  0.1705  0.0194
  338loPI   C2B 5406   2.348  13.673   9.677  0.1362  0.1928  0.2048
  338loPI   C3B 5407   2.347  13.713   9.224 -0.0305 -0.0870  0.0554
  338loPI   C4B 5408   2.191  13.740   8.806 -0.1505 -0.1942 -0.0706
  339loPI    C1 5409   9.450  16.116  10.776  0.2504 -0.2051 -0.1787
  339loPI    C2 5410   9.572  15.771  10.613  0.0812 -0.3753  0.0493
  339loPI    C3 5411   9.386  15.771  10.968 -0.0990 -0.0683 -0.0412
  339loPI   PO4 5412   9.270  16.162  10.544  0.1022 -0.0784 -0.2438
  339loPI   GL1 5413   9.118  16.360  10.211  0.0472  0.3016  0.3278
  339loPI   GL2 5414   9.457  16.407  10.076  0.2234 -0.0900 -0.2782
  339loPI   C1A 5415   8.970  16.445   9.789  0.1122  0.0746  0.2928
  339loPI   C2A 5416   8.742  16.457   9.411  0.0434  0.1002  0.2652
  339loPI   C3A 5417   8.642  16.310   9.014 -0.1149  0.0674 -0.0094
  339loPI   C4A 5418   8.618  16.168   8.660 -0.3618  0.1878 -0.1205
  339loPI   C5A 5419   8.726  15.758   8.477 -0.0614 -0.2405 -0.0310
  339loPI   C6A 5420   8.526  15.474   8.499  0.1431  0.2517  0.0644
  339loPI   C1B 5421   9.443  16.438   9.632  0.1624 -0.0819  0.1383
  339loPI   C2B 5422   9.688  16.554   9.222  0.0777 -0.4810 -0.2392
  339loPI   C3B 5423   9.578  16.384   8.726 -0.0357  0.0003 -0.0368
  339loPI   C4B 5424   9.459  16.195   8.456  0.0328 -0.3769 -0.3397
  340loPI    C1 5425   6.383   9.435  10.822  0.3853  0.1595 -0.0561
  340loPI    C2 5426   6.733   9.439  11.016  0.2223 -0.0227  0.2496
  340loPI    C3 5427   6.390   9.460  11.221  0.0500  0.0789 -0.0421
  340loPI   PO4 5428   6.436   9.357  10.574  0.0658  0.0366  0.1330
  340loPI   GL1 5429   6.530   9.239  10.206  0.2659  0.3586  0.1210
  340loPI   GL2 5430   6.422   8.888  10.123  0.0935  0.1851 -0.0979
  340loPI   C1A 5431   6.587   9.488   9.842  0.1576 -0.0741  0.0776
  340loPI   C2A 5432   6.608   9.459   9.516 -0.0374  0.0937 -0.3126
  340loPI   C3A 5433   6.604   9.388   9.126 -0.0883  0.2378 -0.2121
  340loPI   C4A 5434   6.570   9.261   8.684 -0.1131 -0.2646 -0.0180
  340loPI   C5A 5435   6.786   8.990   8.358  0.0646 -0.4433 -0.1465
  340loPI   C6A 5436   6.829   8.889   7.899  0.0135 -0.2202 -0.0282
  340loPI   C1B 5437   6.493   8.986   9.776 -0.2753 -0.2644  0.2035
  340loPI   C2B 5438   6.502   8.998   9.455  0.0934 -0.0001  0.1691
  340loPI   C3B 5439   6.513   8.897   9.035  0.0286  0.0405 -0.0169
  340loPI   C4B 5440   6.564   8.660   8.698  0.2939  0.1798  0.0334
  341loPI    C1 5441   2.223  11.522  11.057 -0.0197 -0.0582  0.2027
  341loPI    C2 5442   1.846  11.653  11.082  0.0230  0.0744  0.1605
  341loPI    C3 5443   2.115  11.763  11.357  0.0530  0.0538  0.1395
  341loPI   PO4 5444   2.246  11.575  10.795  0.1068  0.0518 -0.0252
  341loPI   GL1 5445   2.386  11.322  10.357 -0.0298 -0.2995 -0.0222
  341loPI   GL2 5446   2.086  11.245  10.414  0.1594 -0.3510 -0.1221
  341loPI   C1A 5447   2.699  11.183  10.020  0.1550 -0.0518  0.0959
  341loPI   C2A 5448   2.798  11.249   9.512 -0.1353  0.0017 -0.1030
  341loPI   C3A 5449   3.118  11.054   9.214 -0.0699 -0.0216 -0.0605
  341loPI   C4A 5450   3.071  11.057   8.865 -0.1181 -0.1951 -0.1649
  341loPI   C5A 5451   3.095  10.728   8.478 -0.0025  0.2183 -0.1647
  341loPI   C6A 5452   3.434  10.442   8.310  0.2392 -0.1791 -0.2844
  341loPI   C1B 5453   2.213  11.031   9.970  0.2276 -0.1591 -0.0519
  341loPI   C2B 5454   2.468  10.877   9.702 -0.3181 -0.2758  0.0657
  341loPI   C3B 5455   2.489  10.565   9.436  0.2095  0.0603 -0.1227
  341loPI   C4B 5456   2.701  10.290   9.130  0.0810 -0.2627  0.1124
  342loPI    C1 5457  14.960  12.886  10.543  0.0092  0.1093 -0.0209
  342loPI    C2 5458  14.890  13.276  10.601 -0.1482  0.0948 -0.1083
  342loPI    C3 5459  15.010  13.047  10.906  0.0951  0.2418 -0.0906
  342loPI   PO4 5460  14.950  12.878  10.325  0.0642  0.0495 -0.0204
  342loPI   GL1 5461  14.816  12.628   9.969 -0.0718  0.1348  0.2536
  342loPI   GL2 5462  14.561  12.921   9.933 -0.1164 -0.1643  0.1944
  342loPI   C1A 5463  14.652  12.510   9.608  0.1869  0.1495  0.1987
  342loPI   C2A 5464  14.467  12.605   9.182  0.1544  0.0346  0.0959
  342loPI   C3A 5465  14.240  12.722   8.848 -0.0339  0.0210 -0.0779
  342loPI   C4A 5466  14.360  12.691   8.442  0.2994 -0.3092 -0.2823
  342loPI   C5A 5467  14.615  12.934   8.078  0.2864  0.4398 -0.0970
  342loPI   C6A 5468  14.648  13.236   7.671  0.2271 -0.1386 -0.1389
  342loPI   C1B 5469  14.580  12.980   9.475  0.0160  0.0605 -0.0592
  342loPI   C2B 5470  14.438  13.103   9.135 -0.2116  0.3787 -0.0077
  342loPI   C3B 5471  14.103  13.256   8.861 -0.3211 -0.0266  0.3746
  342loPI   C4B 5472  14.143  13.157   8.461  0.1458  0.1712 -0.3758
  343loPI    C1 5473   9.611  12.359  10.725  0.0179 -0.0060  0.0288
  343loPI    C2 5474   9.866  12.619  10.559  0.2336 -0.0958  0.2137
  343loPI    C3 5475   9.619  12.739  10.850  0.0645 -0.0096  0.0370
  343loPI   PO4 5476   9.443  12.340  10.504  0.1845  0.1252  0.2230
  343loPI   GL1 5477   9.534  12.496  10.121  0.2796 -0.2841  0.0754
  343loPI   GL2 5478   9.919  12.438   9.992 -0.1345  0.0081 -0.0291
  343loPI   C1A 5479   9.614  12.583   9.661  0.0006  0.0950  0.0292
  343loPI   C2A 5480   9.794  12.753   9.375 -0.0807  0.0498 -0.2754
  343loPI   C3A 5481   9.803  13.025   9.175 -0.1900  0.0241  0.1635
  343loPI   C4A 5482   9.833  13.269   8.897 -0.0658 -0.3801 -0.0409
  343loPI   C5A 5483  10.059  13.446   8.542  0.0305 -0.3769  0.1080
  343loPI   C6A 5484  10.390  13.340   8.258 -0.0758  0.1913  0.0282
  343loPI   C1B 5485  10.088  12.375   9.624  0.2025  0.2095  0.0622
  343loPI   C2B 5486   9.810  12.049   9.347 -0.0222  0.1707 -0.1390
  343loPI   C3B 5487   9.558  12.216   9.061 -0.2442 -0.3782 -0.0369
  343loPI   C4B 5488   9.466  12.262   8.642  0.4120 -0.1850  0.2977
  344loPI    C1 5489  13.983   8.631  10.564  0.0075 -0.0370 -0.0476
  344loPI    C2 5490  13.615   8.767  10.642  0.0861  0.2866 -0.2211
  344loPI    C3 5491  13.873   8.705  10.942  0.0018  0.3859 -0.1271
  344loPI   PO4 5492  14.051   8.744  10.262  0.2102 -0.2243 -0.0863
  344loPI   GL1 5493  14.423   8.608   9.948  0.2901 -0.1678  0.0301
  344loPI   GL2 5494  14.686   8.806   9.879  0.3721 -0.2620 -0.0882
  344loPI   C1A 5495  14.436   8.381   9.602 -0.3354 -0.2918 -0.1997
  344loPI   C2A 5496  14.427   8.331   9.194 -0.1014  0.2139 -0.0036
  344loPI   C3A 5497  14.321   8.487   8.719 -0.2780 -0.1578 -0.0116
  344loPI   C4A 5498  14.375   8.845   8.523  0.1424 -0.0935  0.3062
  344loPI   C5A 5499  14.562   9.110   8.163  0.3388 -0.2106 -0.1580
  344loPI   C6A 5500  14.601   9.446   7.811  0.0188  0.0767 -0.1110
  344loPI   C1B 5501  14.747   8.716   9.447 -0.0883  0.1134  0.0814
  344loPI   C2B 5502  14.723   8.768   8.956  0.3071 -0.0174 -0.0760
  344loPI   C3B 5503  14.977   8.704   8.657 -0.0718 -0.4599 -0.2659
  344loPI   C4B 5504  14.996   8.827   8.243  0.0236  0.1071  0.0508
  345loPI    C1 5505   9.832   9.635  10.601 -0.1234 -0.0927  0.0622
  345loPI    C2 5506   9.736   9.905  10.322 -0.0516  0.1057  0.2267
  345loPI    C3 5507  10.077   9.943  10.527 -0.0395 -0.1132  0.2496
  345loPI   PO4 5508   9.595   9.452  10.537  0.1450 -0.0056  0.1461
  345loPI   GL1 5509   9.465   9.538  10.199  0.0130 -0.0546  0.2736
  345loPI   GL2 5510   9.266   9.343  10.126 -0.0594 -0.2066  0.0417
  345loPI   C1A 5511   9.634   9.793   9.860 -0.1796 -0.0987  0.0650
  345loPI   C2A 5512   9.610   9.832   9.432  0.0324  0.1648  0.2454
  345loPI   C3A 5513   9.614   9.822   9.004 -0.2112  0.1701  0.0628
  345loPI   C4A 5514   9.758   9.808   8.593  0.1410  0.0068  0.0066
  345loPI   C5A 5515   9.976   9.581   8.311 -0.0289 -0.1012 -0.0646
  345loPI   C6A 5516  10.470   9.454   8.239 -0.1719 -0.0293 -0.0224
  345loPI   C1B 5517   9.165   9.354   9.757 -0.2135  0.0802  0.1747
  345loPI   C2B 5518   9.246   9.444   9.332  0.3347  0.2563 -0.0856
  345loPI   C3B 5519   9.396   9.419   8.950 -0.1260  0.1096 -0.0235
  345loPI   C4B 5520   9.644   9.359   8.627 -0.1307 -0.2328  0.0688
  346loPI    C1 5521   1.327  15.586  10.916  0.1815  0.2284  0.1464
  346loPI    C2 5522   1.451  15.333  11.200  0.1514 -0.1352 -0.1566
  346loPI    C3 5523   1.106  15.531  11.245  0.1180 -0.2340  0.0337
  346loPI   PO4 5524   1.426  15.401  10.661 -0.2275 -0.1925 -0.1112
  346loPI   GL1 5525   1.349  15.382  10.189 -0.3075  0.1005 -0.0217
  346loPI   GL2 5526   1.098  15.630  10.205 -0.2275 -0.1507  0.0555
  346loPI   C1A 5527   1.288  15.371   9.720 -0.0476  0.1017 -0.1008
  346loPI   C2A 5528   1.242  15.305   9.366 -0.2949  0.0887  0.4079
  346loPI   C3A 5529   1.342  15.173   8.930 -0.3040 -0.0645  0.0680
  346loPI   C4A 5530   1.490  15.175   8.457 -0.2461  0.1439  0.0679
  346loPI   C5A 5531   1.726  15.543   8.225 -0.1653 -0.1138 -0.1120
  346loPI   C6A 5532   2.106  15.672   8.079  0.0860 -0.1356 -0.2674
  346loPI   C1B 5533   0.988  15.748   9.797 -0.0225  0.1668  0.1751
  346loPI   C2B 5534   1.008  15.742   9.402  0.0170 -0.1510  0.1234
  346loPI   C3B 5535   1.034  15.713   8.953  0.1233  0.1389 -0.0429
  346loPI   C4B 5536   1.131  15.495   8.573 -0.2371 -0.1175 -0.1418
  347loPI    C1 5537  10.524   3.795  10.673  0.0228 -0.0963 -0.1669
  347loPI    C2 5538  10.311   4.133  10.685  0.2214  0.0249  0.0252
  347loPI    C3 5539  10.290   3.873  10.988  0.2090 -0.0493 -0.0388
  347loPI   PO4 5540  10.540   3.708  10.412 -0.0440 -0.0674 -0.1477
  347loPI   GL1 5541  10.412   3.897   9.962  0.0467  0.1152 -0.0522
  347loPI   GL2 5542  10.744   3.792   9.972 -0.3366  0.0446  0.0218
  347loPI   C1A 5543  10.469   4.044   9.555  0.0207  0.0144  0.0299
  347loPI   C2A 5544  10.505   4.017   9.155 -0.3803  0.3996  0.2089
  347loPI   C3A 5545  10.615   4.120   8.841 -0.0701  0.2367  0.0472
  347loPI   C4A 5546  10.750   4.345   8.495 -0.2270 -0.1657 -0.3584
  347loPI   C5A 5547  10.508   4.609   8.164  0.1946  0.1157 -0.0013
  347loPI   C6A 5548  10.474   4.935   7.774 -0.0757 -0.1613  0.1982
  347loPI   C1B 5549  10.828   3.682   9.516  0.2251 -0.0983 -0.2143
  347loPI   C2B 5550  10.854   3.618   9.159 -0.2120  0.0334  0.2237
  347loPI   C3B 5551  10.869   3.721   8.754  0.1324 -0.2126  0.2023
  347loPI   C4B 5552  10.840   3.790   8.329 -0.0693 -0.3530  0.3743
  348loPI    C1 5553   1.808   6.831  10.716 -0.1377 -0.4915 -0.0121
  348loPI    C2 5554   1.899   6.847  11.105 -0.0458 -0.0049 -0.0464
  348loPI    C3 5555   1.559   7.011  10.972  0.0076 -0.0131 -0.1949
  348loPI   PO4 5556   1.827   6.604  10.595 -0.1355 -0.4432  0.1295
  348loPI   GL1 5557   1.696   6.367  10.249 -0.1695 -0.1752  0.0327
  348loPI   GL2 5558   1.343   6.279  10.450  0.1339  0.4188 -0.3836
  348loPI   C1A 5559   1.636   6.478   9.774  0.1993 -0.1174  0.0139
  348loPI   C2A 5560   1.421   6.479   9.386  0.0640  0.0884  0.2873
  348loPI   C3A 5561   1.451   6.278   9.011 -0.0016 -0.1904  0.0478
  348loPI   C4A 5562   1.568   6.179   8.508  0.2290  0.1391 -0.0279
  348loPI   C5A 5563   1.459   6.072   8.127 -0.3365  0.5200 -0.1477
  348loPI   C6A 5564   1.133   5.868   7.926  0.0657 -0.2310 -0.0962
  348loPI   C1B 5565   1.280   6.520  10.056  0.3228 -0.0307 -0.1799
  348loPI   C2B 5566   1.119   6.764   9.679 -0.1270  0.1227 -0.1348
  348loPI   C3B 5567   1.076   7.050   9.265  0.2128  0.1857 -0.0211
  348loPI   C4B 5568   1.163   7.380   9.002 -0.1860 -0.1940  0.3332
  349loPI    C1 5569   6.442   8.888  10.602  0.1072  0.0524  0.0906
  349loPI    C2 5570   6.753   8.692  10.759 -0.0168 -0.2026  0.0251
  349loPI    C3 5571   6.577   8.987  10.965  0.2336 -0.0913  0.0840
  349loPI   PO4 5572   6.282   8.617  10.558  0.0723  0.4036 -0.0090
  349loPI   GL1 5573   6.248   8.275  10.253  0.2050 -0.0008  0.0213
  349loPI   GL2 5574   5.984   8.141  10.255 -0.2255 -0.3861 -0.3650
  349loPI   C1A 5575   6.372   8.423   9.863 -0.1026  0.0036  0.0104
  349loPI   C2A 5576   6.541   8.464   9.560 -0.4438  0.3163  0.0074
  349loPI   C3A 5577   6.600   8.363   9.159 -0.2137  0.2656  0.0543
  349loPI   C4A 5578   6.644   8.156   8.712 -0.2903 -0.1854  0.1599
  349loPI   C5A 5579   6.465   8.104   8.282 -0.2658 -0.0491 -0.2899
  349loPI   C6A 5580   6.026   8.281   8.133  0.1031  0.3537  0.0934
  349loPI   C1B 5581   5.895   8.154   9.798 -0.4870 -0.2852 -0.2291
  349loPI   C2B 5582   5.830   8.142   9.304  0.1509  0.4506 -0.2961
  349loPI   C3B 5583   5.761   8.119   8.909  0.1342 -0.5498  0.2144
  349loPI   C4B 5584   5.688   8.170   8.494  0.0957  0.1205 -0.0169
  350loPI    C1 5585   1.803   4.919  10.885 -0.3212  0.0313  0.3434
  350loPI    C2 5586   1.504   5.121  10.713 -0.0195  0.0261 -0.2107
  350loPI    C3 5587   1.791   5.317  10.911 -0.2346  0.0530  0.0810
  350loPI   PO4 5588   1.813   4.690  10.673 -0.5302  0.1881  0.1531
  350loPI   GL1 5589   1.844   4.498  10.276  0.0495  0.3888 -0.1381
  350loPI   GL2 5590   1.890   4.336  10.077 -0.1349 -0.0809 -0.0261
  350loPI   C1A 5591   1.587   4.679   9.904 -0.2740 -0.0565 -0.1292
  350loPI   C2A 5592   1.670   4.750   9.460 -0.0504  0.0987 -0.0767
  350loPI   C3A 5593   1.713   4.824   8.943 -0.1065  0.2398 -0.1670
  350loPI   C4A 5594   1.540   4.711   8.518  0.1719  0.0967 -0.2655
  350loPI   C5A 5595   1.304   4.422   8.257 -0.2274  0.1084  0.1971
  350loPI   C6A 5596   1.259   4.585   7.848 -0.1589  0.0610 -0.1073
  350loPI   C1B 5597   2.052   4.390   9.615 -0.2174  0.0015  0.1927
  350loPI   C2B 5598   2.092   4.522   9.179  0.2671 -0.1652  0.0841
  350loPI   C3B 5599   2.089   4.353   8.791  0.0473  0.1184  0.1927
  350loPI   C4B 5600   2.020   4.531   8.483  0.0057 -0.1512  0.0435
  351loPI    C1 5601  14.636  13.686  10.555  0.0661  0.2044  0.0197
  351loPI    C2 5602  15.005  13.714  10.401 -0.0452  0.1461 -0.2630
  351loPI    C3 5603  14.936  13.827  10.778  0.2987 -0.0136 -0.1488
  351loPI   PO4 5604  14.503  13.805  10.435  0.0907  0.1248  0.2252
  351loPI   GL1 5605  14.701  14.101  10.113 -0.1032  0.3278 -0.0127
  351loPI   GL2 5606  14.789  13.833   9.967  0.1412  0.2722  0.0972
  351loPI   C1A 5607  14.341  14.132   9.844  0.1484 -0.0133 -0.1387
  351loPI   C2A 5608  14.369  14.265   9.367 -0.1973  0.0709 -0.0399
  351loPI   C3A 5609  14.434  14.269   8.883  0.0409  0.0279  0.2406
  351loPI   C4A 5610  14.276  14.411   8.482 -0.1745  0.1504  0.0265
  351loPI   C5A 5611  14.110  14.130   8.050  0.2320 -0.0772  0.0801
  351loPI   C6A 5612  14.296  14.118   7.639  0.1738 -0.2034 -0.0348
  351loPI   C1B 5613  14.762  13.911   9.532 -0.2898  0.0838  0.0543
  351loPI   C2B 5614  14.810  14.063   9.171  0.0688 -0.0013  0.0525
  351loPI   C3B 5615  14.789  13.934   8.723  0.0278 -0.2074  0.1841
  351loPI   C4B 5616  14.963  13.842   8.334  0.1629 -0.0410  0.0624
  352loPI    C1 5617  16.153  15.098  10.431  0.0675  0.3214  0.1570
  352loPI    C2 5618  16.333  14.980  10.769  0.3279  0.0938 -0.0562
  352loPI    C3 5619  15.981  15.169  10.785  0.3052  0.0256  0.3374
  352loPI   PO4 5620  16.353  15.010  10.228 -0.0636  0.1215 -0.2691
  352loPI   GL1 5621  16.733  14.938  10.060  0.0472 -0.2678 -0.1935
  352loPI   GL2 5622  16.921  14.754  10.077  0.1980 -0.1344  0.0421
  352loPI   C1A 5623  16.711  14.771   9.604 -0.1794  0.4367 -0.0463
  352loPI   C2A 5624  16.972  14.809   9.259  0.1416 -0.3989 -0.1316
  352loPI   C3A 5625  17.051  14.750   8.794  0.0657  0.2493 -0.1080
  352loPI   C4A 5626  17.127  14.511   8.453 -0.1662  0.1122 -0.0581
  352loPI   C5A 5627  16.850  14.336   8.197 -0.3032  0.2173 -0.0571
  352loPI   C6A 5628  16.555  14.026   7.973 -0.1173 -0.1080 -0.1149
  352loPI   C1B 5629  17.147  14.949   9.811 -0.1238 -0.0339 -0.2053
  352loPI   C2B 5630  17.345  15.115   9.482 -0.2755 -0.2092 -0.0269
  352loPI   C3B 5631  17.437  14.950   9.112 -0.1250  0.0223 -0.0194
  352loPI   C4B 5632  17.554  14.701   8.748  0.0087  0.0301  0.1273
  353loPI    C1 5633   2.314  13.407  10.879 -0.2222 -0.1561  0.0844
  353loPI    C2 5634   2.700  13.479  10.956 -0.2448 -0.0010  0.0561
  353loPI    C3 5635   2.445  13.410  11.257 -0.1867 -0.1496  0.0721
  353loPI   PO4 5636   2.292  13.614  10.670  0.3459 -0.3315 -0.1723
  353loPI   GL1 5637   2.051  13.734  10.296  0.4630 -0.0125  0.0576
  353loPI   GL2 5638   2.270  13.965  10.322  0.1345 -0.1016  0.2037
  353loPI   C1A 5639   1.874  13.641   9.933  0.2221 -0.0123 -0.0993
  353loPI   C2A 5640   1.939  13.478   9.431 -0.0198 -0.0617  0.1391
  353loPI   C3A 5641   1.825  13.413   8.962  0.0483 -0.1201  0.0269
  353loPI   C4A 5642   1.524  13.361   8.684  0.1621 -0.1971 -0.0293
  353loPI   C5A 5643   1.117  13.254   8.413  0.1235  0.2023  0.3477
  353loPI   C6A 5644   0.709  13.196   8.073 -0.0376 -0.1601 -0.2315
  353loPI   C1B 5645   2.137  14.049   9.925 -0.1123  0.0486  0.1943
  353loPI   C2B 5646   1.943  13.957   9.470 -0.2217 -0.1463  0.4023
  353loPI   C3B 5647   1.733  13.893   9.077  0.1778  0.3563  0.0775
  353loPI   C4B 5648   1.724  13.878   8.658  0.2514  0.2520  0.0619
  354loPI    C1 5649  15.626  15.048  10.486 -0.1495 -0.0705 -0.0417
  354loPI    C2 5650  15.771  14.701  10.621  0.1764  0.1449  0.1783
  354loPI    C3 5651  15.522  14.915  10.848 -0.1783 -0.0318 -0.0356
  354loPI   PO4 5652  15.672  14.968  10.204  0.3148  0.3300 -0.0909
  354loPI   GL1 5653  16.002  15.024   9.842 -0.1323 -0.0835  0.4302
  354loPI   GL2 5654  16.264  15.028   9.632  0.1849 -0.1296 -0.2899
  354loPI   C1A 5655  15.869  14.970   9.356  0.2122  0.0059  0.1251
  354loPI   C2A 5656  15.723  14.957   8.929  0.0344 -0.1679 -0.1629
  354loPI   C3A 5657  15.458  14.859   8.511 -0.0401  0.1038  0.1265
  354loPI   C4A 5658  15.199  14.632   8.262 -0.2710  0.3245  0.1712
  354loPI   C5A 5659  15.132  14.658   7.882 -0.1695  0.0419  0.5240
  354loPI   C6A 5660  14.934  14.702   7.475 -0.3617 -0.0533 -0.0237
  354loPI   C1B 5661  16.455  15.041   9.290  0.0355  0.1514 -0.3890
  354loPI   C2B 5662  16.612  14.951   8.949  0.2482 -0.1032 -0.0823
  354loPI   C3B 5663  16.692  14.924   8.439  0.0099  0.0505  0.0206
  354loPI   C4B 5664  16.756  15.269   8.176  0.0879  0.0043 -0.0182
  355loPI    C1 5665   4.781   3.112  11.191 -0.1913 -0.0110  0.1505
  355loPI    C2 5666   5.076   3.346  11.326 -0.0286 -0.2629  0.2374
  355loPI    C3 5667   4.908   3.075  11.568 -0.0297 -0.4222  0.0606
  355loPI   PO4 5668   4.770   3.131  10.839  0.1194 -0.0525  0.1760
  355loPI   GL1 5669   4.958   2.937  10.517  0.1139 -0.1109  0.0391
  355loPI   GL2 5670   4.992   2.618  10.420 -0.1647  0.0141 -0.0043
  355loPI   C1A 5671   5.008   3.105  10.088 -0.1193 -0.3038 -0.3038
  355loPI   C2A 5672   5.054   3.290   9.701 -0.0658 -0.1888  0.1109
  355loPI   C3A 5673   4.984   3.577   9.382 -0.2468  0.0534 -0.0832
  355loPI   C4A 5674   5.005   3.988   9.197 -0.1311 -0.0269  0.1527
  355loPI   C5A 5675   5.205   3.929   8.762 -0.1358 -0.0782  0.0486
  355loPI   C6A 5676   5.498   3.964   8.464  0.0870 -0.2261 -0.0698
  355loPI   C1B 5677   4.856   2.679  10.006  0.0292 -0.3597  0.0574
  355loPI   C2B 5678   4.820   2.773   9.590  0.0201 -0.2304 -0.2235
  355loPI   C3B 5679   4.742   3.153   9.350  0.0957 -0.2705  0.0243
  355loPI   C4B 5680   4.261   3.272   9.206 -0.0795  0.2578  0.0531
  356loPI    C1 5681   8.457   0.429  10.754 -0.0696 -0.3022  0.0086
  356loPI    C2 5682   8.737   0.708  10.813 -0.1138 -0.2174 -0.1770
  356loPI    C3 5683   8.405   0.708  11.035 -0.0975 -0.1435 -0.1522
  356loPI   PO4 5684   8.527   0.352  10.500 -0.0543 -0.1326 -0.2212
  356loPI   GL1 5685   8.616   0.621  10.193 -0.0732  0.0534 -0.1919
  356loPI   GL2 5686   8.832   0.329  10.029 -0.2998 -0.1155  0.2790
  356loPI   C1A 5687   8.384   0.593   9.743  0.0888  0.0733  0.2180
  356loPI   C2A 5688   8.272   0.739   9.369 -0.4327 -0.2667 -0.1081
  356loPI   C3A 5689   8.295   0.663   8.985  0.0010  0.0680 -0.2941
  356loPI   C4A 5690   8.706   0.696   8.723  0.2741 -0.0129  0.0656
  356loPI   C5A 5691   8.684   0.537   8.251  0.0701 -0.0684 -0.2476
  356loPI   C6A 5692   8.760   0.594   7.906 -0.0133  0.0732  0.0538
  356loPI   C1B 5693   8.782   0.306   9.600 -0.0044  0.0332  0.1562
  356loPI   C2B 5694   8.662   0.379   9.198  0.0517  0.2802  0.1713
  356loPI   C3B 5695   8.484   0.286   8.754  0.2944  0.2492  0.2899
  356loPI   C4B 5696   8.116   0.426   8.555 -0.2388 -0.0889  0.0755
  357loPI    C1 5697   5.839  11.689  10.714  0.1474  0.2652 -0.3803
  357loPI    C2 5698   6.189  11.871  10.783  0.1564  0.0793  0.1080
  357loPI    C3 5699   5.968  11.739  11.090 -0.1089 -0.2473 -0.2143
  357loPI   PO4 5700   5.811  11.494  10.605  0.1114  0.1650 -0.0320
  357loPI   GL1 5701   5.620  11.341  10.260 -0.0688  0.1396  0.0889
  357loPI   GL2 5702   5.426  11.328  10.325  0.0554  0.0482  0.2346
  357loPI   C1A 5703   5.707  11.287   9.854  0.0044  0.2552  0.0147
  357loPI   C2A 5704   5.723  11.308   9.411 -0.1003 -0.0206 -0.0433
  357loPI   C3A 5705   5.835  11.473   9.026 -0.3010  0.3352 -0.0167
  357loPI   C4A 5706   5.699  11.837   8.792  0.3015 -0.2202  0.0250
  357loPI   C5A 5707   5.812  12.192   8.567  0.0851 -0.0026  0.1923
  357loPI   C6A 5708   5.915  12.569   8.255 -0.0023  0.0813 -0.1813
  357loPI   C1B 5709   5.137  11.317   9.942  0.0977  0.1992  0.1240
  357loPI   C2B 5710   5.153  11.349   9.504 -0.0202  0.1499  0.2647
  357loPI   C3B 5711   5.326  11.328   9.052  0.0487 -0.1684 -0.0519
  357loPI   C4B 5712   5.179  11.172   8.647  0.2589 -0.0163 -0.1000
  358loPI    C1 5713  15.514  12.338  10.425 -0.0278 -0.0485 -0.1197
  358loPI    C2 5714  15.319  12.459  10.753  0.0041 -0.2104 -0.0398
  358loPI    C3 5715  15.115  12.375  10.419 -0.0025  0.2445 -0.1576
  358loPI   PO4 5716  15.732  12.432  10.344  0.0248 -0.0496  0.0027
  358loPI   GL1 5717  15.850  12.684  10.226 -0.0400 -0.0917 -0.1460
  358loPI   GL2 5718  15.881  12.954  10.098 -0.1031  0.0891  0.0866
  358loPI   C1A 5719  15.743  12.551   9.729  0.0938  0.1361 -0.1119
  358loPI   C2A 5720  15.634  12.704   9.333 -0.0754  0.0202  0.0173
  358loPI   C3A 5721  15.519  12.842   8.950 -0.1623  0.0104 -0.0561
  358loPI   C4A 5722  15.345  12.967   8.513 -0.0104  0.0080  0.3395
  358loPI   C5A 5723  15.088  12.901   8.117  0.2746 -0.0141  0.0920
  358loPI   C6A 5724  15.040  12.985   7.634 -0.1857 -0.1767  0.2633
  358loPI   C1B 5725  15.898  13.193   9.781 -0.2454  0.0037 -0.1034
  358loPI   C2B 5726  15.759  13.592   9.540 -0.0833 -0.1049 -0.2772
  358loPI   C3B 5727  15.733  13.848   9.072  0.0095 -0.4433  0.1074
  358loPI   C4B 5728  15.746  13.918   8.657  0.2318  0.2235  0.0917
  359loPI    C1 5729   4.718  15.122  10.988  0.3210  0.1393 -0.0802
  359loPI    C2 5730   4.587  15.447  11.182  0.0996  0.0274 -0.0396
  359loPI    C3 5731   4.758  15.148  11.385 -0.1310 -0.0894 -0.0134
  359loPI   PO4 5732   4.985  15.187  10.797 -0.0004 -0.1473  0.0903
  359loPI   GL1 5733   5.209  15.207  10.417  0.0693  0.0869 -0.0558
  359loPI   GL2 5734   5.186  15.557  10.464  0.1433 -0.3049  0.2063
  359loPI   C1A 5735   5.167  15.312   9.979 -0.2356 -0.0447  0.0199
  359loPI   C2A 5736   5.216  15.463   9.453 -0.1181  0.0080  0.0523
  359loPI   C3A 5737   5.351  15.599   9.060  0.2238  0.0909  0.3171
  359loPI   C4A 5738   5.239  15.870   8.745 -0.1043 -0.2895  0.1931
  359loPI   C5A 5739   5.182  16.233   8.524  0.2597 -0.2383  0.1940
  359loPI   C6A 5740   5.263  16.650   8.239  0.2252 -0.2406 -0.2249
  359loPI   C1B 5741   4.718  15.492  10.204  0.2165 -0.0784  0.0532
  359loPI   C2B 5742   4.550  15.354   9.908 -0.1861 -0.2276 -0.0787
  359loPI   C3B 5743   4.244  15.360   9.472 -0.1444 -0.1057  0.0342
  359loPI   C4B 5744   3.918  15.422   9.121  0.2203 -0.0380  0.5476
  360loPI    C1 5745  16.978   5.020  10.729 -0.0487 -0.2188  0.1211
  360loPI    C2 5746  17.281   5.058  10.987  0.0176  0.0534  0.0071
  360loPI    C3 5747  17.223   4.711  10.796  0.0821 -0.0901  0.2434
  360loPI   PO4 5748  16.991   5.199  10.600  0.3977 -0.0787 -0.1189
  360loPI   GL1 5749  17.042   5.338  10.220 -0.2088 -0.1038  0.2097
  360loPI   GL2 5750  17.249   5.206  10.139  0.1920  0.1121 -0.1370
  360loPI   C1A 5751  16.715   5.301   9.971  0.2673 -0.0175  0.2027
  360loPI   C2A 5752  16.641   5.256   9.581 -0.1715 -0.0167  0.0216
  360loPI   C3A 5753  16.564   5.222   9.163 -0.1185  0.1140  0.1453
  360loPI   C4A 5754  16.400   5.231   8.837  0.2594  0.1909  0.2213
  360loPI   C5A 5755  16.141   5.022   8.544 -0.2272 -0.0257 -0.0974
  360loPI   C6A 5756  16.074   5.038   8.053 -0.0182 -0.0708 -0.1214
  360loPI   C1B 5757  17.086   4.995   9.744 -0.1169 -0.3348  0.0412
  360loPI   C2B 5758  17.231   4.766   9.389  0.1576 -0.1825  0.0790
  360loPI   C3B 5759  17.379   4.688   8.962  0.0999 -0.0136 -0.3332
  360loPI   C4B 5760  17.333   4.909   8.596  0.0385  0.2265 -0.0516
  361loPI    C1 5761   2.487   5.529  11.151  0.1347  0.0137  0.2957
  361loPI    C2 5762   2.107   5.644  11.101  0.1686  0.0259  0.0558
  361loPI    C3 5763   2.189   5.284  11.254  0.0610  0.0477  0.1657
  361loPI   PO4 5764   2.571   5.633  10.889  0.0074 -0.2960  0.0339
  361loPI   GL1 5765   2.658   5.382  10.476  0.2048 -0.2363  0.1972
  361loPI   GL2 5766   2.555   5.173  10.283  0.0985 -0.3605  0.1327
  361loPI   C1A 5767   2.823   5.645   9.992 -0.0855  0.1679 -0.0752
  361loPI   C2A 5768   2.642   5.524   9.632 -0.3387 -0.3698 -0.0014
  361loPI   C3A 5769   2.487   5.698   9.350  0.0056 -0.0269 -0.0559
  361loPI   C4A 5770   2.387   5.578   8.914  0.0209 -0.1304  0.0119
  361loPI   C5A 5771   2.259   5.431   8.561 -0.0947 -0.1439  0.3416
  361loPI   C6A 5772   2.097   5.599   8.259 -0.0571 -0.2271 -0.0181
  361loPI   C1B 5773   2.253   5.411  10.084  0.3841 -0.0567 -0.0040
  361loPI   C2B 5774   2.138   5.514   9.643  0.0336 -0.1159 -0.1682
  361loPI   C3B 5775   2.008   5.659   9.281  0.1311 -0.1481 -0.1226
  361loPI   C4B 5776   1.898   5.474   8.914 -0.0887  0.0371 -0.2316
  362loPI    C1 5777   3.494   8.701  10.926  0.0383 -0.1101  0.1192
  362loPI    C2 5778   3.143   8.744  10.738  0.0130 -0.0386  0.1821
  362loPI    C3 5779   3.155   8.724  11.138  0.1099  0.2875  0.1984
  362loPI   PO4 5780   3.663   8.504  10.760 -0.2355  0.2804  0.0202
  362loPI   GL1 5781   3.888   8.409  10.374  0.1489  0.2429 -0.0280
  362loPI   GL2 5782   3.723   8.657  10.299 -0.0351  0.2139 -0.0031
  362loPI   C1A 5783   3.957   8.391   9.985  0.0779 -0.0071 -0.1987
  362loPI   C2A 5784   4.085   8.550   9.659  0.1180  0.2235  0.4422
  362loPI   C3A 5785   3.959   8.577   9.229 -0.0940  0.0283  0.2301
  362loPI   C4A 5786   3.994   8.518   8.851  0.2145 -0.0165  0.3856
  362loPI   C5A 5787   4.135   8.365   8.406 -0.1153  0.0491  0.1154
  362loPI   C6A 5788   4.057   8.042   8.089 -0.2659 -0.2763 -0.1128
  362loPI   C1B 5789   3.761   8.851   9.884 -0.0646 -0.2653  0.0111
  362loPI   C2B 5790   3.721   8.945   9.477  0.2115 -0.0402  0.0842
  362loPI   C3B 5791   3.697   8.934   9.029  0.1795 -0.0792 -0.1315
  362loPI   C4B 5792   3.640   9.226   8.769 -0.0282  0.2169 -0.0616
  363loPI    C1 5793   3.329  10.162  10.867  0.1884  0.2103 -0.0152
  363loPI    C2 5794   3.246   9.964  11.205 -0.0421  0.0904 -0.1403
  363loPI    C3 5795   3.435  10.315  11.221  0.0066  0.0542  0.1091
  363loPI   PO4 5796   3.061  10.038  10.728  0.0710 -0.0198 -0.1733
  363loPI   GL1 5797   2.813   9.969  10.434  0.2471  0.0603 -0.0316
  363loPI   GL2 5798   2.770  10.261  10.313 -0.0813 -0.1715 -0.2394
  363loPI   C1A 5799   3.069   9.816  10.079  0.1416 -0.0143 -0.1308
  363loPI   C2A 5800   2.879   9.645   9.709  0.3436  0.1728  0.2874
  363loPI   C3A 5801   2.892   9.503   9.236 -0.1917  0.0595 -0.1206
  363loPI   C4A 5802   3.119   9.130   8.934  0.0279 -0.0354  0.0684
  363loPI   C5A 5803   3.225   9.039   8.531  0.1603  0.2210 -0.2901
  363loPI   C6A 5804   3.480   8.970   8.148  0.1402 -0.1319  0.1991
  363loPI   C1B 5805   2.917  10.230   9.823  0.0896  0.0726  0.1578
  363loPI   C2B 5806   2.951  10.056   9.465  0.2267 -0.1302 -0.1224
  363loPI   C3B 5807   3.027   9.861   8.987 -0.2985 -0.1879 -0.0725
  363loPI   C4B 5808   2.837   9.482   8.693 -0.1078 -0.1117 -0.0948
  364loPI    C1 5809  10.819   6.825  10.397 -0.0908  0.2959 -0.2005
  364loPI    C2 5810  10.925   6.519  10.632 -0.0426  0.2856 -0.2355
  364loPI    C3 5811  10.745   6.450  10.281 -0.0645  0.2988 -0.2269
  364loPI   PO4 5812  10.985   7.020  10.338 -0.1692 -0.0527  0.0269
  364loPI   GL1 5813  11.363   6.995  10.041  0.0982  0.1154  0.4301
  364loPI   GL2 5814  11.596   6.717   9.830 -0.0221  0.2149  0.0163
  364loPI   C1A 5815  11.099   7.033   9.694  0.2550  0.2912 -0.2058
  364loPI   C2A 5816  11.036   7.169   9.360  0.2247  0.1024 -0.1458
  364loPI   C3A 5817  10.946   7.258   8.938 -0.0279 -0.1347  0.0250
  364loPI   C4A 5818  10.759   7.187   8.614 -0.1893 -0.1206  0.1650
  364loPI   C5A 5819  10.850   7.135   8.279 -0.2080  0.1859  0.1606
  364loPI   C6A 5820  10.585   7.362   7.919 -0.1877  0.1410  0.0418
  364loPI   C1B 5821  11.642   6.931   9.463  0.2040 -0.3175  0.2604
  364loPI   C2B 5822  11.487   7.063   9.061  0.1334 -0.4112  0.1919
  364loPI   C3B 5823  11.323   7.208   8.634  0.1125 -0.0286  0.1160
  364loPI   C4B 5824  11.283   7.397   8.235 -0.3566  0.2787  0.1770
  365loPI    C1 5825   2.711   7.006  10.677  0.0225 -0.0639 -0.1678
  365loPI    C2 5826   2.440   7.298  10.709  0.0170 -0.0821 -0.0443
  365loPI    C3 5827   2.452   7.006  10.982 -0.0390 -0.2493 -0.2184
  365loPI   PO4 5828   2.818   7.011  10.428 -0.0527  0.0397 -0.1281
  365loPI   GL1 5829   3.128   7.224  10.246 -0.0256 -0.0586  0.1621
  365loPI   GL2 5830   3.053   7.487  10.084 -0.3188  0.0720 -0.1441
  365loPI   C1A 5831   2.963   7.106   9.782  0.0029  0.4496 -0.1579
  365loPI   C2A 5832   2.929   7.020   9.314  0.1317 -0.2200 -0.0575
  365loPI   C3A 5833   2.936   6.880   8.875 -0.2526  0.3932 -0.1212
  365loPI   C4A 5834   2.864   6.827   8.364  0.0066 -0.1968  0.0170
  365loPI   C5A 5835   2.682   6.936   7.920 -0.1579 -0.1563  0.1240
  365loPI   C6A 5836   2.511   6.926   7.528 -0.1591 -0.2265 -0.0227
  365loPI   C1B 5837   3.044   7.645   9.726  0.1490 -0.1326  0.0914
  365loPI   C2B 5838   2.940   7.612   9.264 -0.0117  0.0828  0.1429
  365loPI   C3B 5839   2.856   7.687   8.815 -0.0947  0.2657  0.1339
  365loPI   C4B 5840   3.070   7.654   8.424  0.0540  0.0234  0.2653
  366loPI    C1 5841  17.554   1.837  10.677  0.2084 -0.0257  0.0624
  366loPI    C2 5842  17.764   2.067  10.928 -0.0887  0.1009  0.1990
  366loPI    C3 5843  17.461   1.845  11.066 -0.3809  0.3200 -0.0747
  366loPI   PO4 5844  17.821   1.825  10.471 -0.0940  0.0435 -0.4537
  366loPI   GL1 5845  18.060   2.002  10.142  0.2193  0.1705  0.2816
  366loPI   GL2 5846  18.199   1.756  10.130 -0.0624 -0.1123 -0.0266
  366loPI   C1A 5847  17.986   2.249   9.774  0.0431  0.1019  0.0775
  366loPI   C2A 5848  18.046   2.192   9.388 -0.0677 -0.1603  0.0676
  366loPI   C3A 5849  18.204   2.171   9.025  0.1783 -0.2638  0.1346
  366loPI   C4A 5850  18.353   2.237   8.596 -0.0497  0.1061  0.1322
  366loPI   C5A 5851  18.433   2.029   8.303  0.0464  0.0640  0.0780
  366loPI   C6A 5852  18.905   1.844   8.208 -0.2721  0.1328  0.2762
  366loPI   C1B 5853  18.024   1.711   9.676  0.1558 -0.2913 -0.1920
  366loPI   C2B 5854  18.161   1.631   9.215  0.0993  0.1346  0.1569
  366loPI   C3B 5855  18.331   1.739   8.839 -0.0601  0.2456  0.1701
  366loPI   C4B 5856  18.248   1.547   8.482  0.0710  0.0310  0.0359
  367loPI    C1 5857   0.995   5.203  11.112  0.0784 -0.0732 -0.0716
  367loPI    C2 5858   1.339   5.044  11.241 -0.1431 -0.1906  0.3971
  367loPI    C3 5859   1.219   5.401  11.378  0.0118  0.0692 -0.1206
  367loPI   PO4 5860   1.006   5.024  10.791  0.2075 -0.0100  0.1174
  367loPI   GL1 5861   1.103   5.226  10.399  0.0511  0.2397  0.1047
  367loPI   GL2 5862   0.939   5.548  10.356  0.0658  0.2794  0.2400
  367loPI   C1A 5863   1.458   5.113  10.179  0.3046 -0.2048  0.1100
  367loPI   C2A 5864   1.371   5.169   9.678 -0.0441  0.2677  0.0681
  367loPI   C3A 5865   1.490   5.219   9.251 -0.1811 -0.1668  0.2138
  367loPI   C4A 5866   1.426   5.331   8.911  0.4713  0.0417 -0.0805
  367loPI   C5A 5867   1.228   5.320   8.475  0.0972  0.0002 -0.2347
  367loPI   C6A 5868   1.035   4.886   8.266  0.1329 -0.4202 -0.5118
  367loPI   C1B 5869   1.124   5.459   9.950  0.2261  0.1666  0.0994
  367loPI   C2B 5870   1.063   5.620   9.428  0.2234 -0.0353 -0.1170
  367loPI   C3B 5871   0.944   5.452   9.014 -0.0329 -0.5228 -0.3874
  367loPI   C4B 5872   0.750   5.212   8.642  0.1373  0.1652  0.1737
  368loPI    C1 5873   0.545   5.812  10.762 -0.1854 -0.1045 -0.0963
  368loPI    C2 5874   0.724   5.455  10.766  0.0086 -0.0101 -0.1896
  368loPI    C3 5875   0.759   5.700  11.081 -0.2906 -0.1517 -0.0419
  368loPI   PO4 5876   0.345   5.720  10.573 -0.2367  0.1076  0.3043
  368loPI   GL1 5877   0.430   5.477  10.277 -0.0512 -0.2725  0.3012
  368loPI   GL2 5878   0.560   5.156  10.343  0.1253  0.1456 -0.3353
  368loPI   C1A 5879   0.234   5.356   9.902  0.0036  0.0549 -0.2865
  368loPI   C2A 5880   0.123   5.491   9.516 -0.2146 -0.4022  0.3154
  368loPI   C3A 5881   0.084   5.490   9.073  0.0638  0.0030  0.1550
  368loPI   C4A 5882   0.205   5.213   8.748 -0.0924 -0.0028 -0.0630
  368loPI   C5A 5883   0.340   4.991   8.393 -0.0543 -0.0419  0.1539
  368loPI   C6A 5884   0.603   5.066   8.065 -0.1642 -0.2477 -0.0375
  368loPI   C1B 5885   0.726   5.187   9.959 -0.0460 -0.1373  0.0846
  368loPI   C2B 5886   0.866   5.168   9.630 -0.2354  0.1895 -0.1052
  368loPI   C3B 5887   1.034   5.017   9.298 -0.0017 -0.2281  0.1120
  368loPI   C4B 5888   1.129   4.926   8.850 -0.2671 -0.0914  0.0208
  369loPI    C1 5889  11.350   4.843  10.705  0.0177 -0.1850  0.1292
  369loPI    C2 5890  11.242   5.175  10.902  0.2387 -0.0157 -0.0301
  369loPI    C3 5891  10.987   5.002  10.646  0.2161  0.1824 -0.1438
  369loPI   PO4 5892  11.584   4.917  10.642 -0.0265 -0.3955 -0.0857
  369loPI   GL1 5893  11.789   4.905  10.284  0.2040 -0.1304  0.0653
  369loPI   GL2 5894  11.977   4.687  10.151 -0.0036 -0.0198  0.0227
  369loPI   C1A 5895  11.539   4.943   9.951 -0.1284 -0.0937  0.2386
  369loPI   C2A 5896  11.410   5.045   9.502  0.0609  0.1838  0.0689
  369loPI   C3A 5897  11.483   5.200   9.215  0.0009 -0.0765  0.0273
  369loPI   C4A 5898  11.542   5.302   8.793  0.0460  0.1389 -0.1856
  369loPI   C5A 5899  11.192   5.209   8.434  0.0852  0.1587  0.2048
  369loPI   C6A 5900  11.015   5.237   8.031  0.1500 -0.2244  0.2007
  369loPI   C1B 5901  12.010   4.701   9.732 -0.0790 -0.1355 -0.0243
  369loPI   C2B 5902  11.784   4.736   9.360 -0.1919  0.3867  0.1733
  369loPI   C3B 5903  11.800   4.872   8.928  0.2355  0.0960  0.2039
  369loPI   C4B 5904  11.894   5.061   8.501  0.1977  0.1625  0.1645
  370loPI    C1 5905   2.863  15.996  10.679  0.1771 -0.2503 -0.1303
  370loPI    C2 5906   2.940  16.187  11.023 -0.0066 -0.0441 -0.2013
  370loPI    C3 5907   3.165  15.875  10.912  0.0384 -0.1283  0.1174
  370loPI   PO4 5908   2.621  15.965  10.657 -0.2498 -0.2091 -0.2598
  370loPI   GL1 5909   2.491  15.797  10.307 -0.1444 -0.3060 -0.2856
  370loPI   GL2 5910   2.740  15.947  10.203 -0.0110 -0.0748  0.2068
  370loPI   C1A 5911   2.488  15.793   9.798  0.1530 -0.0961 -0.4521
  370loPI   C2A 5912   2.488  15.692   9.396 -0.0792  0.0633 -0.5345
  370loPI   C3A 5913   2.442  15.718   8.993  0.2530  0.1967 -0.0051
  370loPI   C4A 5914   2.415  15.429   8.732 -0.2185 -0.1031  0.0484
  370loPI   C5A 5915   2.149  15.228   8.386  0.3509 -0.0135 -0.0713
  370loPI   C6A 5916   1.820  14.997   8.160 -0.0134  0.1236 -0.3461
  370loPI   C1B 5917   2.908  16.082   9.858 -0.1970  0.0830  0.1714
  370loPI   C2B 5918   2.791  16.072   9.386  0.0997 -0.0067 -0.0438
  370loPI   C3B 5919   2.751  16.142   8.876 -0.1066  0.1906  0.0087
  370loPI   C4B 5920   2.876  15.759   8.630 -0.0193 -0.0410 -0.2429
  371loPI    C1 5921  16.076   4.523  10.951 -0.0079 -0.0818  0.0607
  371loPI    C2 5922  15.936   4.758  11.243 -0.1117 -0.1544  0.0697
  371loPI    C3 5923  16.329   4.692  11.210 -0.0771  0.0633  0.0348
  371loPI   PO4 5924  15.960   4.627  10.694  0.0538  0.0825 -0.0253
  371loPI   GL1 5925  16.094   4.670  10.266 -0.1114 -0.0918  0.0190
  371loPI   GL2 5926  16.332   4.588  10.075  0.0653 -0.0873 -0.1236
  371loPI   C1A 5927  15.852   4.467   9.872  0.0029 -0.4938 -0.1101
  371loPI   C2A 5928  15.775   4.494   9.390 -0.2728  0.1260  0.1462
  371loPI   C3A 5929  15.735   4.299   8.945 -0.0486  0.0698 -0.0863
  371loPI   C4A 5930  15.551   4.326   8.610 -0.0529 -0.0613  0.2283
  371loPI   C5A 5931  15.573   4.432   8.157 -0.2910 -0.1643 -0.1460
  371loPI   C6A 5932  16.008   4.474   7.947 -0.2269 -0.1225  0.0295
  371loPI   C1B 5933  16.249   4.583   9.612 -0.1311  0.0625 -0.1446
  371loPI   C2B 5934  16.263   4.614   9.184  0.1146 -0.0794 -0.0016
  371loPI   C3B 5935  16.314   4.688   8.853 -0.0897 -0.2931  0.0194
  371loPI   C4B 5936  16.532   4.512   8.534  0.0086  0.0477 -0.2767
  372loPI    C1 5937   8.128  12.066  10.790 -0.0530 -0.2013  0.3271
  372loPI    C2 5938   7.793  12.190  10.971 -0.1425 -0.0732  0.0798
  372loPI    C3 5939   8.146  12.349  11.071 -0.1727 -0.1054  0.2399
  372loPI   PO4 5940   8.081  12.082  10.582 -0.0227  0.4479  0.3408
  372loPI   GL1 5941   8.303  12.258  10.222 -0.0184 -0.1995  0.1281
  372loPI   GL2 5942   8.422  12.551  10.219  0.1399 -0.1359 -0.0053
  372loPI   C1A 5943   8.343  12.447   9.784  0.1598  0.2673 -0.0327
  372loPI   C2A 5944   8.536  12.583   9.433 -0.0660 -0.1332 -0.1569
  372loPI   C3A 5945   8.775  12.664   9.048 -0.0731 -0.0024  0.1327
  372loPI   C4A 5946   8.880  12.637   8.592  0.1345  0.0592  0.0592
  372loPI   C5A 5947   8.979  12.360   8.375  0.0508  0.2490 -0.1116
  372loPI   C6A 5948   9.277  12.084   8.202  0.0558  0.1021  0.2554
  372loPI   C1B 5949   8.603  12.851   9.855 -0.2812  0.0607 -0.0727
  372loPI   C2B 5950   8.715  13.134   9.503  0.1466  0.0681 -0.1082
  372loPI   C3B 5951   8.732  13.381   9.107  0.1419 -0.0863  0.0961
  372loPI   C4B 5952   8.475  13.697   8.908  0.2183 -0.1174 -0.1825
  373loPI    C1 5953  11.957   9.214  10.752 -0.2663 -0.0774 -0.0463
  373loPI    C2 5954  11.700   9.422  10.976 -0.1505 -0.1952  0.1996
  373loPI    C3 5955  11.911   9.123  11.138 -0.0623 -0.2807 -0.0671
  373loPI   PO4 5956  11.902   9.297  10.563  0.0610  0.1718 -0.3147
  373loPI   GL1 5957  12.106   9.567  10.372 -0.2312 -0.1602  0.2673
  373loPI   GL2 5958  12.218   9.971  10.416 -0.1783 -0.1416 -0.0868
  373loPI   C1A 5959  11.914   9.489   9.941  0.1477  0.0238  0.0627
  373loPI   C2A 5960  11.792   9.494   9.570 -0.0245 -0.2673 -0.1580
  373loPI   C3A 5961  11.603   9.461   9.191 -0.0153 -0.1679  0.1567
  373loPI   C4A 5962  11.752   9.349   8.816 -0.3430  0.2693  0.3229
  373loPI   C5A 5963  11.678   9.091   8.476 -0.2221  0.0544  0.1844
  373loPI   C6A 5964  11.691   8.776   8.127 -0.1892  0.0930  0.0767
  373loPI   C1B 5965  12.297   9.827   9.970  0.0945  0.2059  0.0274
  373loPI   C2B 5966  12.277   9.731   9.525  0.0327 -0.1195 -0.0917
  373loPI   C3B 5967  12.195   9.421   9.173  0.0066  0.1839 -0.1317
  373loPI   C4B 5968  12.230   9.261   8.769 -0.1540 -0.0226  0.1973
  374loPI    C1 5969   7.588  16.210  10.955 -0.1209 -0.0005  0.1570
  374loPI    C2 5970   7.507  16.501  11.217 -0.0384  0.0865  0.0868
  374loPI    C3 5971   7.869  16.479  11.049 -0.2104  0.2708 -0.3204
  374loPI   PO4 5972   7.328  16.032  10.863 -0.3192 -0.0256  0.1142
  374loPI   GL1 5973   7.176  15.943  10.425 -0.2392 -0.2207 -0.2069
  374loPI   GL2 5974   7.404  15.894  10.197  0.1435  0.0031  0.0372
  374loPI   C1A 5975   6.922  16.215  10.303 -0.0212 -0.0487  0.2232
  374loPI   C2A 5976   6.795  16.314  10.028 -0.1421 -0.6702 -0.0654
  374loPI   C3A 5977   6.678  16.678   9.739  0.1659  0.0377 -0.3143
  374loPI   C4A 5978   6.619  17.025   9.503  0.1250 -0.0133 -0.2172
  374loPI   C5A 5979   6.524  17.146   9.035  0.2177 -0.0207  0.2116
  374loPI   C6A 5980   6.455  17.038   8.649 -0.2448 -0.0122  0.0503
  374loPI   C1B 5981   7.208  16.061   9.874 -0.1486 -0.0230 -0.1945
  374loPI   C2B 5982   7.066  16.388   9.621 -0.2590  0.0904 -0.0321
  374loPI   C3B 5983   6.966  16.572   9.200  0.0439  0.1156  0.0978
  374loPI   C4B 5984   6.977  16.967   8.870 -0.0184 -0.2553  0.2418
  375loPI    C1 5985  13.324  10.128  10.409  0.0572 -0.1183 -0.0132
  375loPI    C2 5986  13.502  10.097  10.766 -0.0757  0.1355  0.0779
  375loPI    C3 5987  13.157   9.906  10.698 -0.1291  0.2100  0.1377
  375loPI   PO4 5988  13.153  10.420  10.372 -0.1578  0.1967  0.0660
  375loPI   GL1 5989  12.933  10.345  10.038 -0.1882  0.1845  0.0136
  375loPI   GL2 5990  12.814  10.593  10.040 -0.1422  0.0067  0.1882
  375loPI   C1A 5991  12.708  10.168   9.776  0.0454 -0.0225  0.1041
  375loPI   C2A 5992  12.604  10.174   9.400  0.1310  0.1420  0.2895
  375loPI   C3A 5993  12.359   9.877   9.071 -0.2376  0.0333  0.3202
  375loPI   C4A 5994  12.104   9.743   8.695 -0.0417  0.0239  0.0894
  375loPI   C5A 5995  11.984   9.436   8.332  0.1535 -0.2302 -0.1285
  375loPI   C6A 5996  11.873   9.333   7.906 -0.0039 -0.1054  0.1232
  375loPI   C1B 5997  12.779  10.615   9.548 -0.2091  0.1479  0.1407
  375loPI   C2B 5998  12.642  10.585   9.080 -0.0823  0.3909  0.2894
  375loPI   C3B 5999  12.481  10.246   8.758 -0.1261  0.0216  0.3688
  375loPI   C4B 6000  12.409  10.116   8.356 -0.0188  0.0105 -0.1943
  376loPI    C1 6001  13.989   8.130  10.416 -0.0464 -0.0525 -0.0159
  376loPI    C2 6002  14.281   7.858  10.394  0.1458  0.1282  0.2448
  376loPI    C3 6003  14.067   7.895  10.729 -0.0266  0.1502  0.1335
  376loPI   PO4 6004  13.972   8.258  10.207 -0.0824  0.3024 -0.1133
  376loPI   GL1 6005  13.812   8.360   9.849 -0.0319 -0.1483 -0.1058
  376loPI   GL2 6006  13.880   8.602   9.796 -0.0824 -0.2568  0.2957
  376loPI   C1A 6007  13.619   8.202   9.525 -0.0005  0.0533  0.0698
  376loPI   C2A 6008  13.557   7.955   9.171  0.1267  0.1372 -0.2550
  376loPI   C3A 6009  13.620   7.752   8.847 -0.0610  0.1351 -0.2527
  376loPI   C4A 6010  13.785   7.636   8.388 -0.0562 -0.0450  0.3869
  376loPI   C5A 6011  13.932   8.037   8.124 -0.0907 -0.0906  0.0110
  376loPI   C6A 6012  14.219   8.333   8.177 -0.2907  0.1436 -0.3117
  376loPI   C1B 6013  13.901   8.580   9.348  0.1260  0.2099 -0.2781
  376loPI   C2B 6014  13.911   8.302   8.945  0.2674  0.1603  0.2041
  376loPI   C3B 6015  14.119   8.019   8.640  0.1366  0.0549 -0.0533
  376loPI   C4B 6016  14.498   8.013   8.720 -0.0259 -0.1125 -0.1946
  377loPI    C1 6017   5.444  11.985  10.850 -0.2907 -0.0650  0.0377
  377loPI    C2 6018   5.420  11.673  11.099 -0.1463 -0.1881 -0.0995
  377loPI    C3 6019   5.344  11.624  10.709  0.2425 -0.1355 -0.1852
  377loPI   PO4 6020   5.727  12.125  10.856  0.0909 -0.1948 -0.0416
  377loPI   GL1 6021   5.838  12.118  10.434  0.5124 -0.1170  0.1393
  377loPI   GL2 6022   5.503  11.951  10.379  0.1538  0.2229  0.3753
  377loPI   C1A 6023   5.820  12.131  10.048 -0.0528 -0.0586  0.0089
  377loPI   C2A 6024   5.774  12.115   9.569 -0.1615  0.0622  0.0153
  377loPI   C3A 6025   5.846  12.156   9.154  0.0766  0.0721  0.2302
  377loPI   C4A 6026   6.193  12.404   8.817  0.1361 -0.1607  0.2389
  377loPI   C5A 6027   6.411  12.402   8.452  0.1894  0.1357 -0.1506
  377loPI   C6A 6028   6.793  12.536   8.263 -0.1619  0.1720 -0.0035
  377loPI   C1B 6029   5.536  11.750  10.013  0.1660  0.2402 -0.4273
  377loPI   C2B 6030   5.440  11.683   9.661 -0.1450 -0.3510  0.2604
  377loPI   C3B 6031   5.484  11.749   9.234  0.3181  0.0647 -0.0036
  377loPI   C4B 6032   5.219  11.889   8.918  0.1391 -0.0895 -0.1743
  378loPI    C1 6033   8.192   2.345  10.794 -0.0460  0.1648 -0.1799
  378loPI    C2 6034   8.354   2.033  10.985 -0.1210  0.2116 -0.0387
  378loPI    C3 6035   7.958   2.090  10.995 -0.1264  0.2094 -0.2166
  378loPI   PO4 6036   8.216   2.376  10.579  0.0100  0.0890 -0.0826
  378loPI   GL1 6037   8.154   2.249  10.158  0.1898  0.1257 -0.2676
  378loPI   GL2 6038   7.937   2.436  10.128  0.1252 -0.0510 -0.3658
  378loPI   C1A 6039   8.326   2.262   9.854  0.0883  0.1551 -0.3558
  378loPI   C2A 6040   8.410   2.331   9.497  0.0152 -0.0010  0.0058
  378loPI   C3A 6041   8.310   2.249   9.162  0.0452  0.0717  0.0756
  378loPI   C4A 6042   8.474   2.373   8.840 -0.1777  0.0825  0.0330
  378loPI   C5A 6043   8.426   2.562   8.522  0.0476 -0.1176  0.1607
  378loPI   C6A 6044   8.145   2.757   8.120  0.0616 -0.1543  0.0015
  378loPI   C1B 6045   7.914   2.433   9.615 -0.1227 -0.0841 -0.0849
  378loPI   C2B 6046   7.901   2.531   9.180 -0.0178 -0.0751  0.1440
  378loPI   C3B 6047   7.892   2.267   8.792  0.1213  0.0401  0.0013
  378loPI   C4B 6048   8.082   2.193   8.384  0.2128  0.0020 -0.0459
  379loPI    C1 6049   6.012   1.185  11.242 -0.1379 -0.2680 -0.1311
  379loPI    C2 6050   6.395   1.135  11.347 -0.0876  0.2006 -0.0712
  379loPI    C3 6051   6.104   0.984  11.576  0.0544  0.0454  0.0095
  379loPI   PO4 6052   5.967   1.197  10.984  0.1061 -0.0196  0.0291
  379loPI   GL1 6053   6.040   1.110  10.674 -0.0518 -0.1399  0.0714
  379loPI   GL2 6054   5.822   1.108  10.481 -0.2059 -0.2124 -0.0224
  379loPI   C1A 6055   6.135   0.910  10.203  0.2575 -0.0374  0.2619
  379loPI   C2A 6056   6.137   0.820   9.740 -0.0999  0.1444 -0.0278
  379loPI   C3A 6057   6.042   0.798   9.380  0.4777  0.1554 -0.0461
  379loPI   C4A 6058   6.026   0.923   8.977 -0.0876 -0.2657 -0.0001
  379loPI   C5A 6059   5.978   0.840   8.491  0.1035  0.2532  0.1909
  379loPI   C6A 6060   5.671   0.735   8.155 -0.0710 -0.2572 -0.0125
  379loPI   C1B 6061   5.661   1.099  10.119 -0.0253 -0.1529 -0.0895
  379loPI   C2B 6062   5.705   1.097   9.693  0.0015 -0.0333 -0.0729
  379loPI   C3B 6063   5.686   1.151   9.262 -0.2942 -0.1627  0.1088
  379loPI   C4B 6064   5.727   1.310   8.785 -0.2048 -0.1457  0.1952
  380loPI    C1 6065  11.031   8.115  10.534  0.0250  0.0388 -0.1294
  380loPI    C2 6066  10.639   8.160  10.598  0.0347  0.0293 -0.0615
  380loPI    C3 6067  10.893   8.160  10.907  0.1042  0.1895 -0.1175
  380loPI   PO4 6068  11.004   7.990  10.317  0.1422 -0.0990 -0.2055
  380loPI   GL1 6069  11.180   8.109   9.935  0.2468 -0.2565  0.3110
  380loPI   GL2 6070  10.953   8.343   9.988  0.0678  0.2571 -0.1285
  380loPI   C1A 6071  11.332   8.059   9.409 -0.1591 -0.0271 -0.0813
  380loPI   C2A 6072  11.299   8.180   8.999  0.0654 -0.0996  0.1516
  380loPI   C3A 6073  11.432   8.083   8.665 -0.0579  0.0611  0.0538
  380loPI   C4A 6074  11.606   8.156   8.286  0.1172  0.2616 -0.1419
  380loPI   C5A 6075  11.869   8.331   8.007 -0.0185  0.0703  0.1296
  380loPI   C6A 6076  11.706   8.465   7.571  0.2086  0.1659  0.2499
  380loPI   C1B 6077  10.580   8.582   9.732 -0.2894 -0.0909  0.3859
  380loPI   C2B 6078  10.624   8.793   9.265 -0.0549 -0.3253 -0.0709
  380loPI   C3B 6079  10.595   8.909   8.825  0.1705 -0.2846 -0.2024
  380loPI   C4B 6080  10.756   9.026   8.449 -0.2811  0.1202  0.0399
  381loPI    C1 6081  17.399   2.831  10.674  0.1597  0.2614 -0.2211
  381loPI    C2 6082  17.219   3.077  10.933 -0.0363 -0.0391 -0.0673
  381loPI    C3 6083  17.600   2.969  10.991  0.0203  0.1497 -0.0824
  381loPI   PO4 6084  17.159   2.640  10.703 -0.3787 -0.0053  0.1280
  381loPI   GL1 6085  17.052   2.585  10.340 -0.0402 -0.2941  0.1009
  381loPI   GL2 6086  17.346   2.688  10.194  0.0622  0.0322 -0.2420
  381loPI   C1A 6087  16.883   2.926  10.032 -0.2840 -0.0422  0.1048
  381loPI   C2A 6088  17.025   2.977   9.648 -0.1353 -0.0903  0.0138
  381loPI   C3A 6089  16.932   3.017   9.255  0.1329  0.1730  0.0577
  381loPI   C4A 6090  16.919   3.030   8.897  0.0507  0.0137  0.3147
  381loPI   C5A 6091  17.132   3.042   8.490  0.0627 -0.0771 -0.0826
  381loPI   C6A 6092  17.287   3.038   8.083 -0.1373 -0.0449  0.1340
  381loPI   C1B 6093  17.142   2.423   9.818  0.0492  0.0260  0.0386
  381loPI   C2B 6094  17.057   2.469   9.391 -0.0037  0.0227  0.3488
  381loPI   C3B 6095  17.101   2.362   8.946 -0.3135  0.0159  0.1566
  381loPI   C4B 6096  17.354   2.303   8.495 -0.3000 -0.0955 -0.0439
  382loPI    C1 6097   0.681  12.863  11.060 -0.1403  0.0187 -0.2854
  382loPI    C2 6098   0.507  12.576  10.844 -0.3089 -0.2022  0.1308
  382loPI    C3 6099   0.789  12.481  11.111 -0.1613  0.0568  0.0704
  382loPI   PO4 6100   0.661  13.069  10.834 -0.0720 -0.0256  0.1248
  382loPI   GL1 6101   0.954  13.178  10.533 -0.2595  0.1782 -0.1309
  382loPI   GL2 6102   0.648  13.277  10.339 -0.0237  0.2308 -0.1170
  382loPI   C1A 6103   1.120  13.322  10.166 -0.1710 -0.0789 -0.0565
  382loPI   C2A 6104   1.194  13.152   9.785  0.1352  0.2860  0.1205
  382loPI   C3A 6105   1.367  12.865   9.396 -0.0134 -0.0202 -0.0678
  382loPI   C4A 6106   1.579  12.693   9.025  0.0338 -0.0167 -0.1407
  382loPI   C5A 6107   1.420  12.663   8.667 -0.0798 -0.1378  0.0459
  382loPI   C6A 6108   1.518  12.615   8.195 -0.0673 -0.1431 -0.1096
  382loPI   C1B 6109   0.733  13.047   9.988 -0.1952 -0.2231  0.1054
  382loPI   C2B 6110   0.763  13.114   9.544 -0.0957 -0.0136  0.1429
  382loPI   C3B 6111   0.871  13.256   9.108 -0.0211  0.2013  0.0161
  382loPI   C4B 6112   1.235  13.082   8.904 -0.1967  0.2327  0.0685
  383loPI    C1 6113   7.013   6.326  10.874  0.0579 -0.1701 -0.1895
  383loPI    C2 6114   6.944   6.670  10.682 -0.2968 -0.1695 -0.0674
  383loPI    C3 6115   7.238   6.648  10.952 -0.2010  0.0059 -0.1551
  383loPI   PO4 6116   7.005   6.097  10.597  0.0254  0.2119  0.2052
  383loPI   GL1 6117   7.127   5.787  10.292  0.1815  0.2262  0.0712
  383loPI   GL2 6118   7.391   5.875  10.275  0.0356 -0.0561 -0.2564
  383loPI   C1A 6119   7.129   5.594   9.977 -0.2112 -0.1189 -0.2605
  383loPI   C2A 6120   6.875   5.380   9.700  0.2035  0.1243  0.0258
  383loPI   C3A 6121   6.644   5.153   9.352  0.0211  0.0984 -0.2313
  383loPI   C4A 6122   6.451   5.219   8.834 -0.0667  0.1779 -0.0137
  383loPI   C5A 6123   6.245   5.286   8.436 -0.5062 -0.0280 -0.2558
  383loPI   C6A 6124   6.057   5.264   7.999  0.0688 -0.0073 -0.2553
  383loPI   C1B 6125   7.118   6.117   9.934  0.1738 -0.1414  0.1987
  383loPI   C2B 6126   7.055   6.238   9.573  0.0759  0.0643 -0.1839
  383loPI   C3B 6127   6.892   6.277   9.182  0.2956 -0.0279 -0.0936
  383loPI   C4B 6128   6.759   6.414   8.738 -0.1882  0.3081 -0.1418
  384loPI    C1 6129   9.937  10.825  11.168  0.1623  0.2589  0.0282
  384loPI    C2 6130  10.245  10.747  11.411  0.0439 -0.0632  0.0790
  384loPI    C3 6131   9.976  11.025  11.513  0.2484  0.1334  0.0919
  384loPI   PO4 6132  10.032  10.899  10.959  0.0343  0.2414  0.1896
  384loPI   GL1 6133  10.096  10.955  10.495  0.2045  0.0778  0.1567
  384loPI   GL2 6134   9.777  11.021  10.449 -0.0875 -0.1610  0.1015
  384loPI   C1A 6135  10.061  10.928  10.047  0.0253  0.1504 -0.1380
  384loPI   C2A 6136  10.003  10.797   9.681  0.1340 -0.1719 -0.5172
  384loPI   C3A 6137   9.735  10.577   9.394  0.0447  0.1117  0.0029
  384loPI   C4A 6138   9.522  10.683   8.947  0.3297  0.0335 -0.2813
  384loPI   C5A 6139   9.217  10.720   8.564  0.4145 -0.3233  0.1234
  384loPI   C6A 6140   9.044  11.018   8.400  0.2902  0.1902 -0.0420
  384loPI   C1B 6141   9.384  11.163  10.198  0.0249  0.1060 -0.0359
  384loPI   C2B 6142   9.000  11.487  10.102 -0.0415  0.0942  0.0100
  384loPI   C3B 6143   8.549  11.453   9.965  0.0506 -0.1298  0.1077
  384loPI   C4B 6144   8.449  11.840   9.993  0.1791 -0.0930  0.1627
  385loPI    C1 6145  10.468   9.856  11.217 -0.0712 -0.1353  0.0391
  385loPI    C2 6146  10.643   9.501  11.159 -0.0439 -0.1213  0.0347
  385loPI    C3 6147  10.836   9.789  11.359  0.0140 -0.0420 -0.1329
  385loPI   PO4 6148  10.437   9.992  10.947  0.1389  0.0862  0.0218
  385loPI   GL1 6149  10.557  10.159  10.604  0.1237 -0.2769  0.2046
  385loPI   GL2 6150  10.497  10.583  10.635  0.0598  0.0968 -0.0628
  385loPI   C1A 6151  10.608  10.339  10.226 -0.1718  0.0234 -0.2498
  385loPI   C2A 6152  10.515  10.440   9.853 -0.2530  0.0260  0.0802
  385loPI   C3A 6153  10.415  10.561   9.415 -0.1032 -0.1836  0.3272
  385loPI   C4A 6154  10.215  10.746   9.183  0.1141 -0.1067  0.2152
  385loPI   C5A 6155   9.963  10.823   8.851  0.0685  0.2150  0.2072
  385loPI   C6A 6156   9.767  10.598   8.517 -0.0408 -0.3069 -0.1583
  385loPI   C1B 6157  10.519  10.850  10.214 -0.0107  0.2121 -0.1482
  385loPI   C2B 6158  10.512  10.917   9.783  0.1160 -0.0445  0.0529
  385loPI   C3B 6159  10.529  11.156   9.326 -0.1238 -0.0435  0.0793
  385loPI   C4B 6160  10.403  11.202   8.978 -0.1775 -0.2380  0.0719
  386loPI    C1 6161   2.615  15.558  10.947  0.0984  0.1071  0.0344
  386loPI    C2 6162   2.477  15.869  11.157 -0.0477 -0.0769  0.2158
  386loPI    C3 6163   2.844  15.726  11.228  0.0227  0.0572  0.1269
  386loPI   PO4 6164   2.275  15.525  10.738  0.0167 -0.1638 -0.3048
  386loPI   GL1 6165   1.963  15.547  10.480  0.0302 -0.0298  0.1914
  386loPI   GL2 6166   1.815  15.198  10.457 -0.0614 -0.2469  0.0748
  386loPI   C1A 6167   2.046  15.833  10.180 -0.1075  0.0311  0.1363
  386loPI   C2A 6168   1.972  15.868   9.716 -0.1522 -0.0722  0.1188
  386loPI   C3A 6169   2.102  15.967   9.307 -0.2074 -0.0495 -0.0595
  386loPI   C4A 6170   1.985  15.899   8.914  0.0194 -0.3217  0.1611
  386loPI   C5A 6171   1.829  15.920   8.547 -0.0943  0.2034  0.1695
  386loPI   C6A 6172   2.042  16.281   8.244  0.0663  0.3976  0.0338
  386loPI   C1B 6173   1.802  15.317  10.047  0.0967  0.2118  0.1735
  386loPI   C2B 6174   1.800  15.420   9.585  0.5473  0.4330  0.1374
  386loPI   C3B 6175   1.681  15.535   9.219  0.1677 -0.1240 -0.0723
  386loPI   C4B 6176   1.579  15.638   8.834 -0.2021  0.1705 -0.1455
  387loPI    C1 6177   3.834   9.441  10.831  0.0629  0.1656 -0.0729
  387loPI    C2 6178   4.192   9.566  10.959  0.0411  0.0629  0.0907
  387loPI    C3 6179   3.999   9.276  11.155 -0.1099  0.0829 -0.0261
  387loPI   PO4 6180   3.837   9.527  10.562  0.1206  0.1887  0.0842
  387loPI   GL1 6181   4.156   9.456  10.215 -0.3591 -0.1739  0.0615
  387loPI   GL2 6182   4.001   9.602  10.072  0.0832  0.0637  0.1642
  387loPI   C1A 6183   4.197   9.165   9.864 -0.0818  0.0124 -0.0259
  387loPI   C2A 6184   4.186   9.075   9.443  0.0308 -0.0985  0.0916
  387loPI   C3A 6185   4.167   9.068   9.010  0.0702  0.1016  0.2963
  387loPI   C4A 6186   4.082   9.094   8.494 -0.1400  0.2321  0.1250
  387loPI   C5A 6187   4.349   9.133   8.150  0.1840  0.0284 -0.0213
  387loPI   C6A 6188   4.545   9.469   7.902  0.0656 -0.0462 -0.1575
  387loPI   C1B 6189   4.292   9.618   9.705 -0.1241  0.1474  0.0002
  387loPI   C2B 6190   4.365   9.548   9.273 -0.0239  0.0671 -0.2999
  387loPI   C3B 6191   4.401   9.581   8.871 -0.0810 -0.1779 -0.0289
  387loPI   C4B 6192   4.564   9.177   8.684 -0.1589 -0.0232  0.1501
  388loPI    C1 6193   6.489  16.022  11.435  0.0616  0.0391  0.2033
  388loPI    C2 6194   6.648  15.662  11.509 -0.0437  0.0011  0.2477
  388loPI    C3 6195   6.854  15.994  11.595  0.1790 -0.0491 -0.0744
  388loPI   PO4 6196   6.487  16.052  11.176 -0.0361 -0.0322 -0.5816
  388loPI   GL1 6197   6.330  15.955  10.714 -0.1877  0.1529  0.2352
  388loPI   GL2 6198   6.277  16.246  10.785 -0.0145 -0.1022  0.2673
  388loPI   C1A 6199   6.449  16.067  10.317  0.1566  0.1611  0.0720
  388loPI   C2A 6200   6.367  16.091   9.945 -0.0320  0.1186 -0.1590
  388loPI   C3A 6201   6.444  16.329   9.547  0.1127 -0.0759 -0.2091
  388loPI   C4A 6202   6.407  16.543   9.276 -0.1893 -0.1079 -0.0506
  388loPI   C5A 6203   6.571  16.656   8.874 -0.3380  0.2751 -0.3627
  388loPI   C6A 6204   6.798  16.658   8.487 -0.2210 -0.0176 -0.0867
  388loPI   C1B 6205   6.006  16.166  10.414  0.0770 -0.1529 -0.2392
  388loPI   C2B 6206   5.838  16.237   9.955  0.1103  0.2649 -0.2276
  388loPI   C3B 6207   5.864  16.386   9.511  0.0407 -0.1778  0.0449
  388loPI   C4B 6208   5.943  16.510   9.002 -0.1281  0.2570  0.0220
  389loPI    C1 6209  13.322  16.079  11.188 -0.2488 -0.0846 -0.0868
  389loPI    C2 6210  13.492  15.748  11.335 -0.0350  0.0583 -0.0079
  389loPI    C3 6211  13.099  15.808  11.379 -0.1316 -0.3300 -0.2923
  389loPI   PO4 6212  13.438  16.013  10.833  0.0596 -0.1871  0.1214
  389loPI   GL1 6213  13.368  16.100  10.453  0.1153  0.2360  0.1053
  389loPI   GL2 6214  13.318  15.904  10.321 -0.1943  0.0695 -0.1137
  389loPI   C1A 6215  13.659  16.118   9.962  0.1061 -0.0194  0.1843
  389loPI   C2A 6216  13.792  16.049   9.552  0.1765  0.3331  0.0289
  389loPI   C3A 6217  13.736  16.001   9.206  0.2006  0.2207  0.4379
  389loPI   C4A 6218  13.641  16.176   8.807  0.1932 -0.1096  0.1229
  389loPI   C5A 6219  13.694  16.392   8.475 -0.1210  0.0440  0.0994
  389loPI   C6A 6220  13.948  16.489   8.122  0.2535  0.0622  0.0432
  389loPI   C1B 6221  13.178  15.879   9.885  0.1089 -0.1339  0.1442
  389loPI   C2B 6222  13.284  15.952   9.451  0.0417  0.2438 -0.2933
  389loPI   C3B 6223  13.186  15.961   9.015 -0.2741  0.1706 -0.0988
  389loPI   C4B 6224  13.275  15.760   8.660 -0.2009 -0.0418 -0.2100
  390loPI    C1 6225  11.301  11.832  10.812 -0.0180 -0.1126  0.1561
  390loPI    C2 6226  11.598  11.738  10.562  0.1023  0.2221  0.1692
  390loPI    C3 6227  11.680  11.850  10.937 -0.0608  0.0108  0.2703
  390loPI   PO4 6228  11.150  11.960  10.692  0.1434 -0.1142  0.0429
  390loPI   GL1 6229  11.069  12.085  10.241  0.1206  0.2532  0.2768
  390loPI   GL2 6230  10.796  12.306  10.352  0.0990  0.1229 -0.1314
  390loPI   C1A 6231  11.277  12.078   9.808  0.1015 -0.3167 -0.2666
  390loPI   C2A 6232  11.386  12.059   9.417 -0.3501  0.3064  0.2385
  390loPI   C3A 6233  11.423  12.062   8.958 -0.3398 -0.1202 -0.1878
  390loPI   C4A 6234  11.404  12.076   8.509 -0.1310 -0.3453 -0.0008
  390loPI   C5A 6235  11.251  12.049   8.044  0.2934 -0.4050  0.0913
  390loPI   C6A 6236  11.005  12.150   7.605 -0.0928 -0.0032 -0.1110
  390loPI   C1B 6237  10.686  12.168   9.908  0.1788  0.0093  0.0815
  390loPI   C2B 6238  10.872  12.102   9.514  0.1319  0.0893  0.1052
  390loPI   C3B 6239  10.932  12.141   9.095  0.1102  0.1136  0.4882
  390loPI   C4B 6240  10.935  12.132   8.642 -0.1841  0.3557 -0.0292
  391loPI    C1 6241  16.991   6.715  10.626 -0.2239 -0.1033 -0.1723
  391loPI    C2 6242  16.772   6.580  10.932  0.0387  0.1522  0.1360
  391loPI    C3 6243  16.749   6.965  10.824  0.2029  0.1406  0.0572
  391loPI   PO4 6244  17.205   6.702  10.578 -0.0453 -0.0828 -0.0243
  391loPI   GL1 6245  17.288   6.394  10.234 -0.0704 -0.0345 -0.1069
  391loPI   GL2 6246  16.933   6.511  10.138  0.1056  0.0213  0.1362
  391loPI   C1A 6247  17.322   6.439   9.782  0.2168 -0.0942 -0.1305
  391loPI   C2A 6248  17.201   6.503   9.381 -0.0367 -0.0156 -0.3984
  391loPI   C3A 6249  17.067   6.394   8.961  0.0186 -0.0082 -0.0786
  391loPI   C4A 6250  16.832   6.361   8.569 -0.0063 -0.1648  0.0118
  391loPI   C5A 6251  16.867   6.696   8.214  0.2685  0.2220  0.0125
  391loPI   C6A 6252  17.034   6.462   7.987 -0.0849  0.0465  0.1265
  391loPI   C1B 6253  16.851   6.261   9.775 -0.0081 -0.0874  0.2255
  391loPI   C2B 6254  16.745   6.136   9.284 -0.3449  0.1338  0.0329
  391loPI   C3B 6255  16.599   6.047   8.871 -0.2945 -0.1666 -0.0599
  391loPI   C4B 6256  16.640   5.832   8.475 -0.2224  0.3148 -0.0192
  392loPI    C1 6257  16.462   4.873  10.727  0.0499  0.0052 -0.0651
  392loPI    C2 6258  16.140   5.056  10.875 -0.0265 -0.0796 -0.1253
  392loPI    C3 6259  16.504   5.155  11.007 -0.0584  0.1898 -0.2328
  392loPI   PO4 6260  16.454   4.849  10.521  0.0428  0.1417  0.0511
  392loPI   GL1 6261  16.739   4.892  10.199  0.2516  0.2718  0.0510
  392loPI   GL2 6262  17.018   4.765  10.226 -0.2286 -0.0017 -0.0400
  392loPI   C1A 6263  16.646   4.811   9.812  0.0584  0.1896  0.0771
  392loPI   C2A 6264  16.721   4.820   9.388 -0.2824  0.0521  0.0298
  392loPI   C3A 6265  16.875   4.572   9.014  0.0890 -0.2075 -0.2293
  392loPI   C4A 6266  17.043   4.500   8.636 -0.1446 -0.2333 -0.3460
  392loPI   C5A 6267  17.485   4.319   8.536 -0.2263  0.0242  0.0799
  392loPI   C6A 6268  17.838   4.358   8.267  0.0424  0.3732 -0.1913
  392loPI   C1B 6269  17.064   4.498   9.767 -0.1959 -0.0182  0.1836
  392loPI   C2B 6270  17.252   4.240   9.456  0.1389 -0.3517  0.2804
  392loPI   C3B 6271  17.220   4.198   9.053  0.0024 -0.2499  0.2130
  392loPI   C4B 6272  17.379   3.862   8.908  0.0961  0.1145  0.1902
  393loPI    C1 6273   0.710   0.459  10.668  0.1083  0.1075 -0.1502
  393loPI    C2 6274   0.819   0.636  11.009 -0.0312 -0.1242  0.0172
  393loPI    C3 6275   0.623   0.287  11.018  0.1099 -0.2154 -0.3043
  393loPI   PO4 6276   0.882   0.449  10.475  0.2051  0.0986  0.2262
  393loPI   GL1 6277   0.878   0.424  10.058 -0.1638 -0.0640 -0.2376
  393loPI   GL2 6278   0.633   0.478   9.878 -0.1773 -0.2983 -0.1107
  393loPI   C1A 6279   1.078   0.479   9.708  0.1405 -0.0681  0.1769
  393loPI   C2A 6280   1.112   0.473   9.174 -0.0919 -0.0893  0.1563
  393loPI   C3A 6281   1.256   0.489   8.950 -0.0877 -0.0322  0.0843
  393loPI   C4A 6282   1.483   0.572   8.623 -0.3524  0.2261  0.0492
  393loPI   C5A 6283   1.345   0.825   8.254 -0.1125  0.3192 -0.1361
  393loPI   C6A 6284   1.528   0.795   7.850  0.0279 -0.0984  0.0824
  393loPI   C1B 6285   0.640   0.360   9.453 -0.1729 -0.2491  0.1680
  393loPI   C2B 6286   0.711   0.195   9.088  0.0727  0.0260  0.1023
  393loPI   C3B 6287   0.755   0.015   8.664  0.1156  0.1175 -0.0790
  393loPI   C4B 6288   0.764   0.099   8.282  0.4002  0.3422 -0.0533
  394loPI    C1 6289   6.819  14.006  10.866  0.1428  0.0997  0.0655
  394loPI    C2 6290   7.101  14.019  11.149  0.1974  0.2329  0.0058
  394loPI    C3 6291   6.773  14.246  11.183  0.0122 -0.0525  0.1634
  394loPI   PO4 6292   6.907  13.724  10.762  0.2394  0.0163  0.0135
  394loPI   GL1 6293   6.717  13.439  10.483 -0.1529  0.1040 -0.2108
  394loPI   GL2 6294   6.712  13.556  10.242  0.2139 -0.1380 -0.0566
  394loPI   C1A 6295   6.601  13.100  10.238  0.1096 -0.2543  0.1177
  394loPI   C2A 6296   6.671  13.133   9.847  0.0865 -0.0066  0.1063
  394loPI   C3A 6297   6.564  13.183   9.551 -0.1233 -0.1144  0.0059
  394loPI   C4A 6298   6.774  13.149   9.214 -0.0689 -0.0704 -0.3634
  394loPI   C5A 6299   6.945  13.152   8.901  0.2533 -0.0159 -0.0433
  394loPI   C6A 6300   7.198  13.305   8.542 -0.1347  0.1415  0.1094
  394loPI   C1B 6301   6.778  13.647   9.815 -0.2367  0.0923  0.1488
  394loPI   C2B 6302   6.730  13.619   9.374  0.1326 -0.1722 -0.0962
  394loPI   C3B 6303   6.735  13.725   8.925 -0.2822  0.5295  0.1641
  394loPI   C4B 6304   6.972  13.751   8.459 -0.2163  0.0296 -0.0610
  395loPI    C1 6305  13.903   0.790  10.849  0.1556  0.0601 -0.0251
  395loPI    C2 6306  14.266   0.629  10.898  0.1533  0.0846  0.0742
  395loPI    C3 6307  14.120   0.881  11.172  0.1045  0.1570 -0.0177
  395loPI   PO4 6308  13.919   0.914  10.626  0.0688  0.0139  0.2409
  395loPI   GL1 6309  13.730   0.753  10.252  0.3574 -0.1957  0.3529
  395loPI   GL2 6310  13.926   0.971  10.026  0.0625  0.1362 -0.0166
  395loPI   C1A 6311  13.904   0.461   9.937  0.0452 -0.1813  0.0392
  395loPI   C2A 6312  13.909   0.407   9.543  0.1662  0.2796  0.3539
  395loPI   C3A 6313  13.879   0.393   9.050 -0.1905 -0.0587  0.1354
  395loPI   C4A 6314  13.747   0.263   8.700 -0.1649 -0.1159  0.1791
  395loPI   C5A 6315  13.495   0.342   8.424  0.0359 -0.0736  0.2434
  395loPI   C6A 6316  13.523   0.642   8.069  0.0457 -0.1181 -0.0800
  395loPI   C1B 6317  14.239   0.857   9.647 -0.1445 -0.0417  0.1279
  395loPI   C2B 6318  14.292   1.091   9.239  0.0233  0.0109 -0.0831
  395loPI   C3B 6319  14.098   1.269   8.864  0.1431  0.2053 -0.0605
  395loPI   C4B 6320  14.189   1.175   8.456  0.2273 -0.1100 -0.3677
  396loPI    C1 6321  12.538   1.997  10.999  0.1836 -0.0451 -0.0730
  396loPI    C2 6322  12.433   2.196  11.330  0.1575 -0.1364 -0.0261
  396loPI    C3 6323  12.505   1.803  11.347  0.0664 -0.1589 -0.1467
  396loPI   PO4 6324  12.557   2.043  10.831 -0.0811  0.0384  0.0024
  396loPI   GL1 6325  12.371   1.870  10.382 -0.0348 -0.3042  0.3238
  396loPI   GL2 6326  12.325   2.174  10.341  0.0061  0.1110  0.0753
  396loPI   C1A 6327  12.508   2.063   9.930  0.0959 -0.2434 -0.0867
  396loPI   C2A 6328  12.313   2.198   9.501 -0.0002 -0.0332  0.0846
  396loPI   C3A 6329  12.243   2.105   9.048  0.0498 -0.1884  0.0649
  396loPI   C4A 6330  12.065   2.190   8.607  0.2026  0.2505 -0.0331
  396loPI   C5A 6331  11.676   2.224   8.284  0.2793 -0.2082  0.0863
  396loPI   C6A 6332  11.205   2.286   8.228  0.0378  0.1853 -0.0286
  396loPI   C1B 6333  12.055   2.177   9.938  0.2926  0.2552 -0.2034
  396loPI   C2B 6334  11.959   1.862   9.603  0.2753  0.1215  0.1296
  396loPI   C3B 6335  11.914   1.823   9.244  0.2408 -0.1565 -0.0969
  396loPI   C4B 6336  11.953   1.661   8.857 -0.1402 -0.2025 -0.0960
  397loPI    C1 6337  14.981   4.280  10.565 -0.1445  0.0863  0.1579
  397loPI    C2 6338  14.649   4.409  10.747 -0.1260  0.1450  0.1502
  397loPI    C3 6339  15.003   4.441  10.931 -0.1274  0.0617  0.1677
  397loPI   PO4 6340  14.883   4.012  10.483 -0.0766 -0.1645 -0.0712
  397loPI   GL1 6341  15.031   3.887  10.129 -0.0493  0.2671  0.3253
  397loPI   GL2 6342  15.255   3.773   9.983 -0.0232 -0.1879 -0.1809
  397loPI   C1A 6343  14.819   4.162   9.844 -0.0906  0.0900 -0.1207
  397loPI   C2A 6344  14.674   4.225   9.391 -0.1085  0.2989  0.1095
  397loPI   C3A 6345  14.796   4.231   8.967 -0.1350  0.1381 -0.1018
  397loPI   C4A 6346  14.963   4.246   8.588 -0.0591 -0.1615 -0.1404
  397loPI   C5A 6347  14.821   4.586   8.214  0.1573  0.2860  0.0759
  397loPI   C6A 6348  14.589   4.959   8.051 -0.0084  0.1315 -0.0750
  397loPI   C1B 6349  15.068   3.742   9.569 -0.2675  0.0211  0.0440
  397loPI   C2B 6350  15.007   3.771   9.113  0.4594  0.3012 -0.1294
  397loPI   C3B 6351  15.028   3.693   8.663  0.0545 -0.1357  0.0042
  397loPI   C4B 6352  15.453   3.566   8.475 -0.2821  0.0681  0.0791
  398loPI    C1 6353   2.542   9.650  10.784 -0.2162 -0.1987 -0.0688
  398loPI    C2 6354   2.583   9.577  11.175 -0.1507  0.2119  0.0051
  398loPI    C3 6355   2.906   9.596  10.940 -0.1756  0.1555 -0.0339
  398loPI   PO4 6356   2.394   9.924  10.804  0.0694 -0.0190  0.1121
  398loPI   GL1 6357   2.297  10.166  10.460 -0.0782 -0.0651  0.2032
  398loPI   GL2 6358   1.895  10.348  10.373  0.0555  0.1725  0.0363
  398loPI   C1A 6359   2.383   9.978  10.144  0.2100 -0.0398  0.0403
  398loPI   C2A 6360   2.330   9.645   9.865 -0.0456 -0.0342  0.2598
  398loPI   C3A 6361   2.036   9.776   9.597  0.0017 -0.0860  0.0506
  398loPI   C4A 6362   1.993   9.835   9.240 -0.0635 -0.1263  0.0064
  398loPI   C5A 6363   1.877   9.572   8.799  0.0516  0.0751 -0.3218
  398loPI   C6A 6364   1.662   9.452   8.511  0.1676  0.0575 -0.3169
  398loPI   C1B 6365   1.938  10.209   9.953 -0.1433  0.0717  0.0260
  398loPI   C2B 6366   1.912  10.341   9.543 -0.1382 -0.0023 -0.2062
  398loPI   C3B 6367   1.742  10.284   9.085 -0.0239 -0.1346  0.3243
  398loPI   C4B 6368   1.640  10.418   8.777 -0.2404 -0.3249  0.0018
  399loPI    C1 6369   5.692   0.183  11.169  0.0645 -0.0880  0.2397
  399loPI    C2 6370   5.426   0.461  11.280  0.1617 -0.0050  0.2674
  399loPI    C3 6371   5.348   0.073  11.341 -0.1431 -0.0105 -0.1160
  399loPI   PO4 6372   5.761   0.226  10.992  0.2582  0.0094 -0.4510
  399loPI   GL1 6373   5.787   0.112  10.650  0.3250  0.1044  0.0533
  399loPI   GL2 6374   6.052   0.041  10.468  0.2297 -0.1041 -0.1753
  399loPI   C1A 6375   5.512   0.174  10.251  0.1558 -0.0484  0.2650
  399loPI   C2A 6376   5.531   0.133   9.752 -0.1730 -0.2089 -0.1115
  399loPI   C3A 6377   5.432   0.191   9.294  0.1039  0.1231 -0.1090
  399loPI   C4A 6378   5.396   0.326   8.806 -0.1777  0.0703 -0.1395
  399loPI   C5A 6379   5.624   0.328   8.397 -0.1161  0.1401 -0.3266
  399loPI   C6A 6380   5.797   0.116   8.172 -0.0610  0.1175 -0.0879
  399loPI   C1B 6381   5.969   0.207  10.036 -0.0273 -0.0561  0.1306
  399loPI   C2B 6382   5.986   0.308   9.571 -0.0304  0.4921  0.0735
  399loPI   C3B 6383   5.954   0.349   9.225 -0.0525 -0.1777  0.2321
  399loPI   C4B 6384   5.920   0.398   8.805 -0.1314 -0.2723 -0.0229
  400loPI    C1 6385   4.265  14.813  11.094  0.0920  0.1049  0.0524
  400loPI    C2 6386   4.116  15.179  11.026  0.0048  0.0541 -0.0332
  400loPI    C3 6387   4.264  15.086  11.386  0.0479  0.1808 -0.0179
  400loPI   PO4 6388   4.347  14.786  10.849  0.2231 -0.0630  0.2036
  400loPI   GL1 6389   4.625  14.725  10.493 -0.1956  0.0660  0.1017
  400loPI   GL2 6390   4.760  14.987  10.380 -0.2978  0.1842 -0.0271
  400loPI   C1A 6391   4.339  14.813  10.129  0.0833 -0.2761  0.0524
  400loPI   C2A 6392   4.315  14.812   9.749  0.0894 -0.1415 -0.0123
  400loPI   C3A 6393   4.331  14.909   9.357  0.2781 -0.2561  0.3144
  400loPI   C4A 6394   4.043  14.957   9.080  0.0365 -0.0481  0.1470
  400loPI   C5A 6395   3.939  15.028   8.735  0.0129 -0.1335  0.2342
  400loPI   C6A 6396   3.832  15.487   8.531 -0.1042 -0.1829  0.0875
  400loPI   C1B 6397   4.826  14.970   9.918  0.0450  0.1816  0.2640
  400loPI   C2B 6398   4.757  15.120   9.522  0.0371 -0.0052 -0.0977
  400loPI   C3B 6399   4.675  15.170   9.093  0.2317  0.1119 -0.0290
  400loPI   C4B 6400   4.493  14.861   8.847  0.2179 -0.0905 -0.0558
  401loPI    C1 6401   0.908  16.911  10.802 -0.0906  0.0943 -0.0795
  401loPI    C2 6402   1.238  17.015  10.601  0.0707 -0.2308  0.0111
  401loPI    C3 6403   1.148  17.196  10.946  0.1729 -0.1645  0.0030
  401loPI   PO4 6404   0.723  16.881  10.644  0.1911 -0.1333  0.2092
  401loPI   GL1 6405   0.389  16.677  10.379 -0.2591  0.1923  0.1074
  401loPI   GL2 6406   0.652  16.556  10.187 -0.0566  0.2740 -0.2381
  401loPI   C1A 6407   0.425  17.061  10.038 -0.0882 -0.0306  0.1323
  401loPI   C2A 6408   0.406  17.079   9.592 -0.2771 -0.2573 -0.0206
  401loPI   C3A 6409   0.468  17.156   9.189  0.0299  0.0088  0.0173
  401loPI   C4A 6410   0.327  17.041   8.793  0.1379 -0.0472  0.0997
  401loPI   C5A 6411  -0.067  17.108   8.509  0.0165  0.2126  0.2349
  401loPI   C6A 6412  -0.464  17.368   8.414 -0.1086 -0.0032  0.0086
  401loPI   C1B 6413   0.599  16.630   9.793  0.1038 -0.1246 -0.0881
  401loPI   C2B 6414   0.540  16.650   9.377  0.0133  0.4040 -0.0779
  401loPI   C3B 6415   0.478  16.558   8.953 -0.4758  0.1960 -0.0494
  401loPI   C4B 6416   0.526  16.617   8.614 -0.2613  0.0178 -0.2863
  402loPI    C1 6417   1.462   7.871  11.055 -0.1017  0.1801 -0.0988
  402loPI    C2 6418   1.517   7.533  10.848  0.0254  0.3022 -0.2674
  402loPI    C3 6419   1.174   7.594  11.045  0.0446  0.0279 -0.1445
  402loPI   PO4 6420   1.564   8.018  10.827 -0.0037  0.1100 -0.0044
  402loPI   GL1 6421   1.421   8.131  10.396  0.1967  0.0358  0.0317
  402loPI   GL2 6422   1.645   8.144  10.164  0.1579 -0.2054 -0.0716
  402loPI   C1A 6423   1.153   8.344  10.033  0.2216 -0.1939  0.3434
  402loPI   C2A 6424   1.135   8.573   9.602  0.2575 -0.1076  0.0144
  402loPI   C3A 6425   1.269   8.464   9.192 -0.0930 -0.0718 -0.3260
  402loPI   C4A 6426   1.456   8.681   8.787 -0.0168 -0.3150 -0.0890
  402loPI   C5A 6427   1.686   8.801   8.428 -0.0515  0.0104 -0.1719
  402loPI   C6A 6428   2.051   8.641   8.023  0.1236  0.2579 -0.2373
  402loPI   C1B 6429   1.577   8.246   9.703 -0.3226  0.1508  0.3155
  402loPI   C2B 6430   1.667   8.130   9.307 -0.1200  0.0942 -0.1303
  402loPI   C3B 6431   1.679   7.735   9.099 -0.0435  0.2818  0.0812
  402loPI   C4B 6432   1.632   7.412   9.232 -0.0427  0.1146 -0.1095
  403loPI    C1 6433  16.249   2.727  10.772 -0.3594 -0.0242  0.2430
  403loPI    C2 6434  16.416   2.976  11.037 -0.0667 -0.0531  0.0908
  403loPI    C3 6435  16.332   2.599  11.142  0.2490 -0.1284  0.0818
  403loPI   PO4 6436  16.341   2.812  10.577  0.0485  0.1403  0.0301
  403loPI   GL1 6437  16.585   2.593  10.306  0.1205 -0.1638 -0.2379
  403loPI   GL2 6438  16.693   2.224  10.240  0.2109  0.0685 -0.1816
  403loPI   C1A 6439  16.609   2.554   9.826 -0.0869  0.0000 -0.1793
  403loPI   C2A 6440  16.585   2.604   9.346 -0.0549  0.2906 -0.1839
  403loPI   C3A 6441  16.669   2.597   8.952  0.1867 -0.1452  0.0022
  403loPI   C4A 6442  16.844   2.627   8.482  0.2961 -0.1731  0.2264
  403loPI   C5A 6443  16.985   2.312   8.203  0.0813 -0.5087  0.1205
  403loPI   C6A 6444  16.962   1.860   8.202 -0.0595 -0.2467  0.0695
  403loPI   C1B 6445  16.676   2.055   9.836  0.0571  0.1493  0.1917
  403loPI   C2B 6446  16.664   2.124   9.465 -0.0782  0.0608  0.2990
  403loPI   C3B 6447  16.689   2.055   9.054 -0.0793 -0.0951  0.1519
  403loPI   C4B 6448  16.812   2.080   8.633 -0.1815 -0.0574 -0.0848
  404loPI    C1 6449   2.003   7.340  10.947  0.0679  0.1688 -0.1741
  404loPI    C2 6450   1.960   7.736  10.987  0.0664  0.1406  0.1245
  404loPI    C3 6451   2.089   7.516  11.296 -0.2529 -0.1370  0.0668
  404loPI   PO4 6452   1.953   7.289  10.654  0.1053 -0.1537  0.0152
  404loPI   GL1 6453   2.185   7.384  10.182  0.3382 -0.2239 -0.1409
  404loPI   GL2 6454   2.467   7.325  10.204 -0.2697 -0.0260  0.2278
  404loPI   C1A 6455   2.074   7.171   9.823 -0.4031  0.0414  0.0431
  404loPI   C2A 6456   2.075   7.087   9.488 -0.0597 -0.0174 -0.3166
  404loPI   C3A 6457   2.068   7.017   9.069  0.1347  0.0489 -0.2267
  404loPI   C4A 6458   2.235   6.957   8.674 -0.1962  0.2759  0.2623
  404loPI   C5A 6459   2.246   6.845   8.197  0.0516 -0.0537  0.0689
  404loPI   C6A 6460   2.155   6.539   7.970 -0.0446  0.0352  0.2920
  404loPI   C1B 6461   2.485   7.421   9.784 -0.1098 -0.0104 -0.1921
  404loPI   C2B 6462   2.554   7.366   9.440  0.0395 -0.0805  0.2195
  404loPI   C3B 6463   2.607   7.268   9.048 -0.3004 -0.0585  0.1093
  404loPI   C4B 6464   2.707   7.290   8.575 -0.1506  0.0668  0.0303
  405loPI    C1 6465   8.823   5.349  10.798 -0.1051 -0.0736  0.0579
  405loPI    C2 6466   8.499   5.192  10.974 -0.1867 -0.0667 -0.0847
  405loPI    C3 6467   8.861   5.135  11.135 -0.2683  0.0062  0.1283
  405loPI   PO4 6468   8.727   5.350  10.599 -0.6188 -0.0644  0.4720
  405loPI   GL1 6469   8.948   5.495  10.184  0.1153 -0.2308  0.2976
  405loPI   GL2 6470   9.087   5.488   9.909 -0.0960  0.0719 -0.1296
  405loPI   C1A 6471   8.598   5.427   9.852  0.0984  0.2380  0.0333
  405loPI   C2A 6472   8.369   5.486   9.513  0.1962 -0.0703 -0.0015
  405loPI   C3A 6473   8.367   5.679   9.260 -0.0493  0.0414  0.2000
  405loPI   C4A 6474   8.388   5.820   8.899 -0.1492  0.0521 -0.2795
  405loPI   C5A 6475   8.229   6.168   8.706  0.0689 -0.0160 -0.1215
  405loPI   C6A 6476   8.325   6.407   8.430 -0.2311 -0.0555 -0.0973
  405loPI   C1B 6477   9.271   5.779   9.582 -0.1940  0.0147  0.1975
  405loPI   C2B 6478   9.388   5.793   9.174  0.1234  0.0896  0.1589
  405loPI   C3B 6479   9.499   5.834   8.809  0.0980 -0.1407 -0.0156
  405loPI   C4B 6480   9.250   5.575   8.649 -0.1851 -0.0427  0.0441
  406POPI    C1 6481   2.811   9.104  11.134  0.0742  0.0958  0.1281
  406POPI    C2 6482   2.724   8.772  11.340  0.2452 -0.0691 -0.0625
  406POPI    C3 6483   2.640   9.130  11.495 -0.1647 -0.2048  0.0417
  406POPI   PO4 6484   2.735   9.095  10.853  0.1152  0.1945 -0.1904
  406POPI   GL1 6485   2.794   8.829  10.415  0.0449  0.1252  0.2385
  406POPI   GL2 6486   2.484   8.725  10.297  0.0948  0.2547 -0.0380
  406POPI   C1A 6487   3.023   8.705   9.921  0.3487 -0.5423 -0.0140
  406POPI   D2A 6488   3.291   8.768   9.679  0.1807  0.2024  0.1601
  406POPI   C3A 6489   3.259   8.766   9.235 -0.1471 -0.0165 -0.0872
  406POPI   C4A 6490   2.915   8.634   8.988 -0.1264 -0.0338  0.1182
  406POPI   C1B 6491   2.588   8.981   9.948 -0.0018 -0.0455  0.2076
  406POPI   C2B 6492   2.536   9.227   9.611 -0.3969 -0.0673  0.1293
  406POPI   C3B 6493   2.309   9.368   9.373 -0.0336  0.1761  0.0178
  406POPI   C4B 6494   2.338   9.391   8.993  0.0447  0.0201  0.2847
  407POPI    C1 6495  12.778  10.665  10.762  0.0662  0.1619 -0.1073
  407POPI    C2 6496  12.469  10.825  10.958  0.0982  0.3463 -0.2045
  407POPI    C3 6497  12.774  10.666  11.162 -0.2125 -0.1454 -0.1056
  407POPI   PO4 6498  12.720  10.712  10.535  0.0852  0.1485 -0.1296
  407POPI   GL1 6499  12.340  10.630  10.306  0.4761  0.1798 -0.2135
  407POPI   GL2 6500  12.300  10.375  10.079  0.1481  0.1410 -0.1604
  407POPI   C1A 6501  12.401  10.807   9.794 -0.0318 -0.2088  0.2203
  407POPI   D2A 6502  12.411  10.880   9.391  0.0809 -0.0625 -0.0883
  407POPI   C3A 6503  12.263  11.156   9.048 -0.0597  0.4360  0.0005
  407POPI   C4A 6504  11.903  11.206   8.681 -0.3350 -0.1557 -0.0137
  407POPI   C1B 6505  12.174  10.276   9.726  0.0732 -0.0213  0.1050
  407POPI   C2B 6506  12.190  10.378   9.278  0.1110 -0.1928 -0.1210
  407POPI   C3B 6507  12.186  10.596   8.972 -0.1928 -0.0756 -0.2548
  407POPI   C4B 6508  12.226  10.705   8.573 -0.1665  0.2510 -0.0701
  408POPI    C1 6509  12.988   7.191  10.175 -0.1459 -0.0334  0.0674
  408POPI    C2 6510  12.860   6.812  10.180 -0.1809 -0.0220  0.0378
  408POPI    C3 6511  12.598   7.112  10.139 -0.1849  0.0203  0.3542
  408POPI   PO4 6512  13.120   7.256   9.998 -0.1972  0.0839  0.0394
  408POPI   GL1 6513  13.054   7.122   9.642 -0.1048  0.4166 -0.0747
  408POPI   GL2 6514  12.745   7.350   9.671 -0.0985 -0.1487 -0.2246
  408POPI   C1A 6515  12.970   7.031   9.212  0.4926 -0.0166 -0.1311
  408POPI   D2A 6516  12.975   7.049   8.780 -0.1591  0.0187 -0.0782
  408POPI   C3A 6517  12.819   6.883   8.418 -0.1993  0.2862 -0.1942
  408POPI   C4A 6518  12.844   6.790   8.015 -0.5218 -0.0219 -0.0994
  408POPI   C1B 6519  12.820   7.472   9.270 -0.4274  0.1307  0.2040
  408POPI   C2B 6520  12.898   7.524   8.820  0.2534 -0.1424 -0.3720
  408POPI   C3B 6521  12.874   7.435   8.370  0.0818 -0.4047 -0.1811
  408POPI   C4B 6522  12.775   7.246   7.895  0.1801  0.2434  0.1840
  409POPI    C1 6523   6.550   6.930  10.918 -0.0893 -0.1209 -0.0189
  409POPI    C2 6524   6.658   6.584  11.087  0.0518 -0.0041  0.1332
  409POPI    C3 6525   6.850   6.922  11.183  0.1098  0.0710 -0.2336
  409POPI   PO4 6526   6.513   6.890  10.747 -0.1256  0.2075 -0.2069
  409POPI   GL1 6527   6.554   6.922  10.259 -0.1778  0.1290  0.2563
  409POPI   GL2 6528   6.719   6.650  10.233  0.0476 -0.1547  0.3382
  409POPI   C1A 6529   6.248   6.949   9.993 -0.0723 -0.0869 -0.1730
  409POPI   D2A 6530   6.195   7.011   9.531 -0.0325  0.0666 -0.2489
  409POPI   C3A 6531   6.179   7.047   9.132 -0.1296  0.1819  0.1828
  409POPI   C4A 6532   6.070   7.007   8.706  0.2457  0.2118 -0.0650
  409POPI   C1B 6533   6.594   6.614   9.834  0.1205 -0.1342  0.0832
  409POPI   C2B 6534   6.636   6.692   9.403  0.2372  0.1492 -0.0277
  409POPI   C3B 6535   6.574   6.828   8.979 -0.2716  0.1528  0.2005
  409POPI   C4B 6536   6.503   7.116   8.538 -0.0758 -0.2418 -0.2063
  410POPI    C1 6537  14.521  15.921  10.578 -0.3209 -0.1054 -0.2173
  410POPI    C2 6538  14.244  15.901  10.866 -0.0884 -0.1516  0.0077
  410POPI    C3 6539  14.625  15.812  10.949 -0.0228 -0.1931 -0.3235
  410POPI   PO4 6540  14.368  15.798  10.408  0.3246 -0.0635 -0.4218
  410POPI   GL1 6541  14.249  15.587  10.038 -0.0404  0.0830 -0.1034
  410POPI   GL2 6542  14.528  15.462  10.077  0.2943  0.5268  0.3261
  410POPI   C1A 6543  13.889  15.631   9.803  0.0383  0.0266  0.1571
  410POPI   D2A 6544  13.941  15.587   9.327 -0.0548  0.1300 -0.1011
  410POPI   C3A 6545  13.822  15.585   8.852 -0.1386  0.1789  0.4510
  410POPI   C4A 6546  13.753  15.632   8.385 -0.1342 -0.2125  0.1506
  410POPI   C1B 6547  14.463  15.587   9.542  0.2849 -0.0291  0.1987
  410POPI   C2B 6548  14.576  15.558   9.094  0.1431  0.0259 -0.2744
  410POPI   C3B 6549  14.671  15.522   8.682  0.2617  0.1232  0.0531
  410POPI   C4B 6550  14.707  15.721   8.283  0.1013  0.2684 -0.0210
  411POPI    C1 6551   5.507   3.725  11.142  0.0574  0.0705 -0.1121
  411POPI    C2 6552   5.848   3.867  10.989  0.0973  0.1347  0.0338
  411POPI    C3 6553   5.795   3.860  11.385  0.0110 -0.0655  0.0199
  411POPI   PO4 6554   5.280   3.836  10.971 -0.0916  0.2163 -0.1290
  411POPI   GL1 6555   5.040   3.732  10.512 -0.0529  0.2473 -0.2373
  411POPI   GL2 6556   4.821   3.420  10.426 -0.0134 -0.0536  0.0532
  411POPI   C1A 6557   5.191   3.798  10.069  0.4252 -0.0362  0.3426
  411POPI   D2A 6558   5.483   3.847   9.770 -0.0224  0.0690 -0.0298
  411POPI   C3A 6559   5.493   3.986   9.456  0.0527 -0.0559 -0.0522
  411POPI   C4A 6560   5.595   4.071   9.036  0.0712  0.1148  0.4474
  411POPI   C1B 6561   4.764   3.587  10.045  0.2068 -0.1307 -0.0821
  411POPI   C2B 6562   4.795   3.899   9.751 -0.0626 -0.2037 -0.1036
  411POPI   C3B 6563   4.712   4.246   9.484 -0.0213  0.2117 -0.0344
  411POPI   C4B 6564   4.455   4.289   8.975  0.3644  0.0298 -0.0207
  412POPI    C1 6565   7.153  11.439  10.987 -0.0987  0.1567 -0.1366
  412POPI    C2 6566   6.924  11.667  11.223 -0.2138 -0.1979  0.1021
  412POPI    C3 6567   7.144  11.373  11.381 -0.0188 -0.2152 -0.1938
  412POPI   PO4 6568   7.231  11.546  10.800  0.0684 -0.0530  0.0971
  412POPI   GL1 6569   7.198  11.739  10.438 -0.1749  0.2082  0.0146
  412POPI   GL2 6570   6.995  11.490  10.346 -0.0759  0.2142  0.0074
  412POPI   C1A 6571   7.166  11.892  10.084 -0.0470  0.0561  0.0901
  412POPI   D2A 6572   7.130  11.911   9.650 -0.0920 -0.0818  0.1190
  412POPI   C3A 6573   7.168  11.993   9.208  0.0494 -0.0900  0.1217
  412POPI   C4A 6574   7.568  11.920   9.010 -0.3502 -0.1604  0.1367
  412POPI   C1B 6575   7.082  11.466   9.821 -0.2569 -0.0371 -0.4051
  412POPI   C2B 6576   7.187  11.539   9.351 -0.3699  0.3945  0.1689
  412POPI   C3B 6577   7.223  11.549   8.969  0.0574  0.1088 -0.2604
  412POPI   C4B 6578   7.231  11.899   8.699  0.0475  0.4148 -0.1733
  413POPI    C1 6579  14.847  17.373  10.668  0.2545 -0.0796  0.0190
  413POPI    C2 6580  14.944  17.064  10.903 -0.1519 -0.2637 -0.0468
  413POPI    C3 6581  14.579  17.225  10.926 -0.0616 -0.0207 -0.2687
  413POPI   PO4 6582  14.945  17.273  10.441 -0.0699  0.1680 -0.2723
  413POPI   GL1 6583  15.138  17.311  10.040  0.0083  0.0953  0.1265
  413POPI   GL2 6584  15.031  17.016   9.981 -0.2502 -0.1033 -0.2787
  413POPI   C1A 6585  15.207  17.513   9.708  0.0114 -0.1007 -0.0065
  413POPI   D2A 6586  15.047  17.843   9.310 -0.2430  0.0731 -0.1566
  413POPI   C3A 6587  15.142  17.788   8.935  0.0006 -0.0650 -0.1173
  413POPI   C4A 6588  15.086  17.820   8.439  0.1710  0.0604 -0.3134
  413POPI   C1B 6589  14.965  16.969   9.507  0.0617  0.1021 -0.0324
  413POPI   C2B 6590  14.638  16.949   9.169  0.1041 -0.0248 -0.1590
  413POPI   C3B 6591  14.633  17.146   8.794  0.3750  0.1000 -0.0880
  413POPI   C4B 6592  14.474  17.083   8.356  0.0411 -0.0672 -0.0925
  414POPI    C1 6593   5.472   5.108  10.872 -0.1032  0.0156  0.2141
  414POPI    C2 6594   5.383   5.354  11.174 -0.0397  0.0118  0.2362
  414POPI    C3 6595   5.628   5.477  10.882 -0.2881  0.0997  0.0612
  414POPI   PO4 6596   5.263   5.029  10.745  0.1293  0.0721  0.4561
  414POPI   GL1 6597   5.256   4.919  10.284 -0.1278  0.2410  0.0393
  414POPI   GL2 6598   5.070   4.744  10.323 -0.0724  0.1145 -0.2128
  414POPI   C1A 6599   5.198   5.157   9.969  0.2713 -0.0957  0.0919
  414POPI   D2A 6600   5.290   5.433   9.818  0.1126  0.2948  0.0645
  414POPI   C3A 6601   5.317   5.430   9.406 -0.1453 -0.2203  0.5991
  414POPI   C4A 6602   5.209   5.416   8.977 -0.1707 -0.0133  0.2582
  414POPI   C1B 6603   4.981   4.716   9.898 -0.2773  0.0482  0.1479
  414POPI   C2B 6604   4.876   4.725   9.408 -0.1491  0.1270 -0.0312
  414POPI   C3B 6605   4.776   4.565   9.103  0.0886 -0.2958  0.1495
  414POPI   C4B 6606   4.810   4.454   8.634  0.1597  0.0842  0.0800
  415POPI    C1 6607   8.600  12.151  10.971  0.0301 -0.0127  0.1015
  415POPI    C2 6608   8.665  12.216  11.360 -0.0203 -0.0229  0.1116
  415POPI    C3 6609   8.435  11.910  11.244  0.0328 -0.0480  0.0721
  415POPI   PO4 6610   8.889  12.115  10.857  0.2382 -0.0947  0.0969
  415POPI   GL1 6611   9.061  12.052  10.509  0.0950  0.0379 -0.1361
  415POPI   GL2 6612   8.873  12.364  10.404 -0.1314 -0.0361  0.0052
  415POPI   C1A 6613   9.019  11.972  10.141 -0.0588  0.1672 -0.0591
  415POPI   D2A 6614   9.230  12.213   9.801 -0.0135  0.2467 -0.1744
  415POPI   C3A 6615   9.223  12.077   9.353 -0.1224 -0.0467  0.5110
  415POPI   C4A 6616   9.009  12.200   8.959  0.3141  0.0689 -0.0621
  415POPI   C1B 6617   8.806  12.374   9.990  0.3387 -0.0730  0.1002
  415POPI   C2B 6618   8.745  12.152   9.604  0.1285 -0.3236  0.0061
  415POPI   C3B 6619   8.536  12.190   9.182 -0.2626 -0.1135 -0.0493
  415POPI   C4B 6620   8.424  12.173   8.662 -0.1256  0.0600  0.1141
  416POPI    C1 6621   9.921   2.820  10.521  0.3211  0.2290 -0.1573
  416POPI    C2 6622  10.206   2.554  10.611 -0.0301 -0.1235 -0.0569
  416POPI    C3 6623  10.186   2.900  10.810  0.0860 -0.2676  0.2107
  416POPI   PO4 6624   9.756   2.596  10.420 -0.0458 -0.3281 -0.0683
  416POPI   GL1 6625   9.452   2.776  10.201 -0.1207 -0.3447  0.1247
  416POPI   GL2 6626   9.727   2.802  10.006 -0.2122 -0.3251  0.0115
  416POPI   C1A 6627   9.072   2.763  10.040 -0.0377 -0.0362 -0.1405
  416POPI   D2A 6628   8.697   2.736   9.850  0.3127  0.4158  0.2385
  416POPI   C3A 6629   8.723   2.689   9.384 -0.2118 -0.1572 -0.4349
  416POPI   C4A 6630   8.853   2.585   8.994  0.0071 -0.3355 -0.0700
  416POPI   C1B 6631   9.662   2.837   9.550 -0.1690 -0.1254  0.0960
  416POPI   C2B 6632   9.761   2.831   9.158 -0.1086 -0.0218  0.2609
  416POPI   C3B 6633   9.738   2.780   8.704  0.2000 -0.3041  0.0220
  416POPI   C4B 6634   9.909   3.063   8.468 -0.1151 -0.1453  0.0997
  417POPI    C1 6635   5.535   8.839  11.074 -0.0493  0.2423  0.1701
  417POPI    C2 6636   5.584   8.517  11.306  0.1018  0.1462  0.0081
  417POPI    C3 6637   5.771   8.860  11.396 -0.1256  0.2157  0.2278
  417POPI   PO4 6638   5.484   8.774  10.855 -0.2719  0.2550  0.0310
  417POPI   GL1 6639   5.472   8.848  10.414 -0.3879 -0.0622  0.0566
  417POPI   GL2 6640   5.342   9.150  10.460 -0.0206  0.0472  0.0532
  417POPI   C1A 6641   5.411   8.654  10.058  0.0055 -0.0089 -0.0492
  417POPI   D2A 6642   5.476   8.388   9.783  0.2952 -0.2974  0.0599
  417POPI   C3A 6643   5.466   8.513   9.407 -0.3356  0.0995 -0.0431
  417POPI   C4A 6644   5.399   8.420   9.006 -0.0079  0.2008 -0.1259
  417POPI   C1B 6645   5.215   9.283  10.014  0.0440 -0.2463  0.0433
  417POPI   C2B 6646   5.297   9.438   9.585 -0.0684  0.1368  0.2482
  417POPI   C3B 6647   5.259   9.280   9.089 -0.0802  0.0442 -0.1951
  417POPI   C4B 6648   5.219   9.064   8.656 -0.1355  0.1694  0.1306
  418POPI    C1 6649   4.691  10.187  10.748  0.0037 -0.3072  0.0288
  418POPI    C2 6650   4.390  10.043  10.968  0.2130 -0.2671  0.3484
  418POPI    C3 6651   4.532  10.410  11.039  0.0118 -0.0885 -0.1322
  418POPI   PO4 6652   4.660  10.024  10.516 -0.0668  0.2151  0.2295
  418POPI   GL1 6653   4.566   9.896  10.107 -0.1372 -0.0234 -0.3081
  418POPI   GL2 6654   4.445  10.172  10.078 -0.2336 -0.2023  0.1199
  418POPI   C1A 6655   4.878   9.759   9.766  0.2265 -0.3366  0.2072
  418POPI   D2A 6656   4.902   9.682   9.348 -0.1270  0.2660 -0.0278
  418POPI   C3A 6657   4.866  10.042   9.089 -0.0528 -0.0454 -0.1321
  418POPI   C4A 6658   4.800  10.288   8.721  0.0778 -0.2109  0.2856
  418POPI   C1B 6659   4.441  10.051   9.551  0.1898 -0.1339  0.1349
  418POPI   C2B 6660   4.330  10.084   9.157 -0.1786  0.0239 -0.0694
  418POPI   C3B 6661   4.372  10.072   8.772  0.2231 -0.1655  0.1815
  418POPI   C4B 6662   4.258  10.212   8.296  0.2443 -0.3687 -0.1890
  419POPI    C1 6663   7.551  12.526  10.597 -0.2378  0.0413 -0.0472
  419POPI    C2 6664   7.951  12.547  10.597 -0.2307 -0.0774 -0.1982
  419POPI    C3 6665   7.743  12.697  10.904 -0.0751  0.0658 -0.1610
  419POPI   PO4 6666   7.516  12.226  10.565  0.1722  0.1504 -0.3441
  419POPI   GL1 6667   7.625  12.055  10.287  0.1416  0.0256 -0.0320
  419POPI   GL2 6668   7.784  12.254  10.159  0.0105  0.0918 -0.1189
  419POPI   C1A 6669   7.617  11.763   9.906 -0.1623 -0.1915  0.0386
  419POPI   D2A 6670   7.613  11.747   9.459  0.1323  0.1075  0.4267
  419POPI   C3A 6671   7.981  11.700   9.157  0.1238  0.0529 -0.3457
  419POPI   C4A 6672   8.313  11.663   8.957  0.0085 -0.2667  0.4347
  419POPI   C1B 6673   7.933  12.152   9.803 -0.1654  0.3282 -0.2969
  419POPI   C2B 6674   8.114  12.160   9.358  0.0852  0.0840  0.2981
  419POPI   C3B 6675   7.956  12.212   8.966 -0.2677 -0.2676  0.1553
  419POPI   C4B 6676   7.875  11.893   8.634  0.2937 -0.2616 -0.2345
  420POPI    C1 6677   4.331  15.664  10.846 -0.2796 -0.0634 -0.0199
  420POPI    C2 6678   4.452  15.343  10.640 -0.1413  0.0616 -0.1360
  420POPI    C3 6679   4.699  15.653  10.690 -0.2129  0.0793  0.1245
  420POPI   PO4 6680   4.051  15.670  10.782 -0.1315  0.1864  0.1990
  420POPI   GL1 6681   3.874  15.751  10.332 -0.2386 -0.1329  0.0743
  420POPI   GL2 6682   3.927  15.996  10.145  0.1555  0.1807 -0.0252
  420POPI   C1A 6683   4.013  15.541   9.964  0.0184  0.1106  0.0873
  420POPI   D2A 6684   3.956  15.143   9.895 -0.1151  0.1487  0.1135
  420POPI   C3A 6685   3.518  15.018   9.804 -0.0670  0.1445 -0.0317
  420POPI   C4A 6686   3.378  14.659   9.663 -0.0362  0.3234  0.3064
  420POPI   C1B 6687   3.812  15.907   9.676 -0.1316  0.1970  0.0440
  420POPI   C2B 6688   3.921  15.965   9.220  0.0214  0.2121  0.2065
  420POPI   C3B 6689   3.809  15.884   8.888 -0.0698 -0.0055 -0.0212
  420POPI   C4B 6690   3.831  15.997   8.469 -0.1626  0.1137 -0.0488
  421POPI    C1 6691   6.190  14.754  10.874  0.2093 -0.2790 -0.0493
  421POPI    C2 6692   6.484  15.010  10.960 -0.1305  0.0847  0.0603
  421POPI    C3 6693   6.443  14.675  11.174  0.1689  0.0553  0.0772
  421POPI   PO4 6694   6.200  14.694  10.645 -0.0479  0.0667  0.0801
  421POPI   GL1 6695   6.120  15.014  10.401 -0.2292  0.0710  0.0341
  421POPI   GL2 6696   6.306  15.311  10.600  0.0464 -0.1207  0.4380
  421POPI   C1A 6697   6.147  15.114  10.050  0.1676 -0.0538 -0.0628
  421POPI   D2A 6698   6.068  15.314   9.614  0.1130  0.0069  0.0078
  421POPI   C3A 6699   6.244  15.411   9.315  0.0505  0.3582  0.0447
  421POPI   C4A 6700   6.516  15.705   9.195  0.3203  0.2109  0.0422
  421POPI   C1B 6701   6.483  15.539  10.246  0.0783 -0.0980 -0.1977
  421POPI   C2B 6702   6.739  15.779  10.040  0.1213 -0.1037 -0.1242
  421POPI   C3B 6703   6.759  15.942   9.601 -0.4849  0.0651 -0.1319
  421POPI   C4B 6704   6.960  16.081   9.292 -0.3647 -0.0040  0.2892
  422POPI    C1 6705   0.750   7.632  10.793  0.1948  0.0737 -0.0487
  422POPI    C2 6706   0.593   7.986  10.893 -0.0203 -0.0234 -0.0368
  422POPI    C3 6707   0.599   7.688  11.159  0.0686 -0.0601 -0.0795
  422POPI   PO4 6708   0.708   7.540  10.547 -0.0079 -0.0243  0.2440
  422POPI   GL1 6709   0.774   7.506  10.181 -0.0046  0.3209 -0.0592
  422POPI   GL2 6710   0.447   7.502  10.054  0.0371  0.4403  0.0594
  422POPI   C1A 6711   0.874   7.272   9.791  0.1857  0.0091  0.1616
  422POPI   D2A 6712   1.095   7.564   9.517 -0.0623  0.0537  0.1783
  422POPI   C3A 6713   1.458   7.684   9.628 -0.3933 -0.3492  0.2285
  422POPI   C4A 6714   1.694   7.477   9.866  0.1698  0.2114 -0.2367
  422POPI   C1B 6715   0.375   7.396   9.595 -0.0887  0.2539 -0.1072
  422POPI   C2B 6716   0.614   7.222   9.321  0.0236 -0.2267 -0.0501
  422POPI   C3B 6717   0.693   7.179   8.959  0.1285  0.1813 -0.0591
  422POPI   C4B 6718   0.940   6.996   8.706  0.0335 -0.0147 -0.0643
  423POPI    C1 6719  15.402   4.550  10.660  0.1984 -0.0181  0.0324
  423POPI    C2 6720  15.520   4.853  10.893  0.1278  0.1238 -0.1141
  423POPI    C3 6721  15.571   4.475  11.015  0.0722  0.1962  0.1396
  423POPI   PO4 6722  15.407   4.678  10.404 -0.0105  0.1142  0.0207
  423POPI   GL1 6723  15.630   4.868  10.080 -0.1442  0.0133 -0.0003
  423POPI   GL2 6724  15.384   5.088  10.087  0.0238 -0.0038  0.1632
  423POPI   C1A 6725  15.528   4.810   9.659  0.1068  0.1127  0.0157
  423POPI   D2A 6726  15.501   4.958   9.163 -0.3212  0.0380  0.4051
  423POPI   C3A 6727  15.698   4.755   8.836 -0.0685 -0.0850 -0.1347
  423POPI   C4A 6728  16.024   4.552   8.420  0.2410 -0.1139  0.0371
  423POPI   C1B 6729  15.197   5.219   9.674  0.1007 -0.1079 -0.1085
  423POPI   C2B 6730  15.163   5.302   9.245 -0.1573  0.1287 -0.1318
  423POPI   C3B 6731  15.299   5.368   8.891  0.1289 -0.1793 -0.0182
  423POPI   C4B 6732  15.394   5.410   8.461  0.2220 -0.1869  0.3067
  424POPI    C1 6733  11.875  15.123  10.854  0.0319  0.0807 -0.0206
  424POPI    C2 6734  11.707  14.841  11.082 -0.2293  0.1794 -0.0866
  424POPI    C3 6735  11.973  15.093  11.241 -0.3048  0.1591  0.0747
  424POPI   PO4 6736  11.982  15.005  10.630 -0.2765 -0.1524  0.4224
  424POPI   GL1 6737  12.107  14.803  10.444  0.0968  0.1992 -0.3910
  424POPI   GL2 6738  12.203  14.972  10.176 -0.0290  0.1325 -0.2194
  424POPI   C1A 6739  11.874  14.475  10.199  0.0319  0.3635 -0.0985
  424POPI   D2A 6740  11.827  14.346   9.797  0.2427  0.0157  0.0396
  424POPI   C3A 6741  11.588  14.164   9.486 -0.0249 -0.0455 -0.1449
  424POPI   C4A 6742  11.495  13.978   9.105  0.0020 -0.0231  0.3876
  424POPI   C1B 6743  12.040  14.793   9.852 -0.2574  0.0953 -0.2758
  424POPI   C2B 6744  12.043  14.965   9.313  0.1262  0.4603  0.0229
  424POPI   C3B 6745  11.901  14.947   8.908  0.0611 -0.2070  0.2244
  424POPI   C4B 6746  11.744  14.710   8.493 -0.2746 -0.0966  0.1864
  425POPI    C1 6747   8.814  12.820  10.753  0.0408  0.1120  0.1535
  425POPI    C2 6748   9.132  12.598  10.848 -0.0837 -0.1032  0.0750
  425POPI    C3 6749   8.811  12.600  11.086 -0.0284  0.1077  0.1501
  425POPI   PO4 6750   8.801  12.822  10.503  0.1852  0.2854  0.1297
  425POPI   GL1 6751   8.636  13.165  10.220 -0.3050  0.1188  0.1072
  425POPI   GL2 6752   8.950  13.218  10.168 -0.2401  0.2964  0.0934
  425POPI   C1A 6753   8.432  13.348   9.884 -0.1781 -0.0895  0.0203
  425POPI   D2A 6754   8.430  13.559   9.586  0.0131 -0.1242  0.2407
  425POPI   C3A 6755   8.250  13.439   9.271 -0.0463  0.1395 -0.0732
  425POPI   C4A 6756   7.909  13.717   8.919  0.1186  0.0066 -0.1004
  425POPI   C1B 6757   9.008  13.415   9.776  0.0905 -0.1980  0.0358
  425POPI   C2B 6758   9.082  13.533   9.393 -0.1424  0.2214 -0.1674
  425POPI   C3B 6759   9.048  13.866   9.057  0.0323  0.1145 -0.0686
  425POPI   C4B 6760   9.248  14.040   8.832 -0.2484 -0.0686 -0.0952
  426POPI    C1 6761  17.595   0.919  10.930 -0.2182 -0.0473  0.0988
  426POPI    C2 6762  17.869   0.643  10.838 -0.1265  0.0827 -0.0240
  426POPI    C3 6763  17.709   0.652  11.205 -0.0951 -0.1022 -0.0048
  426POPI   PO4 6764  17.378   0.960  10.770  0.3031  0.0110  0.2660
  426POPI   GL1 6765  17.325   1.086  10.340 -0.1710 -0.1643 -0.0192
  426POPI   GL2 6766  17.535   0.842  10.168  0.0213  0.2416  0.1972
  426POPI   C1A 6767  17.050   1.135  10.029 -0.1000  0.1142 -0.3653
  426POPI   D2A 6768  17.103   1.085   9.663 -0.1960  0.0040 -0.1734
  426POPI   C3A 6769  17.076   0.971   9.250 -0.1997 -0.0762 -0.0721
  426POPI   C4A 6770  17.088   1.052   8.861 -0.1194 -0.2776  0.0843
  426POPI   C1B 6771  17.581   0.886   9.777 -0.0177 -0.1567  0.1617
  426POPI   C2B 6772  17.661   0.829   9.371 -0.0477 -0.2115  0.2693
  426POPI   C3B 6773  17.547   0.877   8.961  0.2287 -0.0004 -0.1584
  426POPI   C4B 6774  17.605   0.955   8.478 -0.0827 -0.1583  0.0443
  427POPI    C1 6775  15.744  11.952  10.553 -0.2362 -0.0492 -0.0939
  427POPI    C2 6776  15.855  11.623  10.751 -0.0896  0.0351 -0.0344
  427POPI    C3 6777  15.520  11.815  10.855 -0.1954 -0.1152 -0.0934
  427POPI   PO4 6778  15.865  11.950  10.326  0.2605 -0.0505  0.1633
  427POPI   GL1 6779  15.695  11.896  10.044 -0.0796 -0.0609  0.0134
  427POPI   GL2 6780  15.487  12.105  10.006 -0.0681  0.0946 -0.0353
  427POPI   C1A 6781  15.788  11.715   9.697 -0.0150  0.1388  0.3841
  427POPI   D2A 6782  15.711  11.662   9.264 -0.1068  0.1766 -0.0044
  427POPI   C3A 6783  15.599  11.857   8.936 -0.2771 -0.0317  0.1359
  427POPI   C4A 6784  15.378  11.715   8.728  0.0118 -0.1401  0.1799
  427POPI   C1B 6785  15.513  12.158   9.551 -0.2698 -0.2420  0.0293
  427POPI   C2B 6786  15.290  12.220   9.181  0.0121 -0.0717  0.2247
  427POPI   C3B 6787  15.356  12.373   8.767 -0.0959 -0.0771 -0.1880
  427POPI   C4B 6788  15.241  12.200   8.340 -0.1500  0.1164 -0.0844
  428POPI    C1 6789  15.219  10.603  10.165  0.0043 -0.0924  0.0132
  428POPI    C2 6790  15.523  10.760   9.958 -0.0116  0.0901  0.1254
  428POPI    C3 6791  15.557  10.395  10.118 -0.0405 -0.1014 -0.2916
  428POPI   PO4 6792  15.014  10.697  10.016  0.0123  0.2182  0.2465
  428POPI   GL1 6793  15.090  11.060   9.831  0.3256  0.0223  0.1480
  428POPI   GL2 6794  14.744  11.094   9.981 -0.2128  0.1646  0.1671
  428POPI   C1A 6795  15.115  11.055   9.379  0.2042 -0.0500  0.3824
  428POPI   D2A 6796  15.329  10.703   9.165  0.0603  0.1214 -0.1018
  428POPI   C3A 6797  15.469  10.736   8.789 -0.1152 -0.1714  0.2540
  428POPI   C4A 6798  15.520  10.682   8.357  0.1585 -0.0942  0.1518
  428POPI   C1B 6799  14.539  11.209   9.591 -0.2456  0.1214 -0.3438
  428POPI   C2B 6800  14.629  11.181   9.208 -0.0242 -0.1926  0.0273
  428POPI   C3B 6801  14.608  11.347   8.896 -0.1715 -0.1327 -0.0749
  428POPI   C4B 6802  14.556  11.148   8.545  0.1260 -0.2109 -0.0680
  429POPI    C1 6803  10.070  12.969  10.843  0.0836 -0.0041  0.0514
  429POPI    C2 6804   9.837  13.246  11.012  0.2151  0.0362  0.1683
  429POPI    C3 6805   9.967  12.936  11.228  0.1289 -0.0782  0.0574
  429POPI   PO4 6806  10.093  13.077  10.608  0.4420  0.0261 -0.0078
  429POPI   GL1 6807  10.290  12.898  10.368 -0.0888  0.0685  0.1764
  429POPI   GL2 6808  10.357  12.544  10.409  0.0247  0.0683  0.0588
  429POPI   C1A 6809   9.988  12.891  10.041 -0.2180  0.2702  0.2086
  429POPI   D2A 6810   9.818  13.085   9.775  0.5826  0.0477  0.0994
  429POPI   C3A 6811   9.960  13.330   9.476 -0.2378 -0.0367 -0.0334
  429POPI   C4A 6812  10.041  13.684   9.271 -0.2465 -0.1215 -0.0346
  429POPI   C1B 6813  10.523  12.637  10.012 -0.0841  0.0776 -0.1532
  429POPI   C2B 6814  10.583  12.486   9.543 -0.1730 -0.2469  0.0449
  429POPI   C3B 6815  10.334  12.165   9.157  0.0721 -0.1259  0.0445
  429POPI   C4B 6816  10.001  12.176   8.878  0.3853  0.0315  0.2168
  430POPI    C1 6817  13.222  11.361  10.696  0.0431  0.0388  0.1052
  430POPI    C2 6818  13.165  10.987  10.827  0.2867  0.0330  0.2000
  430POPI    C3 6819  12.856  11.199  10.687  0.1644 -0.2382  0.0506
  430POPI   PO4 6820  13.420  11.302  10.517 -0.0343 -0.1915 -0.0579
  430POPI   GL1 6821  13.542  11.080  10.236  0.2365 -0.1845 -0.0555
  430POPI   GL2 6822  13.789  10.866  10.101 -0.1268  0.1413  0.1221
  430POPI   C1A 6823  13.475  11.362   9.843 -0.1163 -0.2605  0.0060
  430POPI   D2A 6824  13.572  11.246   9.433 -0.2939  0.0224  0.0103
  430POPI   C3A 6825  13.689  11.285   9.037  0.2559 -0.1608 -0.1817
  430POPI   C4A 6826  13.568  11.332   8.598 -0.2739 -0.1890  0.3054
  430POPI   C1B 6827  13.721  10.825   9.705 -0.3363  0.2798 -0.0275
  430POPI   C2B 6828  13.655  10.797   9.232  0.0712  0.1042  0.1585
  430POPI   C3B 6829  13.731  10.865   8.759 -0.1195  0.1400  0.2309
  430POPI   C4B 6830  13.582  10.948   8.299  0.0139 -0.1718  0.0175
  431POPI    C1 6831  12.950  15.366  10.706  0.1382  0.0230 -0.0047
  431POPI    C2 6832  12.870  15.103  10.997  0.1043 -0.0205 -0.0532
  431POPI    C3 6833  12.867  15.495  11.076  0.0347 -0.0298 -0.0092
  431POPI   PO4 6834  13.122  15.314  10.569 -0.0074 -0.2028  0.0934
  431POPI   GL1 6835  13.254  15.380  10.172  0.0223 -0.0023 -0.2767
  431POPI   GL2 6836  13.457  15.467  10.027 -0.0807 -0.1370  0.1073
  431POPI   C1A 6837  13.120  15.180   9.820 -0.0157 -0.0630 -0.2258
  431POPI   D2A 6838  12.994  15.305   9.401  0.3036  0.0250 -0.0972
  431POPI   C3A 6839  12.862  15.057   9.171 -0.0871 -0.1317  0.3659
  431POPI   C4A 6840  12.912  14.655   9.015  0.0531 -0.2075 -0.3575
  431POPI   C1B 6841  13.490  15.414   9.607 -0.0058 -0.1787  0.0936
  431POPI   C2B 6842  13.404  15.504   9.130  0.1496 -0.0577  0.0408
  431POPI   C3B 6843  13.187  15.323   8.864 -0.3726 -0.2306  0.2589
  431POPI   C4B 6844  13.139  14.918   8.645  0.0272  0.0224  0.0982
  432POPI    C1 6845   5.951  13.795  10.966  0.2690  0.0929  0.1625
  432POPI    C2 6846   5.705  13.732  11.276 -0.1467  0.0975 -0.1575
  432POPI    C3 6847   6.018  13.490  11.216 -0.1398  0.0169  0.1862
  432POPI   PO4 6848   5.807  13.759  10.738  0.1167  0.1216 -0.2653
  432POPI   GL1 6849   5.565  13.847  10.466  0.1018  0.1040  0.0626
  432POPI   GL2 6850   5.931  13.923  10.267 -0.0571 -0.1304 -0.1135
  432POPI   C1A 6851   5.453  13.834  10.012  0.0170  0.2486  0.0430
  432POPI   D2A 6852   5.250  13.792   9.613  0.2119  0.1761  0.1713
  432POPI   C3A 6853   5.377  13.620   9.197 -0.3228 -0.1196  0.0222
  432POPI   C4A 6854   5.503  13.723   8.838  0.2050  0.1738  0.3855
  432POPI   C1B 6855   5.943  13.869   9.840  0.0523 -0.0013  0.0738
  432POPI   C2B 6856   5.748  13.935   9.507 -0.1012  0.0282 -0.1083
  432POPI   C3B 6857   5.720  14.101   9.101  0.0131  0.0220 -0.0507
  432POPI   C4B 6858   5.598  14.204   8.672 -0.3336 -0.2843  0.0877
  433POPI    C1 6859   0.753   1.085  10.549 -0.1814 -0.0569  0.0687
  433POPI    C2 6860   0.576   1.307  10.831  0.2273  0.2811  0.0698
  433POPI    C3 6861   0.944   1.164  10.891  0.1219 -0.0707 -0.0943
  433POPI   PO4 6862   0.836   1.142  10.275  0.2964 -0.1456  0.0838
  433POPI   GL1 6863   1.071   1.077  10.025  0.0361 -0.0154  0.1721
  433POPI   GL2 6864   0.867   0.960   9.792  0.0571 -0.1325  0.0667
  433POPI   C1A 6865   1.098   1.319   9.573  0.1019 -0.0968 -0.1911
  433POPI   D2A 6866   0.926   1.285   9.242  0.0937 -0.1181 -0.0092
  433POPI   C3A 6867   0.908   1.386   8.875 -0.1677 -0.0137  0.0114
  433POPI   C4A 6868   0.785   1.550   8.545  0.0323 -0.2340  0.0994
  433POPI   C1B 6869   0.821   0.832   9.444  0.1797  0.0036  0.4411
  433POPI   C2B 6870   0.843   0.840   9.034  0.0980 -0.3784  0.2529
  433POPI   C3B 6871   0.735   0.518   8.683  0.2390  0.4139  0.0136
  433POPI   C4B 6872   1.020   0.469   8.453  0.0540  0.0703 -0.0464
  434POPI    C1 6873  12.315  15.420  10.606  0.2349  0.1676  0.0555
  434POPI    C2 6874  12.478  15.059  10.663 -0.2132 -0.0845 -0.1976
  434POPI    C3 6875  12.357  15.276  10.976  0.1887 -0.0862 -0.0357
  434POPI   PO4 6876  12.168  15.399  10.475  0.0888 -0.3108 -0.0621
  434POPI   GL1 6877  12.158  15.554  10.099  0.1774 -0.1500  0.0810
  434POPI   GL2 6878  11.999  15.742   9.901  0.0457  0.1754 -0.0740
  434POPI   C1A 6879  12.350  15.329   9.704  0.1414  0.0104 -0.1066
  434POPI   D2A 6880  12.464  15.325   9.273  0.1840  0.1741 -0.0671
  434POPI   C3A 6881  12.421  15.083   8.891  0.2776  0.0975  0.4991
  434POPI   C4A 6882  12.636  14.883   8.603 -0.3196 -0.3410 -0.0309
  434POPI   C1B 6883  12.337  15.834   9.614 -0.0950  0.0182 -0.0929
  434POPI   C2B 6884  12.243  15.802   9.248 -0.0841  0.0317  0.0629
  434POPI   C3B 6885  12.203  15.632   8.905  0.0278  0.0320 -0.0954
  434POPI   C4B 6886  12.094  15.503   8.535  0.0677 -0.1198  0.1875
  435POPI    C1 6887   0.525   9.066  10.527  0.1934  0.1501  0.1183
  435POPI    C2 6888   0.344   8.868  10.824 -0.1550  0.0200 -0.1729
  435POPI    C3 6889   0.205   9.224  10.707  0.1766  0.2207  0.0269
  435POPI   PO4 6890   0.540   8.909  10.372  0.0340 -0.2060 -0.2012
  435POPI   GL1 6891   0.790   8.709  10.143  0.0583  0.1166 -0.0218
  435POPI   GL2 6892   0.669   8.389  10.209 -0.3054 -0.2110  0.0740
  435POPI   C1A 6893   1.155   8.839  10.017  0.0044 -0.4041 -0.0967
  435POPI   D2A 6894   1.257   9.034   9.606 -0.2100 -0.0851  0.0827
  435POPI   C3A 6895   1.254   9.008   9.197 -0.0866  0.1257 -0.0508
  435POPI   C4A 6896   0.974   8.749   8.824  0.0409 -0.1181 -0.3729
  435POPI   C1B 6897   0.683   8.303   9.797 -0.0089  0.1184  0.5312
  435POPI   C2B 6898   0.744   8.328   9.304 -0.0762  0.1238  0.2789
  435POPI   C3B 6899   0.914   8.262   8.923 -0.2309  0.1276 -0.0094
  435POPI   C4B 6900   1.146   8.327   8.565 -0.0009 -0.0351  0.2551
  436POPI    C1 6901   4.263   7.937  10.648 -0.0358  0.0589 -0.0090
  436POPI    C2 6902   4.564   7.688  10.561  0.0424  0.1804 -0.0911
  436POPI    C3 6903   4.495   7.794  10.941 -0.1222 -0.1289 -0.0310
  436POPI   PO4 6904   4.155   7.937  10.348 -0.0653  0.0751 -0.0486
  436POPI   GL1 6905   4.200   7.720  10.007  0.1512  0.3113 -0.2282
  436POPI   GL2 6906   4.483   7.705  10.055  0.0547 -0.1555  0.0343
  436POPI   C1A 6907   4.102   7.958   9.681  0.0596 -0.2215 -0.1680
  436POPI   D2A 6908   3.914   8.094   9.284  0.0272 -0.2602 -0.2340
  436POPI   C3A 6909   4.086   7.972   8.844 -0.0237  0.0383 -0.2548
  436POPI   C4A 6910   4.203   7.779   8.473  0.1651 -0.0127 -0.0236
  436POPI   C1B 6911   4.450   7.673   9.593  0.0604 -0.1009  0.1072
  436POPI   C2B 6912   4.262   7.504   9.179 -0.3177 -0.0603  0.0261
  436POPI   C3B 6913   4.220   7.291   8.679 -0.2913  0.2703 -0.1030
  436POPI   C4B 6914   4.343   7.006   8.255 -0.4642  0.0939  0.1646
  437POPI    C1 6915  12.831  17.145  10.689 -0.2945 -0.0619  0.0194
  437POPI    C2 6916  13.154  16.927  10.599 -0.1638  0.1319  0.0129
  437POPI    C3 6917  13.013  16.929  10.973  0.0769  0.3495  0.1059
  437POPI   PO4 6918  12.713  17.146  10.412  0.1380 -0.1852  0.0891
  437POPI   GL1 6919  12.406  17.364  10.268  0.0029 -0.3150  0.1833
  437POPI   GL2 6920  12.278  17.609  10.354  0.0895 -0.0283  0.2155
  437POPI   C1A 6921  12.638  17.320   9.827 -0.3819 -0.0041 -0.0469
  437POPI   D2A 6922  12.936  17.282   9.450 -0.0591 -0.0059 -0.1449
  437POPI   C3A 6923  13.145  17.390   9.220 -0.4153  0.3080 -0.0755
  437POPI   C4A 6924  13.363  17.359   8.869 -0.0021  0.0558 -0.0542
  437POPI   C1B 6925  12.440  17.820  10.022 -0.0013  0.2489  0.1718
  437POPI   C2B 6926  12.339  17.743   9.582  0.2187 -0.1076  0.0995
  437POPI   C3B 6927  12.253  17.776   9.214  0.4148 -0.0566 -0.0159
  437POPI   C4B 6928  12.093  17.951   8.846 -0.0601 -0.1602 -0.0780
  438POPI    C1 6929  14.886  15.793  10.259  0.0212  0.1210  0.1039
  438POPI    C2 6930  15.284  15.809  10.296  0.0347  0.0609 -0.0097
  438POPI    C3 6931  15.055  15.757  10.620  0.1263 -0.0328  0.0405
  438POPI   PO4 6932  14.825  16.079  10.210 -0.0613 -0.0155  0.5270
  438POPI   GL1 6933  14.808  16.024   9.770  0.3274 -0.0602  0.3743
  438POPI   GL2 6934  15.180  16.105   9.850  0.0726  0.0721  0.0646
  438POPI   C1A 6935  14.689  16.043   9.375  0.1212  0.0636 -0.3158
  438POPI   D2A 6936  14.879  16.162   8.958  0.1626 -0.0428 -0.0977
  438POPI   C3A 6937  14.613  16.095   8.629  0.1381 -0.2243  0.4277
  438POPI   C4A 6938  14.212  16.095   8.262  0.1787 -0.1429 -0.1619
  438POPI   C1B 6939  15.190  16.064   9.404  0.0376 -0.0666 -0.1371
  438POPI   C2B 6940  15.520  16.192   9.028 -0.1990 -0.1293 -0.0778
  438POPI   C3B 6941  15.932  16.084   8.832  0.1538  0.2492  0.1861
  438POPI   C4B 6942  16.099  15.734   8.693 -0.2173  0.1511  0.0940
  439POPI    C1 6943  14.900   5.836  10.684  0.0633  0.1964 -0.0031
  439POPI    C2 6944  14.742   6.133  10.468  0.0955  0.1490 -0.0922
  439POPI    C3 6945  14.722   6.144  10.867 -0.2161  0.0977 -0.1038
  439POPI   PO4 6946  15.000   5.655  10.495  0.0914 -0.1194  0.2923
  439POPI   GL1 6947  15.251   5.599  10.148 -0.0866  0.3103  0.0221
  439POPI   GL2 6948  15.569   5.808  10.018 -0.1647 -0.0727 -0.0550
  439POPI   C1A 6949  14.994   5.975   9.880  0.1047 -0.1786 -0.0167
  439POPI   D2A 6950  14.754   6.133   9.519 -0.0669 -0.1658 -0.3936
  439POPI   C3A 6951  14.795   6.114   9.203 -0.1549  0.2220 -0.1861
  439POPI   C4A 6952  14.953   6.284   8.789  0.0977 -0.0670  0.0011
  439POPI   C1B 6953  15.342   5.746   9.658  0.0038 -0.1557 -0.3031
  439POPI   C2B 6954  15.233   5.961   9.331  0.3614  0.0035  0.3930
  439POPI   C3B 6955  15.232   5.888   8.868  0.1468 -0.1163 -0.1123
  439POPI   C4B 6956  15.190   6.039   8.429 -0.1727  0.2511  0.2194
  440POPI    C1 6957  13.794   6.062  10.513  0.2478 -0.0048 -0.1607
  440POPI    C2 6958  13.827   5.987  10.904 -0.0818  0.0470 -0.1195
  440POPI    C3 6959  13.956   6.335  10.756 -0.0770  0.0812 -0.0355
  440POPI   PO4 6960  13.803   5.787  10.466  0.1243 -0.0726 -0.0913
  440POPI   GL1 6961  13.975   5.696  10.097  0.0012  0.0369  0.2421
  440POPI   GL2 6962  13.911   5.385   9.949 -0.0718 -0.1603 -0.1839
  440POPI   C1A 6963  13.918   5.907   9.721 -0.2967  0.0498 -0.4704
  440POPI   D2A 6964  13.779   5.921   9.288  0.1922  0.0491 -0.0633
  440POPI   C3A 6965  13.988   5.628   9.060  0.1212 -0.1635  0.2064
  440POPI   C4A 6966  14.262   5.585   8.797  0.1443 -0.2204  0.0312
  440POPI   C1B 6967  13.752   5.439   9.478  0.1659 -0.0974  0.1551
  440POPI   C2B 6968  13.678   5.203   9.113 -0.1136 -0.0213  0.0954
  440POPI   C3B 6969  13.690   5.201   8.747  0.1700 -0.3053  0.0596
  440POPI   C4B 6970  13.770   4.952   8.416  0.0295  0.0061 -0.4458
  441POPI    C1 6971   4.579  16.282  10.749 -0.0558  0.0741 -0.0077
  441POPI    C2 6972   4.212  16.127  10.710 -0.0034 -0.1335  0.2865
  441POPI    C3 6973   4.288  16.390  11.001  0.0408  0.0417  0.1187
  441POPI   PO4 6974   4.663  16.392  10.575  0.1613 -0.0965  0.0041
  441POPI   GL1 6975   4.791  16.330  10.136 -0.0214  0.0904  0.1333
  441POPI   GL2 6976   4.855  15.992  10.333 -0.2591  0.1200  0.0790
  441POPI   C1A 6977   4.755  16.350   9.688  0.0866  0.2834  0.1149
  441POPI   D2A 6978   4.661  16.319   9.270 -0.1635 -0.1693 -0.0262
  441POPI   C3A 6979   4.330  16.257   9.039 -0.2193  0.0334  0.1364
  441POPI   C4A 6980   4.227  16.254   8.637  0.0434 -0.0289 -0.2401
  441POPI   C1B 6981   5.131  15.836  10.017 -0.3302 -0.1463  0.0651
  441POPI   C2B 6982   5.073  15.918   9.680  0.3141 -0.1092  0.1038
  441POPI   C3B 6983   4.983  15.899   9.237  0.1415  0.1483 -0.2752
  441POPI   C4B 6984   4.793  15.578   8.903  0.1873  0.0511  0.0787
  442POPI    C1 6985   2.352   2.479  10.954 -0.1951 -0.0972  0.0271
  442POPI    C2 6986   2.334   2.318  11.320 -0.2381 -0.0508  0.0455
  442POPI    C3 6987   2.031   2.540  11.184 -0.1298  0.1108  0.0656
  442POPI   PO4 6988   2.353   2.268  10.793 -0.1232  0.0856  0.2122
  442POPI   GL1 6989   2.624   2.254  10.508  0.0865  0.1808 -0.0888
  442POPI   GL2 6990   2.786   2.546  10.552  0.2219 -0.2390  0.1687
  442POPI   C1A 6991   2.618   1.869  10.205  0.1032 -0.1232  0.0986
  442POPI   D2A 6992   2.500   1.760   9.790  0.4779  0.0777 -0.1848
  442POPI   C3A 6993   2.277   1.996   9.427  0.2382 -0.3587 -0.2249
  442POPI   C4A 6994   2.081   2.084   9.074 -0.3485  0.1535 -0.0259
  442POPI   C1B 6995   2.994   2.328  10.142 -0.0141  0.1806  0.0410
  442POPI   C2B 6996   3.060   2.007   9.871 -0.1361  0.2082 -0.0559
  442POPI   C3B 6997   2.905   1.879   9.487 -0.1097  0.0209  0.0132
  442POPI   C4B 6998   2.888   1.744   9.053 -0.2331  0.3234  0.1287
  443POPI    C1 6999  16.689  13.782  10.779  0.0267  0.1192  0.3302
  443POPI    C2 7000  16.536  14.140  10.690 -0.0761 -0.0064 -0.0150
  443POPI    C3 7001  16.589  14.034  11.072 -0.2236  0.3000  0.0935
  443POPI   PO4 7002  16.913  13.747  10.531  0.0921  0.0007 -0.2262
  443POPI   GL1 7003  17.217  13.717  10.158  0.0191 -0.2929 -0.0404
  443POPI   GL2 7004  17.028  13.753  10.007  0.3664  0.1260 -0.1638
  443POPI   C1A 7005  17.597  13.825   9.975  0.2513 -0.2011 -0.0546
  443POPI   D2A 7006  17.891  14.169   9.824 -0.0977 -0.1486  0.0760
  443POPI   C3A 7007  17.949  14.080   9.393  0.2708  0.0240  0.0060
  443POPI   C4A 7008  18.032  14.039   9.013  0.0932 -0.2793  0.1043
  443POPI   C1B 7009  16.689  13.755   9.688  0.0744  0.1346 -0.0409
  443POPI   C2B 7010  16.585  13.833   9.269  0.1820 -0.0583  0.1987
  443POPI   C3B 7011  16.589  14.049   8.984  0.0626  0.1262 -0.0567
  443POPI   C4B 7012  16.704  13.956   8.521 -0.0237 -0.0051 -0.0440
  444POPI    C1 7013   9.130   6.275  10.562 -0.2263 -0.1972  0.2577
  444POPI    C2 7014   9.077   6.283  10.959  0.1663  0.1916  0.3101
  444POPI    C3 7015   9.375   6.068  10.801 -0.0478 -0.0392  0.2140
  444POPI   PO4 7016   8.968   6.453  10.458  0.0982 -0.0366 -0.2596
  444POPI   GL1 7017   8.712   6.672  10.243 -0.0681  0.1134 -0.0210
  444POPI   GL2 7018   8.324   6.543  10.126  0.2270 -0.2682 -0.1025
  444POPI   C1A 7019   8.603   6.948   9.939  0.0966 -0.1643  0.2784
  444POPI   D2A 7020   8.384   6.996   9.544  0.1758  0.3520 -0.1430
  444POPI   C3A 7021   8.383   7.192   9.105 -0.0113 -0.1106 -0.0853
  444POPI   C4A 7022   8.572   7.245   8.733 -0.0076  0.1947 -0.2990
  444POPI   C1B 7023   8.026   6.664   9.841 -0.0660 -0.1695  0.0508
  444POPI   C2B 7024   8.009   6.591   9.480  0.0386 -0.1463 -0.2586
  444POPI   C3B 7025   7.876   6.924   9.205 -0.0736  0.2379 -0.0782
  444POPI   C4B 7026   7.518   7.178   9.197  0.1353  0.1550 -0.0479
  445POPI    C1 7027   0.070  10.532  10.921 -0.2063  0.0299 -0.1116
  445POPI    C2 7028   0.228  10.489  11.286 -0.0280 -0.1092 -0.2034
  445POPI    C3 7029  -0.030  10.786  11.214  0.1597  0.0976 -0.0401
  445POPI   PO4 7030   0.328  10.429  10.686 -0.1079  0.1648  0.0670
  445POPI   GL1 7031   0.594  10.641  10.508  0.1255 -0.0490  0.1842
  445POPI   GL2 7032   0.565  10.964  10.381 -0.0812  0.2088 -0.2782
  445POPI   C1A 7033   0.715  10.570  10.100  0.1396  0.2327  0.3077
  445POPI   D2A 7034   0.913  10.492   9.642 -0.2662 -0.0910 -0.2330
  445POPI   C3A 7035   0.818  10.508   9.263  0.2494  0.2202  0.0364
  445POPI   C4A 7036   0.629  10.604   8.897  0.0355  0.0224 -0.1538
  445POPI   C1B 7037   0.703  11.027   9.881  0.1564 -0.2535 -0.1484
  445POPI   C2B 7038   0.817  11.005   9.503  0.0347  0.0607 -0.0218
  445POPI   C3B 7039   0.716  11.036   9.076 -0.1894  0.0112 -0.1849
  445POPI   C4B 7040   0.377  11.124   8.749 -0.0709 -0.0389  0.3808
  446POPI    C1 7041   3.066   5.170  10.737  0.1772 -0.0404 -0.0179
  446POPI    C2 7042   3.175   4.823  10.903  0.1712 -0.0354 -0.0037
  446POPI    C3 7043   3.145   5.152  11.128 -0.2243 -0.1126  0.0648
  446POPI   PO4 7044   3.197   5.267  10.591  0.0243 -0.0132  0.1239
  446POPI   GL1 7045   3.248   5.479  10.178  0.2310 -0.1300  0.1605
  446POPI   GL2 7046   3.112   5.138  10.106  0.1260 -0.0261 -0.2422
  446POPI   C1A 7047   3.234   5.545   9.691  0.1674  0.0207  0.1553
  446POPI   D2A 7048   3.029   5.468   9.332  0.1827  0.1673 -0.0460
  446POPI   C3A 7049   2.940   5.005   9.408  0.0085  0.1781  0.0553
  446POPI   C4A 7050   3.239   4.653   9.608 -0.1691  0.2168  0.0129
  446POPI   C1B 7051   3.365   5.063   9.844  0.0825 -0.0921  0.1709
  446POPI   C2B 7052   3.436   5.116   9.396  0.1197 -0.0955  0.0898
  446POPI   C3B 7053   3.268   5.110   8.985  0.0448  0.0018  0.1046
  446POPI   C4B 7054   3.186   5.419   8.664  0.2067 -0.0411 -0.3402
  447POPI    C1 7055   5.980   9.076  10.631  0.3244  0.2382 -0.1244
  447POPI    C2 7056   5.695   9.278  10.826  0.0543 -0.1653 -0.0892
  447POPI    C3 7057   6.012   9.136  11.026  0.0296 -0.1459 -0.0359
  447POPI   PO4 7058   5.898   9.064  10.431  0.2523  0.0351 -0.1104
  447POPI   GL1 7059   6.041   9.202  10.067 -0.1200 -0.1408  0.1998
  447POPI   GL2 7060   5.678   9.133   9.918  0.0898  0.0541  0.2145
  447POPI   C1A 7061   6.109   9.294   9.686 -0.1209  0.2523  0.2805
  447POPI   D2A 7062   6.077   9.254   9.204 -0.0959  0.0792  0.2092
  447POPI   C3A 7063   6.058   9.044   8.864 -0.1341  0.3378  0.0798
  447POPI   C4A 7064   6.210   9.005   8.476 -0.0859  0.0551 -0.0758
  447POPI   C1B 7065   5.588   9.040   9.457  0.0397 -0.2738  0.0922
  447POPI   C2B 7066   5.610   8.895   9.101 -0.0106  0.0586  0.1899
  447POPI   C3B 7067   5.649   8.754   8.769 -0.0667  0.0532  0.0042
  447POPI   C4B 7068   5.810   8.707   8.330 -0.0570  0.0109 -0.0665
  448POPI    C1 7069  13.584   4.810  10.816  0.2794  0.1187  0.0337
  448POPI    C2 7070  13.459   5.091  11.073  0.0816  0.0479  0.0165
  448POPI    C3 7071  13.352   4.709  11.127  0.2857 -0.0131 -0.0040
  448POPI   PO4 7072  13.564   4.979  10.544 -0.1194 -0.0476 -0.0162
  448POPI   GL1 7073  13.414   4.964  10.019 -0.0424  0.0125  0.0820
  448POPI   GL2 7074  13.770   4.909  10.090 -0.2322 -0.2593  0.0362
  448POPI   C1A 7075  13.617   5.028   9.653  0.0791  0.1699  0.2546
  448POPI   D2A 7076  13.972   4.904   9.370  0.1087  0.0599  0.1982
  448POPI   C3A 7077  13.894   4.715   8.939  0.0673  0.0099  0.1195
  448POPI   C4A 7078  14.076   4.583   8.659 -0.1067 -0.1323  0.1764
  448POPI   C1B 7079  13.852   4.559   9.781 -0.1092 -0.0731  0.1523
  448POPI   C2B 7080  13.895   4.417   9.350 -0.0932  0.0515 -0.0668
  448POPI   C3B 7081  13.792   4.254   8.933 -0.1152  0.1148  0.3189
  448POPI   C4B 7082  13.931   4.177   8.471  0.0034 -0.1036  0.1421
  449POPI    C1 7083   4.488   8.527  11.287  0.0701  0.0541  0.1554
  449POPI    C2 7084   4.574   8.149  11.386 -0.1688  0.0018  0.1697
  449POPI    C3 7085   4.479   8.413  11.670 -0.2199  0.0164  0.1392
  449POPI   PO4 7086   4.706   8.613  11.081  0.0237  0.1913  0.1899
  449POPI   GL1 7087   4.727   8.662  10.636  0.1027 -0.1803  0.0211
  449POPI   GL2 7088   4.996   8.804  10.641 -0.0625 -0.2776 -0.1181
  449POPI   C1A 7089   4.650   8.469  10.327  0.2186  0.1311  0.1478
  449POPI   D2A 7090   4.436   8.207   9.940  0.2415  0.0465  0.0839
  449POPI   C3A 7091   4.545   8.267   9.505 -0.0962  0.1616  0.0245
  449POPI   C4A 7092   4.413   8.033   9.195 -0.0179 -0.0680  0.0394
  449POPI   C1B 7093   4.970   8.826  10.169  0.0406  0.1290 -0.0637
  449POPI   C2B 7094   5.103   8.830   9.757 -0.2087 -0.3999 -0.1651
  449POPI   C3B 7095   5.074   8.858   9.230  0.2555 -0.1174 -0.1713
  449POPI   C4B 7096   4.924   8.667   8.758  0.2566  0.1364  0.0563
  450POPI    C1 7097   4.177  12.481  11.270 -0.1377 -0.0043  0.0413
  450POPI    C2 7098   4.142  12.775  11.539  0.1569 -0.0788  0.1648
  450POPI    C3 7099   4.169  12.395  11.661  0.0876 -0.1311  0.0195
  450POPI   PO4 7100   4.019  12.506  11.029  0.1501  0.1065 -0.2471
  450POPI   GL1 7101   4.109  12.386  10.669 -0.1534  0.1235 -0.0043
  450POPI   GL2 7102   3.871  12.377  10.533  0.1503  0.0644 -0.0836
  450POPI   C1A 7103   4.380  12.405  10.355  0.2215 -0.0590  0.0055
  450POPI   D2A 7104   4.642  12.695   9.969  0.1864  0.2907  0.0012
  450POPI   C3A 7105   4.740  13.057   9.629  0.0161 -0.0912 -0.0503
  450POPI   C4A 7106   4.751  13.478   9.589  0.2046  0.1454 -0.3806
  450POPI   C1B 7107   3.879  12.514  10.092  0.1771 -0.1690 -0.2565
  450POPI   C2B 7108   3.757  12.480   9.600 -0.2593 -0.3047  0.1567
  450POPI   C3B 7109   3.668  12.384   9.181  0.0192  0.1515 -0.0127
  450POPI   C4B 7110   3.681  12.628   8.801 -0.2258  0.2602  0.1193
  451POPI    C1 7111   0.172  14.177  10.308  0.1339 -0.0864 -0.0971
  451POPI    C2 7112  -0.226  14.205  10.292  0.1440  0.2996  0.1778
  451POPI    C3 7113  -0.054  13.959  10.556  0.0910 -0.2074 -0.2408
  451POPI   PO4 7114   0.244  14.391  10.265  0.2303 -0.1259 -0.2103
  451POPI   GL1 7115   0.539  14.568  10.020 -0.0268  0.0920  0.1116
  451POPI   GL2 7116   0.545  14.811   9.873 -0.0472 -0.0779 -0.2578
  451POPI   C1A 7117   0.952  14.352   9.814  0.0888  0.1800 -0.4156
  451POPI   D2A 7118   1.114  13.920  10.065 -0.1034  0.1721 -0.0948
  451POPI   C3A 7119   1.364  13.616   9.833  0.3383  0.0556 -0.1482
  451POPI   C4A 7120   1.646  13.228   9.732 -0.0547  0.0002 -0.0488
  451POPI   C1B 7121   0.456  14.413   9.519 -0.1580 -0.0208 -0.1727
  451POPI   C2B 7122   0.452  13.993   9.303 -0.1323 -0.0197 -0.3649
  451POPI   C3B 7123   0.940  13.895   9.053 -0.0507  0.2121  0.2194
  451POPI   C4B 7124   1.229  13.735   8.835 -0.0191 -0.1196 -0.2718
  452POPI    C1 7125   9.847  16.257  10.463 -0.0404 -0.0413  0.0590
  452POPI    C2 7126  10.069  15.932  10.534  0.0354  0.0038  0.0294
  452POPI    C3 7127   9.954  16.167  10.837  0.0193 -0.0253  0.0459
  452POPI   PO4 7128   9.950  16.403  10.269  0.2955 -0.1851  0.1123
  452POPI   GL1 7129   9.966  16.463   9.933  0.0412 -0.0690 -0.0676
  452POPI   GL2 7130   9.769  16.775   9.848 -0.1964 -0.0490 -0.1861
  452POPI   C1A 7131  10.047  16.520   9.572 -0.0971 -0.0098  0.3061
  452POPI   D2A 7132  10.152  16.421   9.228 -0.0583  0.0736 -0.0919
  452POPI   C3A 7133  10.000  16.603   8.749 -0.0626  0.0329 -0.0668
  452POPI   C4A 7134   9.989  16.615   8.334  0.3736 -0.0079 -0.1256
  452POPI   C1B 7135   9.764  16.998   9.472 -0.2190  0.2430  0.0021
  452POPI   C2B 7136   9.816  17.051   9.037 -0.2745 -0.1147 -0.2819
  452POPI   C3B 7137   9.993  17.119   8.666 -0.2222  0.2811 -0.1323
  452POPI   C4B 7138   9.996  17.164   8.200 -0.0543  0.1241  0.0341
  453POPI    C1 7139  13.676  14.325  10.765  0.1245 -0.1423 -0.0982
  453POPI    C2 7140  13.394  14.316  11.048  0.1695  0.1807 -0.0386
  453POPI    C3 7141  13.713  14.076  11.075 -0.0589 -0.1324 -0.0676
  453POPI   PO4 7142  13.650  14.606  10.681 -0.0743 -0.0583  0.4331
  453POPI   GL1 7143  13.835  14.605  10.358  0.1322  0.1766  0.3290
  453POPI   GL2 7144  13.705  14.305  10.288 -0.0791 -0.2370  0.2462
  453POPI   C1A 7145  13.970  14.593   9.889  0.0382  0.2547 -0.1317
  453POPI   D2A 7146  13.872  14.577   9.408 -0.1852  0.3321 -0.0186
  453POPI   C3A 7147  14.011  14.666   9.038 -0.1160  0.1518 -0.2018
  453POPI   C4A 7148  14.001  14.784   8.638  0.1669 -0.0549 -0.1357
  453POPI   C1B 7149  13.455  14.330   9.886 -0.1169  0.0804 -0.1643
  453POPI   C2B 7150  13.426  14.270   9.411 -0.0781 -0.0718 -0.1356
  453POPI   C3B 7151  13.233  14.192   9.029 -0.3027  0.2852  0.3294
  453POPI   C4B 7152  13.111  14.350   8.728  0.2940 -0.1586 -0.4264
  454POPI    C1 7153   3.533  13.216  10.629  0.0849 -0.3932  0.0065
  454POPI    C2 7154   3.193  13.007  10.642  0.0739 -0.3781 -0.0348
  454POPI    C3 7155   3.346  13.161  10.978 -0.1030 -0.1556 -0.0536
  454POPI   PO4 7156   3.700  13.039  10.436  0.3469 -0.1247 -0.1278
  454POPI   GL1 7157   3.725  12.992  10.052  0.4177  0.1776  0.0227
  454POPI   GL2 7158   3.328  13.094  10.120  0.0376 -0.1761 -0.0089
  454POPI   C1A 7159   3.744  12.952   9.503 -0.0291 -0.1268 -0.2495
  454POPI   D2A 7160   3.369  12.771   9.314 -0.2084 -0.1612  0.0571
  454POPI   C3A 7161   3.220  12.643   8.871 -0.1360 -0.3534 -0.1196
  454POPI   C4A 7162   3.132  12.665   8.407  0.0443  0.0342 -0.1695
  454POPI   C1B 7163   3.349  13.155   9.663  0.0502 -0.0553  0.2308
  454POPI   C2B 7164   3.342  13.278   9.219  0.2532 -0.1603  0.0325
  454POPI   C3B 7165   3.463  13.075   8.815  0.1882  0.0798 -0.2559
  454POPI   C4B 7166   3.615  12.934   8.366 -0.0630 -0.0928  0.4209
  455POPI    C1 7167  11.745   5.654  10.789  0.2032 -0.2780 -0.1357
  455POPI    C2 7168  11.623   5.382  10.522 -0.0222 -0.1055 -0.2116
  455POPI    C3 7169  11.392   5.698  10.606  0.2617  0.0941 -0.1669
  455POPI   PO4 7170  12.082   5.623  10.693  0.1768  0.0115 -0.1285
  455POPI   GL1 7171  12.211   5.559  10.346 -0.2216 -0.1417 -0.0869
  455POPI   GL2 7172  12.422   5.635  10.105  0.0760  0.0097 -0.0013
  455POPI   C1A 7173  12.106   5.244  10.070 -0.2260  0.0082  0.1127
  455POPI   D2A 7174  11.924   5.176   9.725  0.1145 -0.1236 -0.1719
  455POPI   C3A 7175  11.974   5.206   9.366  0.0669  0.2977  0.2312
  455POPI   C4A 7176  12.033   5.324   8.990  0.2498 -0.1646  0.1458
  455POPI   C1B 7177  12.337   5.514   9.682 -0.1912 -0.1958  0.1109
  455POPI   C2B 7178  12.338   5.604   9.250  0.4920  0.2355 -0.0182
  455POPI   C3B 7179  12.413   5.575   8.808 -0.0617 -0.0609  0.2689
  455POPI   C4B 7180  12.555   5.569   8.361 -0.1497  0.1249  0.0299
  456POPI    C1 7181   9.630   4.993  10.624  0.1625  0.0377 -0.2109
  456POPI    C2 7182   9.828   5.248  10.389  0.1500  0.0219 -0.2387
  456POPI    C3 7183   9.838   5.293  10.786  0.1217  0.0845 -0.2450
  456POPI   PO4 7184   9.549   4.805  10.448  0.0174 -0.0973  0.1007
  456POPI   GL1 7185   9.449   4.834  10.056 -0.3762  0.2969 -0.2938
  456POPI   GL2 7186   9.167   4.886   9.977 -0.1716  0.2385  0.1018
  456POPI   C1A 7187   9.399   4.566   9.673 -0.3872  0.1509  0.0925
  456POPI   D2A 7188   9.082   4.526   9.360  0.1931 -0.2506  0.1014
  456POPI   C3A 7189   9.027   4.457   8.867 -0.0747 -0.0016 -0.0477
  456POPI   C4A 7190   9.226   4.435   8.472  0.4849  0.0573 -0.0442
  456POPI   C1B 7191   8.936   5.089   9.719 -0.3073  0.1300  0.2238
  456POPI   C2B 7192   8.901   5.460   9.449  0.1170 -0.1849  0.0262
  456POPI   C3B 7193   8.916   5.702   9.013 -0.0846 -0.1303  0.0994
  456POPI   C4B 7194   8.740   5.703   8.496 -0.1525  0.1219 -0.4262
  457POPI    C1 7195  16.560   3.549  11.030 -0.1570  0.3849  0.1647
  457POPI    C2 7196  16.815   3.293  11.202 -0.0318  0.2702 -0.1828
  457POPI    C3 7197  16.515   3.451  11.415  0.0644  0.0629  0.1122
  457POPI   PO4 7198  16.560   3.469  10.798  0.2523 -0.1462 -0.0057
  457POPI   GL1 7199  16.659   3.292  10.264  0.0098 -0.0243  0.1419
  457POPI   GL2 7200  16.471   3.582  10.192  0.1414  0.3127 -0.2435
  457POPI   C1A 7201  16.495   3.158   9.863  0.2344 -0.1313  0.0122
  457POPI   D2A 7202  16.539   3.310   9.401 -0.0738  0.0713 -0.1748
  457POPI   C3A 7203  16.395   3.187   9.027 -0.0994 -0.2450 -0.4526
  457POPI   C4A 7204  16.151   3.326   8.657  0.2060 -0.1597  0.3359
  457POPI   C1B 7205  16.564   3.684   9.724  0.2880 -0.0981 -0.1222
  457POPI   C2B 7206  16.436   3.761   9.247  0.2276 -0.1155 -0.2562
  457POPI   C3B 7207  16.397   3.742   8.839 -0.0692  0.1512  0.2330
  457POPI   C4B 7208  16.391   3.672   8.432  0.2193  0.0834  0.4553
  458POPI    C1 7209  11.166  13.228  10.646 -0.0434  0.1223 -0.0440
  458POPI    C2 7210  11.299  13.288  11.019 -0.2236  0.2706 -0.0025
  458POPI    C3 7211  11.189  12.922  10.902  0.1212  0.1651 -0.0064
  458POPI   PO4 7212  11.026  13.394  10.617  0.1231  0.1196 -0.3402
  458POPI   GL1 7213  10.870  13.575  10.354 -0.0768  0.1231  0.1101
  458POPI   GL2 7214  11.218  13.583  10.259 -0.1046  0.1090 -0.0525
  458POPI   C1A 7215  10.860  13.563   9.845  0.2065 -0.0780 -0.0469
  458POPI   D2A 7216  10.957  13.412   9.490 -0.2883  0.1994  0.1723
  458POPI   C3A 7217  10.794  13.426   9.122 -0.0448  0.1748  0.0090
  458POPI   C4A 7218  10.663  13.514   8.732  0.0358  0.2058 -0.1390
  458POPI   C1B 7219  11.221  13.279   9.964  0.0743 -0.2502 -0.1517
  458POPI   C2B 7220  11.272  12.993   9.683  0.1983 -0.1490 -0.0185
  458POPI   C3B 7221  11.240  13.052   9.281 -0.0900  0.0945 -0.1176
  458POPI   C4B 7222  11.038  13.106   8.866  0.4078  0.1175 -0.0631
  459POPI    C1 7223  11.451   7.720  10.529 -0.1527  0.0902 -0.0563
  459POPI    C2 7224  11.142   7.707  10.782 -0.0762 -0.1364  0.0286
  459POPI    C3 7225  11.462   7.931  10.869  0.0121 -0.3286  0.2067
  459POPI   PO4 7226  11.373   7.641  10.241 -0.0856  0.3047  0.0026
  459POPI   GL1 7227  11.118   7.543   9.958  0.0301 -0.0249  0.2198
  459POPI   GL2 7228  10.830   7.348   9.939  0.0519  0.2934  0.0446
  459POPI   C1A 7229  11.042   7.653   9.556  0.0171 -0.0149 -0.0561
  459POPI   D2A 7230  11.088   7.724   9.141  0.1917  0.3953  0.1744
  459POPI   C3A 7231  11.094   7.661   8.627 -0.1921  0.1158  0.0798
  459POPI   C4A 7232  10.796   7.624   8.348 -0.1923  0.0710 -0.0445
  459POPI   C1B 7233  10.546   7.480   9.663  0.3195 -0.0890 -0.1670
  459POPI   C2B 7234  10.572   7.469   9.290  0.0158 -0.0106  0.2764
  459POPI   C3B 7235  10.578   7.665   8.889  0.2062 -0.1484  0.0607
  459POPI   C4B 7236  10.422   8.014   8.622 -0.2948 -0.0823 -0.0571
  460POPI    C1 7237  10.576   9.127  10.826 -0.0965  0.2833  0.0425
  460POPI    C2 7238  10.257   8.944  10.985  0.0460  0.0081  0.0174
  460POPI    C3 7239  10.602   8.956  11.187  0.0731  0.1401 -0.0357
  460POPI   PO4 7240  10.562   9.156  10.571  0.2975  0.1898  0.0879
  460POPI   GL1 7241  10.565   9.013  10.136  0.0024  0.1923  0.2946
  460POPI   GL2 7242  10.894   8.929  10.036  0.0634  0.3941  0.1721
  460POPI   C1A 7243  10.359   9.163   9.802  0.2826  0.0135 -0.0880
  460POPI   D2A 7244  10.352   9.212   9.332 -0.0476  0.1191 -0.1461
  460POPI   C3A 7245  10.582   9.428   9.069  0.3363  0.2045  0.0578
  460POPI   C4A 7246  10.660   9.458   8.683 -0.3093  0.3116  0.0587
  460POPI   C1B 7247  10.864   9.053   9.661 -0.0464 -0.1131  0.4118
  460POPI   C2B 7248  10.973   9.151   9.284  0.1163 -0.1124  0.0667
  460POPI   C3B 7249  11.110   9.403   9.059  0.0649 -0.0351 -0.0431
  460POPI   C4B 7250  11.334   9.526   8.669  0.0304 -0.1922  0.1235
  461POPI    C1 7251  17.136  12.945  10.641 -0.0880  0.0264 -0.0010
  461POPI    C2 7252  17.449  12.785  10.832  0.0288  0.1129 -0.1178
  461POPI    C3 7253  17.106  12.847  11.027  0.0932  0.0435  0.0186
  461POPI   PO4 7254  17.260  12.914  10.361 -0.2356  0.1363  0.0101
  461POPI   GL1 7255  17.158  12.540  10.100 -0.1213 -0.4094  0.1477
  461POPI   GL2 7256  17.073  12.349   9.870 -0.0291 -0.5478 -0.1930
  461POPI   C1A 7257  17.318  12.773   9.699  0.2096  0.0051 -0.3156
  461POPI   D2A 7258  17.300  12.714   9.287  0.0329 -0.0582  0.1345
  461POPI   C3A 7259  16.765  12.710   9.059  0.0559 -0.2971  0.1638
  461POPI   C4A 7260  16.734  12.525   8.684  0.0843 -0.0921  0.2058
  461POPI   C1B 7261  17.283  12.269   9.515 -0.1429  0.1201  0.1113
  461POPI   C2B 7262  17.444  11.944   9.246 -0.1743  0.0174  0.1035
  461POPI   C3B 7263  17.597  11.913   8.924  0.1827  0.1479  0.1286
  461POPI   C4B 7264  17.825  11.814   8.623 -0.2309  0.2098  0.2333
  462POPI    C1 7265   7.092   0.077  11.050 -0.1500 -0.2242 -0.0935
  462POPI    C2 7266   7.327  -0.244  11.097  0.1869  0.0315  0.0132
  462POPI    C3 7267   7.127  -0.095  11.410  0.0702 -0.0429 -0.0254
  462POPI   PO4 7268   7.121   0.140  10.785 -0.1146 -0.0445 -0.3233
  462POPI   GL1 7269   7.020   0.424  10.419  0.2105 -0.0039  0.0139
  462POPI   GL2 7270   6.697   0.411  10.444 -0.0838  0.3933  0.1108
  462POPI   C1A 7271   6.943   0.448   9.975  0.1415 -0.1162  0.0646
  462POPI   D2A 7272   6.971   0.572   9.421 -0.2911 -0.0802 -0.1533
  462POPI   C3A 7273   7.008   0.518   9.113  0.0728  0.0475 -0.3392
  462POPI   C4A 7274   6.891   0.510   8.707 -0.1907 -0.0093 -0.1040
  462POPI   C1B 7275   6.491   0.064  10.242 -0.0237 -0.2647 -0.0119
  462POPI   C2B 7276   6.347  -0.057   9.824 -0.0682  0.0096 -0.3168
  462POPI   C3B 7277   6.430  -0.035   9.456 -0.0400 -0.0543  0.0952
  462POPI   C4B 7278   6.335   0.046   9.075 -0.0828  0.2773  0.0312
  463POPI    C1 7279   9.064   9.437  10.649  0.3214 -0.1925 -0.1350
  463POPI    C2 7280   9.164   9.198  10.953  0.0587 -0.0421  0.0744
  463POPI    C3 7281   9.303   9.573  10.940 -0.1047  0.0210  0.1256
  463POPI   PO4 7282   8.856   9.338  10.587  0.0863 -0.2510 -0.0843
  463POPI   GL1 7283   8.647   9.500  10.267 -0.2258  0.0898  0.1385
  463POPI   GL2 7284   8.902   9.675  10.168  0.2501 -0.0874 -0.0230
  463POPI   C1A 7285   8.700   9.549   9.725  0.1306 -0.0524  0.2733
  463POPI   D2A 7286   8.636   9.769   9.385 -0.1067 -0.2090 -0.0172
  463POPI   C3A 7287   8.576   9.700   8.934 -0.0567  0.1150  0.1744
  463POPI   C4A 7288   8.662   9.764   8.553 -0.1934 -0.3475 -0.1449
  463POPI   C1B 7289   9.113   9.833   9.879 -0.0877  0.1788 -0.1654
  463POPI   C2B 7290   9.129   9.897   9.537 -0.2026  0.1792 -0.0813
  463POPI   C3B 7291   9.077   9.845   9.105 -0.0146  0.1205 -0.1566
  463POPI   C4B 7292   9.234   9.736   8.626 -0.2422 -0.3153 -0.3051
  464POPI    C1 7293  10.413   3.241  10.515  0.0904 -0.3095 -0.1291
  464POPI    C2 7294  10.341   3.371  10.886  0.0266 -0.1357 -0.2012
  464POPI    C3 7295  10.712   3.264  10.780  0.1076  0.1146 -0.1777
  464POPI   PO4 7296  10.353   3.017  10.361  0.0091  0.0976 -0.0666
  464POPI   GL1 7297  10.502   2.775  10.064  0.0407 -0.2301 -0.0037
  464POPI   GL2 7298  10.609   2.687   9.808  0.0190 -0.0747  0.0478
  464POPI   C1A 7299  10.195   2.984   9.820 -0.0574  0.0465 -0.1039
  464POPI   D2A 7300  10.170   2.998   9.416 -0.1970  0.1371  0.2714
  464POPI   C3A 7301  10.345   2.722   9.097  0.1892 -0.1582 -0.2417
  464POPI   C4A 7302  10.480   2.758   8.705 -0.0101  0.2527 -0.0449
  464POPI   C1B 7303  10.486   2.491   9.507 -0.1976  0.0702 -0.0503
  464POPI   C2B 7304  10.591   2.347   9.000  0.1005  0.0610 -0.0236
  464POPI   C3B 7305  10.473   2.202   8.521  0.0076 -0.0236  0.0216
  464POPI   C4B 7306  10.341   2.054   8.078 -0.4861  0.1026  0.1839
  465POPI    C1 7307  15.934   9.656  10.384 -0.1907 -0.3020  0.1740
  465POPI    C2 7308  15.689   9.972  10.375 -0.0748 -0.2169 -0.0790
  465POPI    C3 7309  16.010   9.974  10.614 -0.1752 -0.2208  0.0573
  465POPI   PO4 7310  15.977   9.565  10.083  0.1832 -0.0341  0.1589
  465POPI   GL1 7311  15.886   9.524   9.723  0.2575  0.1309  0.0148
  465POPI   GL2 7312  16.035   9.866   9.613  0.0942  0.0406 -0.3509
  465POPI   C1A 7313  15.854   9.467   9.327  0.1039 -0.0357  0.0427
  465POPI   D2A 7314  15.977   9.449   8.986 -0.1143 -0.1732  0.1964
  465POPI   C3A 7315  15.752   9.234   8.625  0.1157  0.0335 -0.1635
  465POPI   C4A 7316  15.380   9.000   8.436 -0.2773  0.0384 -0.2479
  465POPI   C1B 7317  16.116   9.870   9.199 -0.1009  0.0363  0.1064
  465POPI   C2B 7318  16.305   9.858   8.814  0.1262  0.1205  0.3293
  465POPI   C3B 7319  16.587  10.100   8.517  0.1573 -0.0186 -0.0238
  465POPI   C4B 7320  16.534  10.262   8.117 -0.0459  0.0428 -0.1659
  466POPI    C1 7321  10.009   3.940  10.351 -0.1354 -0.2383 -0.1076
  466POPI    C2 7322  10.016   3.608  10.574  0.0593 -0.2337 -0.1051
  466POPI    C3 7323   9.792   3.920  10.686  0.1509 -0.2333  0.0822
  466POPI   PO4 7324   9.852   3.920  10.098  0.0322  0.0245 -0.1454
  466POPI   GL1 7325   9.945   3.948   9.672 -0.0001  0.3591 -0.2088
  466POPI   GL2 7326   9.663   4.117   9.699  0.0301 -0.1096  0.1735
  466POPI   C1A 7327   9.830   3.761   9.323 -0.0922  0.0647 -0.1293
  466POPI   D2A 7328   9.752   3.877   9.010 -0.1452 -0.0670  0.1426
  466POPI   C3A 7329   9.932   3.676   8.630 -0.0522 -0.0571 -0.3125
  466POPI   C4A 7330   9.900   3.798   8.214  0.0799 -0.1383 -0.0383
  466POPI   C1B 7331   9.546   4.245   9.331  0.0265 -0.0152 -0.0981
  466POPI   C2B 7332   9.488   4.288   8.937 -0.1937 -0.0262 -0.0483
  466POPI   C3B 7333   9.607   4.158   8.613  0.2581 -0.0329 -0.1885
  466POPI   C4B 7334   9.545   4.321   8.132  0.1515 -0.1416  0.0597
  467POPI    C1 7335  10.709   0.213  10.751 -0.0486  0.0140 -0.1083
  467POPI    C2 7336  10.359   0.057  10.863 -0.0129  0.0859  0.1083
  467POPI    C3 7337  10.698  -0.149  10.921 -0.0020  0.0890  0.0564
  467POPI   PO4 7338  10.737   0.233  10.485 -0.1910  0.1172  0.2230
  467POPI   GL1 7339  10.907   0.057  10.075 -0.1065 -0.1186 -0.0453
  467POPI   GL2 7340  10.927  -0.327  10.058 -0.0991 -0.2043  0.0720
  467POPI   C1A 7341  10.752  -0.071   9.680 -0.2518 -0.0163  0.3240
  467POPI   D2A 7342  10.694  -0.162   9.274 -0.1577  0.0646  0.2558
  467POPI   C3A 7343  10.765  -0.092   8.855 -0.1056 -0.2215 -0.2793
  467POPI   C4A 7344  10.504   0.052   8.553  0.2928 -0.5469 -0.1126
  467POPI   C1B 7345  10.818  -0.585   9.718  0.2133  0.0881  0.3163
  467POPI   C2B 7346  10.826  -0.734   9.256  0.2492 -0.1772  0.0181
  467POPI   C3B 7347  10.884  -0.614   8.895 -0.1751  0.2802 -0.0525
  467POPI   C4B 7348  10.869  -0.584   8.430 -0.0736  0.0251  0.1615
  468POPI    C1 7349   7.815  15.816  10.818 -0.0418  0.2387  0.0255
  468POPI    C2 7350   8.146  16.008  10.937  0.2008 -0.0916 -0.0996
  468POPI    C3 7351   8.097  15.620  11.023 -0.1554 -0.0472 -0.0854
  468POPI   PO4 7352   7.796  15.944  10.563  0.2488  0.0186  0.2021
  468POPI   GL1 7353   7.869  16.148  10.182 -0.1541 -0.0241 -0.3022
  468POPI   GL2 7354   7.864  15.882  10.063  0.1505 -0.0181 -0.1078
  468POPI   C1A 7355   8.148  16.181   9.780 -0.0531  0.0783  0.1041
  468POPI   D2A 7356   8.137  16.108   9.336  0.0312 -0.3304 -0.0715
  468POPI   C3A 7357   7.841  16.110   8.963  0.0370 -0.1177  0.0055
  468POPI   C4A 7358   7.861  16.104   8.502  0.1836 -0.0144 -0.0964
  468POPI   C1B 7359   7.698  16.055   9.721  0.0288  0.0239  0.0014
  468POPI   C2B 7360   7.475  16.067   9.454 -0.3134 -0.1666  0.1052
  468POPI   C3B 7361   7.345  16.264   9.015  0.1143 -0.0622 -0.1125
  468POPI   C4B 7362   7.286  16.444   8.667 -0.0450  0.0090  0.2598
  469POPI    C1 7363  14.033   9.478  10.439 -0.0591 -0.0454 -0.0092
  469POPI    C2 7364  14.292   9.755  10.565  0.1363 -0.1731 -0.1263
  469POPI    C3 7365  13.979   9.657  10.793  0.1228  0.0685 -0.0377
  469POPI   PO4 7366  14.242   9.356  10.274  0.1640 -0.0787 -0.0531
  469POPI   GL1 7367  14.187   9.129   9.966  0.0172 -0.0479 -0.1651
  469POPI   GL2 7368  14.211   9.407   9.771  0.4510  0.1479 -0.1240
  469POPI   C1A 7369  14.249   8.885   9.592 -0.1532  0.0783  0.1133
  469POPI   D2A 7370  14.303   8.856   9.186  0.2795  0.1979 -0.2617
  469POPI   C3A 7371  13.991   8.905   8.922 -0.2272  0.1309 -0.1863
  469POPI   C4A 7372  13.827   8.784   8.563  0.0960  0.0611 -0.1523
  469POPI   C1B 7373  14.045   9.676   9.536  0.0657 -0.0799  0.0431
  469POPI   C2B 7374  14.021   9.927   9.266 -0.0001 -0.3150  0.2841
  469POPI   C3B 7375  13.839   9.919   8.872 -0.1512  0.1899 -0.0064
  469POPI   C4B 7376  13.619   9.632   8.604  0.0414 -0.1950 -0.1010
  470POPI    C1 7377  10.532   5.290  10.432  0.0378  0.0282  0.1533
  470POPI    C2 7378  10.276   5.078  10.654 -0.0513 -0.1304 -0.0970
  470POPI    C3 7379  10.539   5.322  10.831 -0.1590 -0.2097  0.1779
  470POPI   PO4 7380  10.346   5.353  10.247  0.0429 -0.0267  0.1339
  470POPI   GL1 7381  10.067   5.243   9.926  0.0782 -0.2141  0.0284
  470POPI   GL2 7382  10.142   5.380   9.648  0.0124  0.0561 -0.3351
  470POPI   C1A 7383   9.862   4.866   9.740  0.1635 -0.0150 -0.0521
  470POPI   D2A 7384   9.765   4.679   9.350  0.1528 -0.0115 -0.2212
  470POPI   C3A 7385   9.490   4.729   9.067  0.2979  0.1256 -0.2020
  470POPI   C4A 7386   9.365   4.851   8.829 -0.2338 -0.1930  0.0030
  470POPI   C1B 7387   9.915   5.203   9.380  0.1537  0.3061  0.3118
  470POPI   C2B 7388   9.715   5.232   8.931  0.3486 -0.2084 -0.0108
  470POPI   C3B 7389   9.532   5.129   8.471 -0.2436 -0.0052 -0.0481
  470POPI   C4B 7390   9.673   5.294   8.076 -0.2600  0.1032 -0.0903
  471POPI    C1 7391  11.825   6.850  10.239 -0.0139  0.0865  0.0194
  471POPI    C2 7392  11.966   6.617  10.533  0.1159  0.0300 -0.0865
  471POPI    C3 7393  11.734   6.460  10.247  0.1808  0.0359 -0.1426
  471POPI   PO4 7394  12.062   6.972  10.109  0.2303  0.0610 -0.0486
  471POPI   GL1 7395  12.353   7.024   9.741 -0.1510 -0.2089  0.0041
  471POPI   GL2 7396  12.064   6.875   9.621 -0.0622 -0.2665 -0.1123
  471POPI   C1A 7397  12.495   7.098   9.324  0.2237 -0.0965 -0.0130
  471POPI   D2A 7398  12.390   7.147   8.854  0.0666  0.3167  0.1786
  471POPI   C3A 7399  12.416   7.451   8.453 -0.0593 -0.0859  0.0374
  471POPI   C4A 7400  12.079   7.437   8.137 -0.2084  0.2735  0.1373
  471POPI   C1B 7401  12.057   6.845   9.161  0.0048 -0.0935 -0.0567
  471POPI   C2B 7402  11.981   6.861   8.747 -0.0086  0.0840  0.0695
  471POPI   C3B 7403  11.999   6.605   8.460 -0.0033 -0.1623  0.0250
  471POPI   C4B 7404  11.699   6.406   8.148  0.0558  0.1535 -0.1725
  472POPI    C1 7405   4.155  16.864  10.977 -0.2080  0.0748 -0.1511
  472POPI    C2 7406   4.071  17.247  11.058 -0.0159  0.0685  0.0900
  472POPI    C3 7407   3.970  16.960  11.319 -0.1361 -0.0442 -0.0780
  472POPI   PO4 7408   4.164  16.851  10.726  0.0849  0.2599 -0.0063
  472POPI   GL1 7409   4.515  16.849  10.343  0.1221  0.1117 -0.0484
  472POPI   GL2 7410   4.436  17.102  10.439  0.0347 -0.0292 -0.0364
  472POPI   C1A 7411   4.452  16.927   9.892  0.2312  0.1417 -0.2444
  472POPI   D2A 7412   4.602  16.789   9.552 -0.0893 -0.0850  0.1887
  472POPI   C3A 7413   4.342  16.760   9.112 -0.5121  0.5191 -0.1341
  472POPI   C4A 7414   4.195  16.737   8.737 -0.0164 -0.0556 -0.2887
  472POPI   C1B 7415   4.176  17.335  10.097  0.0767 -0.1572 -0.0204
  472POPI   C2B 7416   4.255  17.386   9.733 -0.0910  0.0929  0.1101
  472POPI   C3B 7417   4.367  17.211   9.372 -0.2067 -0.1979  0.0555
  472POPI   C4B 7418   4.657  17.148   9.027  0.1012 -0.0417 -0.0576
  473DPPI    C1 7419   3.561   5.609  10.607  0.1121 -0.3479  0.0174
  473DPPI    C2 7420   3.388   5.563  10.965  0.1932 -0.2492  0.0697
  473DPPI    C3 7421   3.787   5.582  10.936  0.1793 -0.0489 -0.0019
  473DPPI   PO4 7422   3.481   5.817  10.486 -0.4205  0.0846 -0.1946
  473DPPI   GL1 7423   3.273   5.958  10.061  0.0554  0.0172 -0.0162
  473DPPI   GL2 7424   2.954   6.113  10.042 -0.0214 -0.2107  0.0778
  473DPPI   C1A 7425   3.509   5.922   9.667 -0.0791 -0.2099  0.0321
  473DPPI   C2A 7426   3.397   5.763   9.260 -0.0625  0.1156 -0.0317
  473DPPI   C3A 7427   3.591   5.494   8.989 -0.0242 -0.1631  0.1134
  473DPPI   C4A 7428   3.835   5.064   9.084 -0.2089 -0.1756 -0.0113
  473DPPI   C1B 7429   2.968   5.946   9.537 -0.0488 -0.0769  0.0032
  473DPPI   C2B 7430   2.907   5.917   9.089 -0.0498  0.1158  0.2202
  473DPPI   C3B 7431   2.799   5.791   8.707  0.0013 -0.1280 -0.1868
  473DPPI   C4B 7432   2.481   5.883   8.422  0.0027  0.0665 -0.2467
  474DPPI    C1 7433  17.484  16.181  10.812 -0.0391 -0.2220  0.1311
  474DPPI    C2 7434  17.861  16.201  10.943  0.0753 -0.2990 -0.1782
  474DPPI    C3 7435  17.621  15.908  11.070  0.1191 -0.2510  0.0180
  474DPPI   PO4 7436  17.464  16.303  10.522 -0.3081  0.0689 -0.2159
  474DPPI   GL1 7437  17.660  16.105  10.149  0.0586 -0.0934  0.0216
  474DPPI   GL2 7438  17.767  16.268   9.980 -0.1770 -0.2258  0.1604
  474DPPI   C1A 7439  17.803  15.691   9.806  0.0443 -0.2959  0.0400
  474DPPI   C2A 7440  17.830  15.740   9.415  0.0532  0.1207 -0.0139
  474DPPI   C3A 7441  17.800  15.743   8.969 -0.2054  0.0785  0.1644
  474DPPI   C4A 7442  17.859  15.789   8.554  0.1951  0.1961  0.1430
  474DPPI   C1B 7443  17.453  16.098   9.686  0.3251 -0.0523  0.0419
  474DPPI   C2B 7444  17.563  16.078   9.242  0.3931  0.0057  0.2121
  474DPPI   C3B 7445  17.562  16.515   9.037 -0.3822  0.1044 -0.2756
  474DPPI   C4B 7446  17.469  17.026   9.015  0.1130  0.1197 -0.2854
  475DPPI    C1 7447   6.497  13.432  10.973 -0.1589 -0.0825  0.0503
  475DPPI    C2 7448   6.437  13.802  11.113  0.1039  0.0856 -0.2695
  475DPPI    C3 7449   6.770  13.602  11.211  0.0280 -0.0128 -0.2104
  475DPPI   PO4 7450   6.316  13.374  10.779 -0.3625  0.3641  0.1875
  475DPPI   GL1 7451   6.223  13.465  10.392 -0.0897  0.0684  0.1330
  475DPPI   GL2 7452   5.975  13.379  10.494  0.2578 -0.0266  0.1260
  475DPPI   C1A 7453   6.293  13.522   9.948 -0.2503 -0.1881 -0.0392
  475DPPI   C2A 7454   6.217  13.519   9.508 -0.2574  0.2853  0.0189
  475DPPI   C3A 7455   6.347  13.396   9.080  0.0762 -0.1126 -0.3884
  475DPPI   C4A 7456   6.464  13.286   8.712 -0.3030 -0.3872  0.0967
  475DPPI   C1B 7457   5.769  13.507  10.134  0.1315 -0.0888  0.1284
  475DPPI   C2B 7458   5.691  13.491   9.639  0.1989  0.1505 -0.1072
  475DPPI   C3B 7459   5.823  13.445   9.203  0.0637 -0.0735  0.1881
  475DPPI   C4B 7460   5.940  13.457   8.703  0.1027 -0.2815  0.1920
  476DPPI    C1 7461   0.995   6.255  10.840  0.1366 -0.0420 -0.0653
  476DPPI    C2 7462   0.687   6.186  11.086  0.1284 -0.0003 -0.0637
  476DPPI    C3 7463   0.952   6.473  11.173  0.0147  0.1489 -0.2030
  476DPPI   PO4 7464   1.033   6.040  10.720 -0.1340 -0.0020  0.1283
  476DPPI   GL1 7465   0.854   6.037  10.303 -0.1672 -0.1690 -0.0434
  476DPPI   GL2 7466   0.851   6.331  10.218  0.1449 -0.1991 -0.0042
  476DPPI   C1A 7467   0.764   5.820   9.973 -0.1514 -0.0345 -0.0193
  476DPPI   C2A 7468   0.592   5.644   9.554 -0.2260  0.1692  0.0302
  476DPPI   C3A 7469   0.532   5.748   9.093 -0.0491  0.2176  0.0383
  476DPPI   C4A 7470   0.434   5.672   8.709 -0.1636  0.0498  0.2595
  476DPPI   C1B 7471   0.730   6.276   9.855  0.3024 -0.1735  0.1024
  476DPPI   C2B 7472   0.528   6.114   9.401  0.0283 -0.3628 -0.0530
  476DPPI   C3B 7473   0.513   6.303   9.023  0.0626  0.0375  0.2396
  476DPPI   C4B 7474   0.621   6.111   8.662  0.1270 -0.1416  0.0063
  477DPPI    C1 7475   9.683  13.836  10.843  0.0694  0.1697 -0.1489
  477DPPI    C2 7476   9.488  13.614  11.114 -0.0145  0.3103 -0.0932
  477DPPI    C3 7477   9.867  13.725  11.181  0.0414  0.1507 -0.1399
  477DPPI   PO4 7478   9.509  13.963  10.672 -0.1737  0.0725  0.0230
  477DPPI   GL1 7479   9.334  14.238  10.274 -0.1209 -0.1779 -0.0191
  477DPPI   GL2 7480   9.349  14.547  10.146 -0.0403 -0.0089  0.2775
  477DPPI   C1A 7481   9.635  14.107   9.956 -0.0636  0.0007  0.0323
  477DPPI   C2A 7482   9.899  14.083   9.569  0.2628 -0.2567 -0.1390
  477DPPI   C3A 7483  10.204  14.149   9.233  0.0308 -0.0930 -0.0487
  477DPPI   C4A 7484  10.588  13.902   9.290  0.4189  0.0388 -0.2059
  477DPPI   C1B 7485   9.181  14.411   9.656 -0.0030  0.0482 -0.2502
  477DPPI   C2B 7486   9.146  14.387   9.200  0.1954  0.0778 -0.0616
  477DPPI   C3B 7487   9.471  14.526   8.852 -0.0176 -0.1635  0.2865
  477DPPI   C4B 7488   9.559  14.333   8.612  0.0177 -0.1268 -0.0503
  478DPPI    C1 7489   9.409   3.668  10.527 -0.0747  0.0992  0.3374
  478DPPI    C2 7490   9.069   3.541  10.697 -0.0178 -0.0805  0.3197
  478DPPI    C3 7491   9.210   3.906  10.780 -0.4885  0.2031 -0.0712
  478DPPI   PO4 7492   9.557   3.474  10.438  0.0788 -0.1439 -0.1843
  478DPPI   GL1 7493   9.815   3.416  10.095  0.0061  0.0681  0.1688
  478DPPI   GL2 7494  10.167   3.509  10.043 -0.1646  0.2903 -0.0190
  478DPPI   C1A 7495   9.728   3.266   9.730 -0.0404 -0.1392 -0.1931
  478DPPI   C2A 7496   9.661   3.308   9.306 -0.1893 -0.0410  0.0565
  478DPPI   C3A 7497   9.729   3.309   8.998 -0.3526 -0.1756  0.5072
  478DPPI   C4A 7498  10.130   3.165   8.896  0.0038  0.0412 -0.2438
  478DPPI   C1B 7499  10.257   3.551   9.665  0.0691 -0.2149  0.1286
  478DPPI   C2B 7500  10.318   3.557   9.224  0.1684 -0.1022  0.3250
  478DPPI   C3B 7501  10.391   3.597   8.789  0.3053  0.0588 -0.1343
  478DPPI   C4B 7502  10.366   3.489   8.339  0.0381 -0.0760  0.2091
  479DPPI    C1 7503  10.107   9.472  11.040 -0.1625 -0.2021  0.1894
  479DPPI    C2 7504   9.997   9.854  11.081  0.0958 -0.1366  0.2887
  479DPPI    C3 7505   9.732   9.562  11.148 -0.1975  0.0279 -0.1092
  479DPPI   PO4 7506  10.292   9.542  10.757 -0.0093 -0.0506  0.1808
  479DPPI   GL1 7507  10.414   9.569  10.318 -0.1797  0.3715 -0.1133
  479DPPI   GL2 7508  10.232   9.423  10.192  0.1905  0.1323  0.0281
  479DPPI   C1A 7509  10.462   9.897   9.993 -0.5149  0.3383 -0.2150
  479DPPI   C2A 7510  10.513  10.012   9.595 -0.1014  0.1489 -0.0086
  479DPPI   C3A 7511  10.482  10.085   9.291 -0.0166  0.0614 -0.1076
  479DPPI   C4A 7512  10.399  10.299   8.992  0.0970 -0.1121  0.1902
  479DPPI   C1B 7513  10.119   9.606   9.830 -0.3466 -0.3514 -0.1488
  479DPPI   C2B 7514  10.138   9.647   9.406  0.2598 -0.1672  0.0965
  479DPPI   C3B 7515  10.152   9.752   9.022 -0.0512  0.0359 -0.1013
  479DPPI   C4B 7516  10.354   9.832   8.622 -0.0961 -0.0395  0.0873
  480DPPI    C1 7517   7.111   3.363  10.657 -0.0515 -0.0848 -0.0154
  480DPPI    C2 7518   7.043   3.074  10.925 -0.3206  0.0804  0.0981
  480DPPI    C3 7519   7.253   3.398  11.030  0.0636 -0.1133 -0.0563
  480DPPI   PO4 7520   7.090   3.192  10.437 -0.1913 -0.3063 -0.0364
  480DPPI   GL1 7521   7.245   3.200  10.036  0.0796  0.1911  0.0769
  480DPPI   GL2 7522   7.459   3.348   9.868 -0.0722 -0.0244 -0.1046
  480DPPI   C1A 7523   7.099   2.946   9.656  0.2131  0.2417  0.0196
  480DPPI   C2A 7524   7.057   2.937   9.192 -0.0990  0.0260  0.2388
  480DPPI   C3A 7525   7.100   3.001   8.717 -0.1218 -0.0085 -0.2155
  480DPPI   C4A 7526   7.042   3.043   8.251 -0.1286 -0.0271  0.0515
  480DPPI   C1B 7527   7.478   3.227   9.450 -0.0846  0.1264  0.0432
  480DPPI   C2B 7528   7.381   3.387   8.977 -0.1397 -0.2935 -0.0174
  480DPPI   C3B 7529   7.372   3.416   8.570  0.2170  0.0238  0.2789
  480DPPI   C4B 7530   7.393   3.355   8.135  0.2217 -0.2164  0.2772
  481DPPI    C1 7531  15.809   5.450  10.773  0.3971 -0.1954  0.1388
  481DPPI    C2 7532  15.900   5.644  11.111  0.0261 -0.0343  0.1508
  481DPPI    C3 7533  15.694   5.301  11.126  0.0110 -0.0280  0.0877
  481DPPI   PO4 7534  16.045   5.465  10.621  0.1056  0.1234 -0.0960
  481DPPI   GL1 7535  16.083   5.729  10.265  0.1550 -0.0721  0.0416
  481DPPI   GL2 7536  15.934   6.067  10.215 -0.1809  0.2457 -0.1482
  481DPPI   C1A 7537  16.289   5.602   9.957 -0.1983  0.0879 -0.2012
  481DPPI   C2A 7538  16.278   5.627   9.590 -0.2660 -0.1449 -0.0335
  481DPPI   C3A 7539  16.271   5.608   9.151  0.1052  0.0529 -0.0591
  481DPPI   C4A 7540  16.164   5.765   8.675 -0.1129 -0.1754  0.1524
  481DPPI   C1B 7541  15.950   5.915   9.764  0.1881 -0.1937 -0.0376
  481DPPI   C2B 7542  15.779   6.018   9.433 -0.0345 -0.1262 -0.3697
  481DPPI   C3B 7543  15.636   6.219   9.104  0.1661  0.2888 -0.1811
  481DPPI   C4B 7544  15.457   6.411   8.849  0.0743 -0.3149 -0.0147
  482DPPI    C1 7545   2.071   2.942  10.789 -0.0467  0.1405 -0.0732
  482DPPI    C2 7546   2.465   3.001  10.744 -0.0922  0.4892 -0.0428
  482DPPI    C3 7547   2.303   2.997  11.110 -0.0617 -0.0601 -0.0264
  482DPPI   PO4 7548   1.915   2.995  10.577 -0.0438  0.2276  0.0514
  482DPPI   GL1 7549   1.794   3.148  10.238  0.2431  0.0985 -0.2349
  482DPPI   GL2 7550   1.531   3.467  10.256  0.2420 -0.2092  0.0310
  482DPPI   C1A 7551   1.910   3.067   9.753  0.2951 -0.0460 -0.3955
  482DPPI   C2A 7552   2.091   3.032   9.337 -0.1295 -0.2707 -0.0026
  482DPPI   C3A 7553   2.395   3.064   9.032  0.1184 -0.1838 -0.2495
  482DPPI   C4A 7554   2.646   2.910   8.677 -0.2215 -0.1579 -0.0405
  482DPPI   C1B 7555   1.499   3.395   9.942 -0.0501 -0.0355 -0.2759
  482DPPI   C2B 7556   1.605   3.415   9.472 -0.2479  0.1737 -0.1446
  482DPPI   C3B 7557   1.798   3.358   9.038  0.3961  0.0201 -0.2624
  482DPPI   C4B 7558   1.803   3.312   8.655  0.3892  0.0085 -0.0473
  483DPPI    C1 7559  14.448  13.011  10.447  0.0770  0.1014  0.0560
  483DPPI    C2 7560  14.378  13.301  10.714 -0.0375  0.1609 -0.0376
  483DPPI    C3 7561  14.529  12.950  10.834 -0.1174  0.1759  0.1096
  483DPPI   PO4 7562  14.311  13.130  10.264 -0.3063 -0.1315 -0.2155
  483DPPI   GL1 7563  14.014  12.894  10.062  0.1813 -0.0344  0.1825
  483DPPI   GL2 7564  14.063  13.131   9.834  0.1488 -0.0320  0.0302
  483DPPI   C1A 7565  13.674  12.810   9.751 -0.0744  0.0623 -0.1334
  483DPPI   C2A 7566  13.487  12.710   9.361 -0.1873  0.0471  0.3101
  483DPPI   C3A 7567  13.365  12.633   8.904 -0.3089 -0.2713  0.1524
  483DPPI   C4A 7568  13.113  12.741   8.553 -0.0254 -0.0725  0.3988
  483DPPI   C1B 7569  13.986  13.060   9.408 -0.2892  0.0345  0.2148
  483DPPI   C2B 7570  13.773  12.889   9.053  0.0767  0.3461  0.2912
  483DPPI   C3B 7571  13.706  12.858   8.578 -0.0724 -0.0881 -0.1897
  483DPPI   C4B 7572  13.927  12.861   8.104  0.0960  0.3177 -0.1804
  484DPPI    C1 7573  15.685  16.485  10.657  0.0675 -0.0128 -0.0325
  484DPPI    C2 7574  15.447  16.794  10.745  0.0752 -0.0396  0.0847
  484DPPI    C3 7575  15.716  16.667  11.012  0.1345 -0.0897  0.0016
  484DPPI   PO4 7576  15.754  16.461  10.428 -0.1788 -0.1797  0.1343
  484DPPI   GL1 7577  15.853  16.625  10.024 -0.0344  0.0678  0.1882
  484DPPI   GL2 7578  16.035  16.391  10.056 -0.1513  0.1549 -0.2791
  484DPPI   C1A 7579  15.870  16.729   9.653 -0.0161 -0.1989 -0.1178
  484DPPI   C2A 7580  16.035  16.487   9.197 -0.0321 -0.0511  0.1454
  484DPPI   C3A 7581  16.229  16.514   8.811  0.0149 -0.1466 -0.0960
  484DPPI   C4A 7582  16.609  16.533   8.495  0.1149  0.0363 -0.0301
  484DPPI   C1B 7583  16.193  16.292   9.655  0.0602  0.0546 -0.1578
  484DPPI   C2B 7584  16.538  16.344   9.248  0.0695  0.0858  0.3358
  484DPPI   C3B 7585  16.895  16.333   8.985  0.0103  0.0044 -0.3771
  484DPPI   C4B 7586  17.076  16.734   8.951 -0.0192 -0.1904  0.0122
  485DPPI    C1 7587   9.339  13.145  10.914 -0.0149  0.0299 -0.0078
  485DPPI    C2 7588   9.058  13.029  11.174 -0.0214  0.0400 -0.0104
  485DPPI    C3 7589   9.445  12.983  11.263 -0.0216  0.1652  0.0576
  485DPPI   PO4 7590   9.229  13.079  10.720  0.0696  0.0324 -0.0201
  485DPPI   GL1 7591   9.329  12.827  10.437  0.2717 -0.1981  0.0237
  485DPPI   GL2 7592   9.550  12.936  10.380  0.0778  0.2361  0.0598
  485DPPI   C1A 7593   9.075  12.768   9.973 -0.4271  0.0265 -0.2627
  485DPPI   C2A 7594   9.097  12.647   9.562  0.0960  0.0139  0.1475
  485DPPI   C3A 7595   9.401  12.679   9.130  0.1244  0.2573 -0.0323
  485DPPI   C4A 7596   9.362  12.705   8.725  0.1383 -0.1815 -0.1673
  485DPPI   C1B 7597   9.424  13.220  10.029  0.0801  0.3492 -0.1067
  485DPPI   C2B 7598   9.332  13.103   9.539 -0.3208 -0.2270  0.3025
  485DPPI   C3B 7599   9.106  13.091   9.146  0.1243 -0.0224 -0.1856
  485DPPI   C4B 7600   9.039  13.112   8.678  0.2155 -0.0371 -0.2662
  486DPPI    C1 7601   8.458   7.186  10.771  0.0245  0.3354  0.2898
  486DPPI    C2 7602   8.065   7.111  10.757  0.0546  0.2213  0.0082
  486DPPI    C3 7603   8.204   7.471  10.651  0.0143  0.3110  0.2538
  486DPPI   PO4 7604   8.591   7.061  10.618  0.3470  0.4391  0.0116
  486DPPI   GL1 7605   8.700   7.324  10.250  0.0701 -0.0541 -0.2951
  486DPPI   GL2 7606   8.930   7.552  10.265 -0.0184 -0.0038  0.2533
  486DPPI   C1A 7607   8.427   7.427   9.863  0.0276  0.1585  0.0615
  486DPPI   C2A 7608   8.440   7.503   9.479  0.0717  0.0820  0.1823
  486DPPI   C3A 7609   8.413   7.716   9.093  0.0096 -0.1095  0.0460
  486DPPI   C4A 7610   8.440   7.700   8.704 -0.0857 -0.2143  0.0076
  486DPPI   C1B 7611   8.990   7.352   9.894  0.0259 -0.1749 -0.3084
  486DPPI   C2B 7612   8.883   7.279   9.576 -0.1740 -0.0217 -0.0742
  486DPPI   C3B 7613   8.838   7.335   9.146  0.0034 -0.1758 -0.0366
  486DPPI   C4B 7614   8.952   7.566   8.810 -0.0230  0.0607  0.1893
  487DPPI    C1 7615   6.728  17.589  11.181 -0.3546  0.1065 -0.0450
  487DPPI    C2 7616   6.464  17.664  11.471  0.0194  0.1619  0.2904
  487DPPI    C3 7617   6.625  17.966  11.265 -0.0987  0.1343  0.1559
  487DPPI   PO4 7618   6.573  17.485  11.013 -0.1288 -0.0243  0.0969
  487DPPI   GL1 7619   6.553  17.401  10.575  0.2694 -0.2316 -0.1022
  487DPPI   GL2 7620   6.265  17.565  10.549 -0.1607  0.1737  0.0821
  487DPPI   C1A 7621   6.495  17.540  10.134  0.1932 -0.0054  0.0641
  487DPPI   C2A 7622   6.348  17.404   9.791 -0.0696 -0.1643 -0.1952
  487DPPI   C3A 7623   6.235  17.454   9.302 -0.2114  0.0490  0.0222
  487DPPI   C4A 7624   6.120  17.462   8.887  0.2192  0.1827  0.1379
  487DPPI   C1B 7625   5.957  17.620  10.166 -0.1032  0.0276 -0.0169
  487DPPI   C2B 7626   5.898  17.762   9.732 -0.4840 -0.0458 -0.1540
  487DPPI   C3B 7627   5.846  17.775   9.313 -0.0089 -0.1046 -0.0882
  487DPPI   C4B 7628   5.729  17.886   8.917 -0.0606 -0.0338  0.4441
  488DPPI    C1 7629   0.028  17.760  10.869  0.0728  0.3741 -0.2037
  488DPPI    C2 7630   0.361  17.812  11.084 -0.0620  0.0274  0.1000
  488DPPI    C3 7631   0.048  18.056  11.137 -0.0254  0.0625  0.1560
  488DPPI   PO4 7632   0.130  17.600  10.646  0.2907 -0.0103  0.0764
  488DPPI   GL1 7633   0.243  17.692  10.251 -0.0368 -0.1060 -0.1178
  488DPPI   GL2 7634   0.162  17.931  10.246 -0.0335 -0.0214  0.0684
  488DPPI   C1A 7635   0.235  17.556   9.741  0.1888 -0.1248 -0.0482
  488DPPI   C2A 7636   0.465  17.648   9.332  0.0504 -0.2091 -0.0568
  488DPPI   C3A 7637   0.425  17.583   8.875  0.1089  0.1077 -0.1436
  488DPPI   C4A 7638   0.176  17.522   8.590  0.0529  0.0973 -0.0107
  488DPPI   C1B 7639   0.249  18.053   9.839  0.3018 -0.1377 -0.2631
  488DPPI   C2B 7640   0.198  18.073   9.367 -0.2074 -0.1875  0.0607
  488DPPI   C3B 7641   0.194  18.104   8.959  0.4305  0.1683 -0.0907
  488DPPI   C4B 7642   0.249  18.014   8.545 -0.0075  0.0655  0.2344
  489DPPI    C1 7643  12.803   5.668  10.566  0.3477  0.2845 -0.3571
  489DPPI    C2 7644  12.546   5.966  10.637 -0.0256 -0.0582 -0.2383
  489DPPI    C3 7645  12.815   5.863  10.915  0.0880  0.1486 -0.2700
  489DPPI   PO4 7646  12.938   5.686  10.373  0.2561 -0.1874  0.0045
  489DPPI   GL1 7647  13.060   5.385  10.103 -0.0338  0.2470  0.1091
  489DPPI   GL2 7648  12.793   5.348   9.914  0.2673  0.0520 -0.0421
  489DPPI   C1A 7649  13.320   5.514   9.819 -0.2751  0.1279 -0.0344
  489DPPI   C2A 7650  13.253   5.753   9.390 -0.1564  0.1726 -0.0693
  489DPPI   C3A 7651  13.469   5.710   8.965  0.3108 -0.1423 -0.2522
  489DPPI   C4A 7652  13.736   5.763   8.539  0.0152  0.1897 -0.0866
  489DPPI   C1B 7653  12.763   5.419   9.502  0.0373 -0.1274  0.2336
  489DPPI   C2B 7654  12.832   5.546   9.035 -0.0540 -0.0208 -0.0085
  489DPPI   C3B 7655  12.961   5.658   8.626 -0.0438 -0.0687 -0.0791
  489DPPI   C4B 7656  12.979   5.860   8.242  0.0858 -0.1645 -0.1094
  490DPPI    C1 7657   8.302  13.525  11.143 -0.1697  0.1113  0.0531
  490DPPI    C2 7658   8.630  13.296  11.149 -0.1878  0.0771 -0.1807
  490DPPI    C3 7659   8.338  13.233  11.415  0.0179  0.1454  0.0664
  490DPPI   PO4 7660   8.312  13.649  10.911 -0.2468 -0.1887 -0.0804
  490DPPI   GL1 7661   8.324  13.490  10.510 -0.1585  0.2183 -0.1571
  490DPPI   GL2 7662   8.043  13.427  10.331  0.1089 -0.1199 -0.1627
  490DPPI   C1A 7663   8.652  13.671  10.261 -0.1364 -0.2363  0.3143
  490DPPI   C2A 7664   8.956  13.904  10.202 -0.0360  0.2199 -0.0159
  490DPPI   C3A 7665   9.214  13.885   9.828  0.2425 -0.0492 -0.2648
  490DPPI   C4A 7666   9.423  13.944   9.397 -0.0282 -0.1236  0.0835
  490DPPI   C1B 7667   8.144  13.732   9.992 -0.1057 -0.0260  0.2162
  490DPPI   C2B 7668   8.175  14.127   9.735  0.3484 -0.1505 -0.1018
  490DPPI   C3B 7669   8.538  14.386   9.745  0.2200 -0.2931  0.1928
  490DPPI   C4B 7670   8.851  14.469  10.014 -0.2866  0.0339 -0.3538
  491DPPI    C1 7671  14.271   3.104  10.838  0.0956 -0.2275  0.3578
  491DPPI    C2 7672  14.225   3.477  10.976  0.1141 -0.1122  0.0601
  491DPPI    C3 7673  14.028   3.174  11.148 -0.2242  0.0933  0.0458
  491DPPI   PO4 7674  14.251   3.163  10.541 -0.0691 -0.0371 -0.0895
  491DPPI   GL1 7675  14.247   3.396  10.111  0.0154  0.2002  0.3965
  491DPPI   GL2 7676  14.588   3.367  10.241 -0.1874  0.0153 -0.1001
  491DPPI   C1A 7677  14.428   3.270   9.691 -0.0907 -0.1754  0.1604
  491DPPI   C2A 7678  14.363   3.335   9.218  0.0102 -0.0732 -0.1815
  491DPPI   C3A 7679  14.217   3.382   8.801  0.1048 -0.1541 -0.1906
  491DPPI   C4A 7680  14.245   3.061   8.464 -0.1478 -0.2828 -0.1106
  491DPPI   C1B 7681  14.586   3.729   9.924 -0.0752 -0.2296 -0.3577
  491DPPI   C2B 7682  14.548   3.716   9.496 -0.1200  0.0403  0.0495
  491DPPI   C3B 7683  14.494   3.759   8.987 -0.5058 -0.3041  0.1926
  491DPPI   C4B 7684  14.543   3.785   8.495 -0.0628 -0.1583 -0.4446
  492DPPI    C1 7685  11.581   3.584  10.748  0.1292  0.0380 -0.3342
  492DPPI    C2 7686  11.918   3.385  10.833 -0.0145 -0.0351  0.0882
  492DPPI    C3 7687  11.873   3.763  10.955 -0.0566 -0.0001 -0.0340
  492DPPI   PO4 7688  11.575   3.625  10.478  0.2313 -0.0787  0.2316
  492DPPI   GL1 7689  11.812   3.593  10.093  0.0567 -0.1384  0.1456
  492DPPI   GL2 7690  12.045   3.497   9.872  0.0492  0.0099 -0.0149
  492DPPI   C1A 7691  11.787   3.829   9.638  0.0958  0.0559 -0.2275
  492DPPI   C2A 7692  11.934   3.930   9.230  0.0351  0.3201 -0.1943
  492DPPI   C3A 7693  12.115   4.286   9.068 -0.1465 -0.0980 -0.4367
  492DPPI   C4A 7694  12.336   4.624   8.910 -0.2406  0.2999 -0.1265
  492DPPI   C1B 7695  12.213   3.621   9.508  0.0547  0.0407  0.0464
  492DPPI   C2B 7696  12.428   3.908   9.237 -0.0396 -0.3169  0.2820
  492DPPI   C3B 7697  12.523   4.090   8.818 -0.0953 -0.1613 -0.1335
  492DPPI   C4B 7698  12.327   4.221   8.406 -0.0637 -0.1156 -0.2863
  493DPPI    C1 7699  16.599  12.697  10.762  0.2575 -0.1095  0.2132
  493DPPI    C2 7700  16.283  12.502  10.910 -0.0154  0.0606 -0.1291
  493DPPI    C3 7701  16.577  12.621  11.154 -0.2058 -0.1133  0.1919
  493DPPI   PO4 7702  16.699  12.569  10.627  0.3060 -0.1174  0.2263
  493DPPI   GL1 7703  16.642  12.442  10.174  0.2717 -0.0603 -0.1338
  493DPPI   GL2 7704  16.353  12.638  10.116 -0.1247  0.4011 -0.2127
  493DPPI   C1A 7705  16.525  12.217   9.695 -0.0679 -0.1739  0.0952
  493DPPI   C2A 7706  16.334  12.390   9.326 -0.0352  0.2845 -0.1354
  493DPPI   C3A 7707  16.281  12.529   8.969  0.0550  0.1513  0.3328
  493DPPI   C4A 7708  16.002  12.810   8.915  0.2301  0.1033  0.0488
  493DPPI   C1B 7709  16.202  12.721   9.738  0.0836  0.0481  0.1149
  493DPPI   C2B 7710  16.129  12.902   9.354  0.1662 -0.1254  0.0371
  493DPPI   C3B 7711  16.019  13.211   9.208 -0.0171 -0.0161  0.0456
  493DPPI   C4B 7712  15.712  13.348   8.936  0.0885  0.1244  0.1953
  494DPPI    C1 7713   1.293   3.897  10.739  0.2198 -0.1801  0.0363
  494DPPI    C2 7714   1.109   3.858  11.092 -0.0964  0.2634 -0.0715
  494DPPI    C3 7715   1.425   4.101  11.056  0.0616  0.0637 -0.0522
  494DPPI   PO4 7716   1.277   3.724  10.649  0.1091 -0.0823 -0.2062
  494DPPI   GL1 7717   1.128   3.828  10.237  0.1279 -0.2132  0.0344
  494DPPI   GL2 7718   1.127   4.163  10.299 -0.2828 -0.0414 -0.1791
  494DPPI   C1A 7719   1.237   3.816   9.795 -0.2446 -0.0692  0.1543
  494DPPI   C2A 7720   1.335   3.825   9.294 -0.0730  0.0762  0.0538
  494DPPI   C3A 7721   1.478   3.721   8.841  0.2002  0.0140 -0.1734
  494DPPI   C4A 7722   1.625   3.787   8.370  0.1145 -0.0638  0.0269
  494DPPI   C1B 7723   1.311   4.269   9.975 -0.1051  0.0347 -0.1492
  494DPPI   C2B 7724   1.587   4.237   9.530  0.4103 -0.1831  0.0386
  494DPPI   C3B 7725   1.631   4.203   9.085  0.1970  0.1466  0.2075
  494DPPI   C4B 7726   1.655   4.202   8.645  0.3086 -0.3780 -0.1081
  495DPPI    C1 7727   8.735  11.042  10.880  0.0070  0.0374  0.1771
  495DPPI    C2 7728   8.407  10.850  11.002 -0.0103  0.1333  0.2832
  495DPPI    C3 7729   8.674  10.980  11.271  0.0540  0.1633  0.2050
  495DPPI   PO4 7730   8.790  10.831  10.638  0.2755  0.0020  0.0561
  495DPPI   GL1 7731   8.937  10.894  10.242 -0.2484 -0.0187 -0.0128
  495DPPI   GL2 7732   9.117  10.656  10.158  0.0166  0.1604  0.0123
  495DPPI   C1A 7733   9.021  11.103   9.787  0.0706  0.1826 -0.2423
  495DPPI   C2A 7734   9.194  11.224   9.584  0.0943 -0.2559  0.1798
  495DPPI   C3A 7735   9.186  11.424   9.279  0.0435 -0.0819  0.1167
  495DPPI   C4A 7736   9.091  11.330   8.773 -0.0175  0.1621 -0.0761
  495DPPI   C1B 7737   9.136  10.608   9.861  0.0104 -0.1673  0.1008
  495DPPI   C2B 7738   9.215  10.719   9.373  0.0900 -0.0844  0.0224
  495DPPI   C3B 7739   9.000  10.912   9.000  0.2315 -0.0752 -0.3276
  495DPPI   C4B 7740   8.632  11.263   8.933 -0.4166 -0.0505 -0.0720
  496DPPI    C1 7741  13.547  15.536  10.612  0.0726  0.3866 -0.1507
  496DPPI    C2 7742  13.770  15.610  10.936  0.0016 -0.0110 -0.0054
  496DPPI    C3 7743  13.395  15.478  10.978 -0.0271 -0.0119 -0.2508
  496DPPI   PO4 7744  13.817  15.500  10.415 -0.2351  0.0276 -0.1080
  496DPPI   GL1 7745  13.855  15.096  10.041 -0.1585  0.1164  0.2367
  496DPPI   GL2 7746  13.575  15.002   9.965  0.2669  0.0532  0.1065
  496DPPI   C1A 7747  13.995  15.139   9.654 -0.0462  0.0327  0.1769
  496DPPI   C2A 7748  13.788  15.100   9.265 -0.1925  0.0436  0.1245
  496DPPI   C3A 7749  13.638  15.106   8.859 -0.2894  0.4749  0.0609
  496DPPI   C4A 7750  13.418  15.248   8.424 -0.1540 -0.2821  0.0603
  496DPPI   C1B 7751  13.382  14.874   9.580 -0.0804 -0.0059 -0.0684
  496DPPI   C2B 7752  13.403  14.743   9.211  0.2154  0.1441  0.1575
  496DPPI   C3B 7753  13.525  14.639   8.787  0.0637  0.1143  0.0644
  496DPPI   C4B 7754  13.330  14.585   8.334 -0.4615  0.2584 -0.1660
  497DPPI    C1 7755  10.137  14.879  10.891 -0.0448  0.0011  0.0528
  497DPPI    C2 7756   9.748  14.941  10.960 -0.0536 -0.0330  0.0338
  497DPPI    C3 7757   9.956  14.692  11.194 -0.0663 -0.0919 -0.0170
  497DPPI   PO4 7758  10.195  14.906  10.606  0.1390  0.0653 -0.0218
  497DPPI   GL1 7759  10.256  15.107  10.331  0.0513  0.2991  0.3174
  497DPPI   GL2 7760  10.586  15.308  10.187  0.2560 -0.1770  0.0507
  497DPPI   C1A 7761  10.162  15.071   9.935 -0.0512 -0.1304 -0.1445
  497DPPI   C2A 7762  10.187  15.122   9.486  0.2067  0.2530 -0.0801
  497DPPI   C3A 7763   9.996  15.158   9.109 -0.1581 -0.0471 -0.1493
  497DPPI   C4A 7764  10.006  15.064   8.616  0.2057 -0.1280  0.0000
  497DPPI   C1B 7765  10.654  15.081   9.804 -0.4967  0.0875  0.0811
  497DPPI   C2B 7766  10.662  14.978   9.410  0.0450 -0.3408 -0.0972
  497DPPI   C3B 7767  10.526  14.893   9.029 -0.2240 -0.1197  0.0293
  497DPPI   C4B 7768  10.441  14.873   8.626  0.1223  0.0006 -0.1907
  498DPPI    C1 7769   6.902  10.782  11.109 -0.1921 -0.1512 -0.1177
  498DPPI    C2 7770   7.056  10.460  11.290 -0.0158  0.0646  0.1236
  498DPPI    C3 7771   6.824  10.713  11.495 -0.1727  0.0816 -0.0709
  498DPPI   PO4 7772   6.839  10.625  10.844 -0.0024  0.0321 -0.0167
  498DPPI   GL1 7773   6.633  10.705  10.489 -0.0417 -0.3956 -0.0996
  498DPPI   GL2 7774   6.330  10.788  10.367  0.0925  0.0490 -0.1804
  498DPPI   C1A 7775   6.871  10.573  10.193  0.0730 -0.1871  0.0789
  498DPPI   C2A 7776   6.809  10.538   9.740 -0.0099 -0.1065  0.0810
  498DPPI   C3A 7777   6.626  10.209   9.478  0.1118 -0.0376 -0.1336
  498DPPI   C4A 7778   6.708  10.276   9.138 -0.1646 -0.1332 -0.3303
  498DPPI   C1B 7779   6.468  10.817   9.908  0.0076 -0.3058  0.1053
  498DPPI   C2B 7780   6.460  10.744   9.418  0.1368 -0.0330  0.0775
  498DPPI   C3B 7781   6.458  10.787   8.990  0.1664 -0.1914 -0.0747
  498DPPI   C4B 7782   6.504  10.867   8.568  0.0037  0.1512  0.0657
  499DPPI    C1 7783   8.227  14.694  10.965  0.0745  0.0538 -0.2648
  499DPPI    C2 7784   8.014  14.404  11.140 -0.0634  0.2611 -0.0841
  499DPPI    C3 7785   8.079  14.749  11.332  0.1552  0.3270 -0.2708
  499DPPI   PO4 7786   8.054  14.746  10.721 -0.0156 -0.2116 -0.0320
  499DPPI   GL1 7787   8.081  14.656  10.382 -0.2995 -0.4418 -0.0304
  499DPPI   GL2 7788   7.949  14.998  10.268 -0.0721 -0.0620 -0.1002
  499DPPI   C1A 7789   8.144  14.681   9.970  0.0543  0.0709 -0.2026
  499DPPI   C2A 7790   8.200  14.746   9.562  0.0771 -0.0577  0.3078
  499DPPI   C3A 7791   8.305  14.896   9.200 -0.1837  0.2296  0.0344
  499DPPI   C4A 7792   8.573  15.189   8.888  0.1895  0.0671 -0.0710
  499DPPI   C1B 7793   8.174  15.175   9.949 -0.1980 -0.1423  0.1475
  499DPPI   C2B 7794   8.292  15.289   9.590 -0.1774  0.1225  0.4236
  499DPPI   C3B 7795   8.189  15.517   9.122  0.0111 -0.0949 -0.1064
  499DPPI   C4B 7796   8.221  15.808   8.803  0.0295 -0.1955 -0.3504
  500DPPI    C1 7797  17.783  13.199  10.717  0.0468 -0.1309  0.2489
  500DPPI    C2 7798  17.469  13.262  10.956  0.1661 -0.0427  0.3841
  500DPPI    C3 7799  17.681  13.572  10.818  0.0167 -0.0841  0.0506
  500DPPI   PO4 7800  17.720  13.070  10.553  0.2622  0.1740 -0.0841
  500DPPI   GL1 7801  17.708  13.109  10.060 -0.2549 -0.1136 -0.3313
  500DPPI   GL2 7802  17.417  13.199   9.978 -0.3750 -0.2784  0.0153
  500DPPI   C1A 7803  17.728  13.224   9.600  0.1970 -0.0173 -0.0854
  500DPPI   C2A 7804  17.523  13.208   9.219  0.1006 -0.2228  0.2267
  500DPPI   C3A 7805  17.480  13.044   8.840 -0.2649  0.2940  0.1917
  500DPPI   C4A 7806  17.799  12.864   8.564 -0.1790 -0.1313 -0.0169
  500DPPI   C1B 7807  17.355  13.566   9.599 -0.0393  0.1116  0.0107
  500DPPI   C2B 7808  17.072  13.613   9.295 -0.0013 -0.2727  0.1105
  500DPPI   C3B 7809  16.853  13.638   8.939 -0.2321 -0.0128  0.0146
  500DPPI   C4B 7810  16.630  13.416   8.528 -0.1918  0.0138  0.0156
  501DPPI    C1 7811   7.425   7.806  10.877 -0.0386  0.2388  0.0915
  501DPPI    C2 7812   7.752   7.585  10.944 -0.1907  0.0198  0.1218
  501DPPI    C3 7813   7.582   7.788  11.244 -0.0040  0.2465  0.0771
  501DPPI   PO4 7814   7.274   7.590  10.784  0.1089  0.3381 -0.1508
  501DPPI   GL1 7815   7.191   7.604  10.314 -0.0355 -0.1354 -0.0537
  501DPPI   GL2 7816   7.223   7.860  10.127  0.4858 -0.0376  0.1327
  501DPPI   C1A 7817   7.470   7.403   9.947  0.0309 -0.3099 -0.0515
  501DPPI   C2A 7818   7.297   7.277   9.649 -0.2015  0.2686 -0.1493
  501DPPI   C3A 7819   7.088   7.470   9.323 -0.0279 -0.0268 -0.1479
  501DPPI   C4A 7820   7.122   7.470   8.855  0.0736 -0.1067 -0.1089
  501DPPI   C1B 7821   7.068   7.721   9.739 -0.1538  0.0610  0.2386
  501DPPI   C2B 7822   6.681   7.707   9.487  0.2616 -0.0419 -0.0265
  501DPPI   C3B 7823   6.691   7.778   9.065 -0.2670 -0.2659  0.0444
  501DPPI   C4B 7824   6.653   7.639   8.689  0.2288  0.0716  0.1380
  502DPPI    C1 7825   1.155   2.278  10.779 -0.2742 -0.0351  0.1232
  502DPPI    C2 7826   1.073   2.628  10.604 -0.2221  0.0042  0.1771
  502DPPI    C3 7827   1.102   2.606  11.002 -0.0739 -0.0298  0.1652
  502DPPI   PO4 7828   1.004   2.053  10.512 -0.0114 -0.2075  0.2126
  502DPPI   GL1 7829   1.191   1.922  10.173 -0.1699 -0.0972 -0.1579
  502DPPI   GL2 7830   1.232   1.634  10.029  0.0842 -0.0157 -0.1203
  502DPPI   C1A 7831   0.955   2.033   9.803  0.0983  0.1204 -0.1406
  502DPPI   C2A 7832   1.003   2.183   9.374  0.0334 -0.1888 -0.1967
  502DPPI   C3A 7833   1.279   2.166   9.023 -0.0044  0.0395 -0.1610
  502DPPI   C4A 7834   1.314   2.109   8.579  0.2292  0.3267 -0.1653
  502DPPI   C1B 7835   1.328   1.757   9.566 -0.1718  0.0175  0.1101
  502DPPI   C2B 7836   1.229   1.644   9.149 -0.2374  0.2328  0.1805
  502DPPI   C3B 7837   1.374   1.598   8.650 -0.0933 -0.0173 -0.3752
  502DPPI   C4B 7838   1.437   1.691   8.231  0.2292  0.0534  0.1203
  503DPPI    C1 7839   6.235  11.122  11.029 -0.0178 -0.0146 -0.0306
  503DPPI    C2 7840   6.368  10.760  10.921  0.0235  0.0627 -0.2438
  503DPPI    C3 7841   6.316  10.847  11.308 -0.0798 -0.2032 -0.1957
  503DPPI   PO4 7842   6.346  11.321  10.893 -0.1617 -0.3752 -0.0816
  503DPPI   GL1 7843   6.296  11.417  10.522 -0.1911  0.1412 -0.0240
  503DPPI   GL2 7844   6.549  11.295  10.375  0.1318 -0.3073 -0.1367
  503DPPI   C1A 7845   6.160  11.199  10.081 -0.1137 -0.0030  0.0852
  503DPPI   C2A 7846   6.182  11.170   9.636  0.3370  0.1787 -0.2357
  503DPPI   C3A 7847   6.318  11.234   9.177  0.0647 -0.1718  0.0511
  503DPPI   C4A 7848   6.275  11.376   8.764 -0.0108 -0.0186  0.3158
  503DPPI   C1B 7849   6.635  11.366   9.957 -0.2681 -0.1837 -0.1410
  503DPPI   C2B 7850   6.673  11.308   9.515 -0.1661 -0.0267 -0.0489
  503DPPI   C3B 7851   6.869  11.178   9.168 -0.0543  0.0247  0.0641
  503DPPI   C4B 7852   6.807  11.275   8.716  0.1930 -0.3770 -0.2670
  504DPPI    C1 7853  16.555   5.947  10.844  0.0992 -0.1618  0.1050
  504DPPI    C2 7854  16.390   5.620  11.004  0.0526 -0.1210  0.1409
  504DPPI    C3 7855  16.561   5.893  11.240  0.1952 -0.1757  0.1018
  504DPPI   PO4 7856  16.471   5.917  10.558 -0.2645 -0.1134 -0.2011
  504DPPI   GL1 7857  16.704   5.806  10.181  0.0165  0.0142 -0.1819
  504DPPI   GL2 7858  16.501   6.115  10.077 -0.1547 -0.4251  0.1901
  504DPPI   C1A 7859  16.741   5.716   9.742 -0.1940 -0.3747  0.0398
  504DPPI   C2A 7860  16.755   5.672   9.281  0.2813 -0.1833  0.1893
  504DPPI   C3A 7861  16.818   5.553   8.845 -0.4272 -0.2447 -0.5184
  504DPPI   C4A 7862  16.990   5.464   8.464 -0.0287  0.0962  0.1124
  504DPPI   C1B 7863  16.364   6.189   9.613  0.0682 -0.2222  0.2571
  504DPPI   C2B 7864  16.240   6.141   9.399 -0.3284  0.2057 -0.0083
  504DPPI   C3B 7865  16.134   6.099   8.999 -0.0565 -0.5141 -0.0103
  504DPPI   C4B 7866  15.898   6.195   8.631 -0.2289 -0.0690 -0.2731
  505DPPI    C1 7867   2.667   6.525  10.575  0.0520 -0.2189  0.0456
  505DPPI    C2 7868   2.659   6.223  10.837  0.1678 -0.0406  0.2579
  505DPPI    C3 7869   2.717   6.597  10.965  0.4620  0.0225 -0.0462
  505DPPI   PO4 7870   2.791   6.474  10.342 -0.3857  0.1478 -0.2564
  505DPPI   GL1 7871   2.573   6.725  10.060  0.0144  0.0874  0.1117
  505DPPI   GL2 7872   2.208   6.638  10.039  0.0470 -0.0162 -0.0684
  505DPPI   C1A 7873   2.514   6.886   9.659  0.1665 -0.0017 -0.1955
  505DPPI   C2A 7874   2.491   6.746   9.242 -0.1042 -0.0466 -0.0565
  505DPPI   C3A 7875   2.429   6.586   8.928 -0.2491  0.2904  0.2140
  505DPPI   C4A 7876   2.261   6.339   8.516  0.0676 -0.0177  0.0342
  505DPPI   C1B 7877   2.084   6.548   9.580  0.1828  0.1032  0.3507
  505DPPI   C2B 7878   2.052   6.479   9.227 -0.0451 -0.2341  0.2339
  505DPPI   C3B 7879   1.882   6.547   8.851  0.0184  0.0073 -0.1094
  505DPPI   C4B 7880   1.744   6.634   8.435 -0.2108 -0.3106 -0.0936
  506DPPI    C1 7881  10.866   2.522  10.438  0.1325 -0.0765  0.0249
  506DPPI    C2 7882  10.679   2.740  10.717  0.0358 -0.2451  0.0940
  506DPPI    C3 7883  10.867   2.921  10.413  0.0134 -0.0649  0.1860
  506DPPI   PO4 7884  10.611   2.334  10.416 -0.0224 -0.0289  0.1206
  506DPPI   GL1 7885  10.279   2.192  10.067  0.1495  0.1719  0.2049
  506DPPI   GL2 7886  10.108   2.441  10.140  0.3512 -0.0375  0.0256
  506DPPI   C1A 7887  10.112   2.040   9.678 -0.2317 -0.2758 -0.2679
  506DPPI   C2A 7888  10.169   1.961   9.183 -0.0362  0.4468 -0.3163
  506DPPI   C3A 7889  10.151   1.920   8.780 -0.1295 -0.0059 -0.2204
  506DPPI   C4A 7890   9.999   2.055   8.423 -0.2436 -0.0511  0.1965
  506DPPI   C1B 7891  10.006   2.526   9.750  0.0718 -0.1543 -0.2138
  506DPPI   C2B 7892   9.957   2.434   9.361  0.3813  0.0499  0.0177
  506DPPI   C3B 7893   9.983   2.386   8.849  0.1681 -0.0007 -0.1105
  506DPPI   C4B 7894  10.025   2.559   8.386 -0.0462 -0.0918 -0.2327
  507DPPI    C1 7895   3.970   8.968  10.651  0.1071 -0.0623 -0.1714
  507DPPI    C2 7896   3.846   9.117  10.301 -0.0617  0.0856 -0.0503
  507DPPI    C3 7897   3.587   9.073  10.603  0.1398  0.2173  0.1451
  507DPPI   PO4 7898   4.255   9.109  10.680 -0.0033  0.3390  0.1072
  507DPPI   GL1 7899   4.462   8.973  10.363 -0.1056 -0.0564  0.2371
  507DPPI   GL2 7900   4.223   8.726  10.202 -0.2528  0.1019 -0.4406
  507DPPI   C1A 7901   4.677   9.308  10.150 -0.2439  0.0980 -0.1010
  507DPPI   C2A 7902   4.688   9.295   9.625 -0.0800 -0.0358  0.2861
  507DPPI   C3A 7903   4.723   9.235   9.175  0.0312  0.0844 -0.0566
  507DPPI   C4A 7904   4.900   9.527   8.879  0.0715 -0.1221  0.1244
  507DPPI   C1B 7905   4.532   8.716   9.889 -0.1136 -0.2178 -0.2804
  507DPPI   C2B 7906   4.633   8.816   9.527 -0.2300 -0.1226 -0.0754
  507DPPI   C3B 7907   4.553   8.705   9.118  0.0543  0.0013  0.0802
  507DPPI   C4B 7908   4.411   8.698   8.671  0.1632  0.0515 -0.1261
  508DPPI    C1 7909   6.286   4.063  10.812  0.0730 -0.1423  0.0806
  508DPPI    C2 7910   6.474   4.356  11.009 -0.0338 -0.0712  0.0775
  508DPPI    C3 7911   6.156   4.178  11.172  0.0980 -0.2627  0.1286
  508DPPI   PO4 7912   6.376   4.172  10.522 -0.1012 -0.0359 -0.2109
  508DPPI   GL1 7913   6.474   4.359  10.085  0.2037 -0.0584 -0.1049
  508DPPI   GL2 7914   6.370   4.067  10.022  0.1511 -0.2982 -0.0685
  508DPPI   C1A 7915   6.339   4.333   9.625 -0.1450  0.1341  0.1307
  508DPPI   C2A 7916   6.488   4.204   9.239  0.2352 -0.0391  0.0207
  508DPPI   C3A 7917   6.552   4.316   8.886 -0.2388 -0.0597  0.0914
  508DPPI   C4A 7918   6.655   4.430   8.503 -0.0679  0.0889 -0.1115
  508DPPI   C1B 7919   6.377   3.788   9.681 -0.2362  0.2900 -0.1617
  508DPPI   C2B 7920   6.394   3.732   9.333 -0.0419 -0.0242 -0.1136
  508DPPI   C3B 7921   6.359   3.784   8.910 -0.1804  0.0370 -0.1475
  508DPPI   C4B 7922   6.470   3.875   8.529 -0.2372 -0.1043  0.1618
  509DPPI    C1 7923  16.224  16.840  11.044  0.3495 -0.0102 -0.1684
  509DPPI    C2 7924  16.058  16.633  11.343 -0.0588  0.3311 -0.1495
  509DPPI    C3 7925  16.371  16.872  11.415  0.1018  0.1020 -0.0776
  509DPPI   PO4 7926  16.203  16.710  10.836  0.0200  0.0920  0.0651
  509DPPI   GL1 7927  16.250  16.683  10.359 -0.0364 -0.1869  0.0687
  509DPPI   GL2 7928  16.168  17.030  10.170  0.0150 -0.0014 -0.2686
  509DPPI   C1A 7929  16.441  16.660   9.957 -0.0182  0.0105 -0.1197
  509DPPI   C2A 7930  16.640  16.696   9.641 -0.1500  0.0004  0.1273
  509DPPI   C3A 7931  16.641  16.841   9.189  0.0337  0.1857 -0.2208
  509DPPI   C4A 7932  16.628  16.876   8.854  0.3746  0.1410  0.0596
  509DPPI   C1B 7933  16.248  17.055   9.741 -0.0997  0.0667 -0.2966
  509DPPI   C2B 7934  16.137  17.025   9.338  0.0077 -0.3111  0.0717
  509DPPI   C3B 7935  15.949  16.928   8.980  0.3219 -0.1331  0.0422
  509DPPI   C4B 7936  16.080  16.889   8.559  0.2067  0.0343  0.2682
  510DPPI    C1 7937   5.373   4.484  10.626  0.0140  0.1207 -0.0309
  510DPPI    C2 7938   5.112   4.181  10.658  0.0710  0.0975  0.2452
  510DPPI    C3 7939   5.008   4.548  10.778  0.1294  0.1102  0.2575
  510DPPI   PO4 7940   5.489   4.436  10.420  0.0229 -0.0533  0.1388
  510DPPI   GL1 7941   5.500   4.402  10.091  0.1582  0.1231 -0.1404
  510DPPI   GL2 7942   5.540   4.669   9.974 -0.1764  0.2684  0.1284
  510DPPI   C1A 7943   5.179   4.295   9.781  0.0517 -0.2347 -0.3566
  510DPPI   C2A 7944   5.214   4.386   9.376 -0.1412 -0.1809  0.0642
  510DPPI   C3A 7945   5.257   4.463   8.956  0.0994 -0.0049 -0.5378
  510DPPI   C4A 7946   5.268   4.587   8.540 -0.2318  0.0434  0.2688
  510DPPI   C1B 7947   5.393   4.874   9.614 -0.2505 -0.0851 -0.1406
  510DPPI   C2B 7948   5.326   4.868   9.202 -0.0556  0.0012  0.1012
  510DPPI   C3B 7949   5.448   4.972   8.816  0.1298 -0.2935  0.1678
  510DPPI   C4B 7950   5.322   5.224   8.421 -0.0338  0.2545  0.3099
  511DPPI    C1 7951   4.664   7.119  11.101  0.1023 -0.1288  0.0595
  511DPPI    C2 7952   4.379   6.860  11.206 -0.0924  0.0153 -0.1070
  511DPPI    C3 7953   4.579   7.061  11.488 -0.2908  0.0575  0.0057
  511DPPI   PO4 7954   4.597   7.225  10.850  0.0260 -0.0291 -0.0641
  511DPPI   GL1 7955   4.718   7.208  10.355 -0.1411  0.1062  0.2976
  511DPPI   GL2 7956   4.889   7.355  10.316 -0.0477  0.0151  0.1541
  511DPPI   C1A 7957   4.439   7.205   9.935  0.1446  0.0667 -0.0618
  511DPPI   C2A 7958   4.465   7.118   9.531 -0.0589  0.2159 -0.0130
  511DPPI   C3A 7959   4.365   7.021   9.081 -0.0445  0.0103  0.0052
  511DPPI   C4A 7960   4.203   6.777   8.705 -0.1471 -0.0086  0.1499
  511DPPI   C1B 7961   4.907   7.306   9.885  0.2040 -0.0322 -0.0896
  511DPPI   C2B 7962   4.927   7.335   9.491  0.2873 -0.2521 -0.0742
  511DPPI   C3B 7963   4.793   7.275   9.155 -0.2183  0.0182  0.1090
  511DPPI   C4B 7964   4.714   7.231   8.783 -0.3118  0.0497 -0.0146
  512DPPI    C1 7965  12.420   7.383  10.527 -0.0444 -0.0798  0.0833
  512DPPI    C2 7966  12.290   7.004  10.515  0.1274 -0.1361 -0.0529
  512DPPI    C3 7967  12.668   7.083  10.622  0.0992 -0.0047 -0.0487
  512DPPI   PO4 7968  12.233   7.449  10.232  0.0074  0.0730 -0.2088
  512DPPI   GL1 7969  11.731   7.335  10.152 -0.1654  0.1513  0.0078
  512DPPI   GL2 7970  11.932   7.399   9.822 -0.2794 -0.1079  0.1211
  512DPPI   C1A 7971  11.493   7.340   9.719  0.2405 -0.1572  0.0852
  512DPPI   C2A 7972  11.540   7.554   9.376 -0.0181  0.0378  0.2600
  512DPPI   C3A 7973  11.518   7.665   8.941  0.1897 -0.2487 -0.0729
  512DPPI   C4A 7974  11.668   7.676   8.513  0.0363 -0.0735 -0.2778
  512DPPI   C1B 7975  11.948   7.302   9.350 -0.0259 -0.1722 -0.3008
  512DPPI   C2B 7976  11.882   7.293   8.883  0.1197  0.0871  0.1837
  512DPPI   C3B 7977  11.758   7.198   8.394 -0.1372 -0.0563  0.0480
  512DPPI   C4B 7978  11.837   6.903   8.097 -0.0469  0.0719 -0.1715
  513PYPI    C1 7979   0.144   1.293  10.570  0.0479 -0.0821  0.1763
  513PYPI    C2 7980  -0.133   1.013  10.503  0.0566 -0.0425 -0.0328
  513PYPI    C3 7981  -0.236   1.357  10.678 -0.0162 -0.0501 -0.0601
  513PYPI   PO4 7982   0.372   1.356  10.335  0.0193 -0.0638 -0.0565
  513PYPI   GL1 7983   0.440   1.211   9.963 -0.0751  0.1584 -0.0365
  513PYPI   GL2 7984   0.068   1.094  10.003  0.0840  0.0305 -0.0475
  513PYPI   C1A 7985   0.474   1.187   9.527 -0.4566  0.0975 -0.0218
  513PYPI   C2A 7986   0.450   1.209   9.118 -0.1800  0.0763  0.4153
  513PYPI   D3A 7987   0.487   1.103   8.687  0.0080  0.1329 -0.2912
  513PYPI   C4A 7988   0.877   0.958   8.571  0.2204 -0.0996 -0.0705
  513PYPI   C1B 7989   0.007   1.233   9.616 -0.2492  0.1667  0.1487
  513PYPI   C2B 7990  -0.119   1.247   9.175 -0.0705 -0.1396 -0.1316
  513PYPI   C3B 7991   0.049   1.267   8.802  0.1517  0.2461 -0.1043
  513PYPI   C4B 7992   0.122   1.076   8.328  0.1583 -0.1262  0.0178
  514PYPI    C1 7993   3.004  15.237  11.070 -0.0022 -0.0481  0.1246
  514PYPI    C2 7994   2.724  15.120  10.810  0.0355  0.1087  0.0118
  514PYPI    C3 7995   2.808  14.894  11.129  0.0820 -0.1527 -0.1824
  514PYPI   PO4 7996   3.173  15.379  10.937 -0.0752  0.1046  0.0990
  514PYPI   GL1 7997   3.411  15.536  10.622 -0.2026 -0.2285 -0.1940
  514PYPI   GL2 7998   3.449  15.248  10.520  0.0864  0.1398 -0.1850
  514PYPI   C1A 7999   3.251  15.857  10.347 -0.2175 -0.0578 -0.0324
  514PYPI   C2A 8000   3.441  15.906  10.001 -0.4410  0.0194  0.2514
  514PYPI   D3A 8001   3.307  15.943   9.657 -0.0537  0.0063  0.2124
  514PYPI   C4A 8002   3.502  15.755   9.278 -0.2702 -0.0280  0.0161
  514PYPI   C1B 8003   3.511  15.413  10.186  0.0126  0.1575  0.0029
  514PYPI   C2B 8004   3.568  15.512   9.743 -0.0716  0.2049  0.1852
  514PYPI   C3B 8005   3.475  15.291   9.380 -0.3081 -0.1514 -0.1925
  514PYPI   C4B 8006   3.453  15.254   8.957  0.0299 -0.1923 -0.0591
  515PYPI    C1 8007   4.397  13.837  11.077  0.2350  0.2104  0.1588
  515PYPI    C2 8008   4.165  13.613  11.314  0.2542  0.0456  0.0238
  515PYPI    C3 8009   4.480  13.806  11.467  0.1754  0.0669  0.1609
  515PYPI   PO4 8010   4.166  13.927  10.953  0.0573  0.1154 -0.1356
  515PYPI   GL1 8011   4.108  13.942  10.478 -0.0118 -0.0274 -0.2667
  515PYPI   GL2 8012   4.425  13.777  10.442  0.0246  0.0779 -0.1803
  515PYPI   C1A 8013   3.827  14.105  10.041  0.1176  0.1086 -0.0400
  515PYPI   C2A 8014   3.797  14.099   9.592  0.0014  0.1696  0.2632
  515PYPI   D3A 8015   3.654  14.013   9.161 -0.0367  0.2022 -0.2373
  515PYPI   C4A 8016   3.401  14.139   8.859 -0.3030 -0.2197 -0.0700
  515PYPI   C1B 8017   4.255  13.774  10.016 -0.5289  0.0253  0.1200
  515PYPI   C2B 8018   4.248  13.877   9.506 -0.0887 -0.1332 -0.0976
  515PYPI   C3B 8019   4.331  14.042   9.090  0.3487  0.1760  0.0454
  515PYPI   C4B 8020   4.418  13.890   8.718  0.3707 -0.3327 -0.0041
  516PYPI    C1 8021   1.401  13.674  10.805  0.0953 -0.0228 -0.1581
  516PYPI    C2 8022   1.522  13.635  10.426  0.1305  0.1429 -0.1646
  516PYPI    C3 8023   1.297  13.949  10.533  0.0635  0.0605 -0.0624
  516PYPI   PO4 8024   1.321  13.410  10.832  0.2923  0.0693 -0.2501
  516PYPI   GL1 8025   1.466  12.993  10.466 -0.0982 -0.0895 -0.3045
  516PYPI   GL2 8026   1.728  13.127  10.300  0.0550  0.0215 -0.1778
  516PYPI   C1A 8027   1.155  12.864  10.171  0.0718  0.1412  0.1221
  516PYPI   C2A 8028   1.162  12.682   9.770  0.0537 -0.0252  0.2063
  516PYPI   D3A 8029   1.094  12.411   9.361  0.0393 -0.1814 -0.0638
  516PYPI   C4A 8030   1.030  12.665   9.071 -0.2664  0.1664 -0.1193
  516PYPI   C1B 8031   2.027  13.069  10.094 -0.2154 -0.0948  0.1306
  516PYPI   C2B 8032   2.264  13.153   9.695 -0.2588  0.1674  0.2316
  516PYPI   C3B 8033   2.463  13.145   9.340  0.0525  0.2151 -0.0259
  516PYPI   C4B 8034   2.324  13.196   8.919  0.1454 -0.2049  0.1340
  517PYPI    C1 8035   0.101  17.320  11.077  0.1840  0.1180  0.0727
  517PYPI    C2 8036   0.418  17.084  11.020  0.0493 -0.0781  0.1271
  517PYPI    C3 8037   0.328  17.213  11.388  0.2021  0.1735  0.0788
  517PYPI   PO4 8038  -0.077  17.163  10.850 -0.3990  0.0034 -0.0632
  517PYPI   GL1 8039  -0.180  17.182  10.443  0.1383  0.1340  0.3464
  517PYPI   GL2 8040  -0.366  17.459  10.460 -0.3645 -0.1891 -0.1065
  517PYPI   C1A 8041  -0.105  17.127  10.103  0.0478 -0.0418  0.0017
  517PYPI   C2A 8042  -0.102  17.192   9.641  0.1628  0.1447 -0.0804
  517PYPI   D3A 8043   0.046  17.423   9.244  0.0498 -0.0414  0.2448
  517PYPI   C4A 8044  -0.109  17.303   8.959 -0.1674  0.2328  0.2466
  517PYPI   C1B 8045  -0.210  17.604   9.985  0.0230 -0.0326  0.1284
  517PYPI   C2B 8046  -0.194  17.809   9.585  0.0464  0.0755  0.0913
  517PYPI   C3B 8047  -0.186  17.824   9.102  0.0274  0.1778 -0.0537
  517PYPI   C4B 8048  -0.256  17.801   8.574  0.1182  0.1122  0.2123
  518PYPI    C1 8049   3.568   6.632  10.861  0.0322  0.0845 -0.0979
  518PYPI    C2 8050   3.669   6.384  11.158  0.0499  0.1853 -0.0193
  518PYPI    C3 8051   3.700   6.779  11.208  0.0665  0.2024 -0.1605
  518PYPI   PO4 8052   3.619   6.466  10.665 -0.2459  0.1562  0.0785
  518PYPI   GL1 8053   3.726   6.395  10.332  0.0410 -0.1490  0.1024
  518PYPI   GL2 8054   3.743   6.096  10.231  0.0411 -0.1391  0.0374
  518PYPI   C1A 8055   3.797   6.673   9.929 -0.0347 -0.0556  0.0194
  518PYPI   C2A 8056   3.912   6.927   9.529  0.0445  0.0628 -0.1476
  518PYPI   D3A 8057   3.808   7.189   9.229  0.0215  0.2204 -0.1552
  518PYPI   C4A 8058   3.748   7.014   8.805 -0.2632 -0.1575 -0.1260
  518PYPI   C1B 8059   3.881   6.202   9.827 -0.2028  0.0906  0.3012
  518PYPI   C2B 8060   3.849   6.365   9.515  0.0495  0.2143 -0.2567
  518PYPI   C3B 8061   3.856   6.559   9.129  0.0212 -0.1568  0.0957
  518PYPI   C4B 8062   3.813   6.455   8.697 -0.3049  0.2674 -0.0058
  519PYPI    C1 8063   0.288  14.926  10.276 -0.0267  0.1884  0.2222
  519PYPI    C2 8064   0.133  14.779  10.614  0.0769 -0.3336  0.0507
  519PYPI    C3 8065  -0.083  14.777  10.277  0.0758 -0.0751  0.0485
  519PYPI   PO4 8066   0.559  14.972  10.389 -0.0014 -0.0713 -0.0992
  519PYPI   GL1 8067   0.873  14.999  10.202  0.2910 -0.0906 -0.2204
  519PYPI   GL2 8068   0.696  15.277  10.058  0.1521  0.2552  0.4316
  519PYPI   C1A 8069   1.051  14.930   9.915  0.1034 -0.1407  0.0722
  519PYPI   C2A 8070   0.842  14.805   9.464 -0.0588 -0.2545  0.3660
  519PYPI   D3A 8071   0.765  14.722   9.065  0.0809 -0.2121  0.1153
  519PYPI   C4A 8072   0.510  14.429   8.991 -0.1994  0.1627 -0.1710
  519PYPI   C1B 8073   0.798  15.271   9.647  0.0590  0.1291 -0.1101
  519PYPI   C2B 8074   0.823  15.263   9.177  0.0622  0.0511  0.1526
  519PYPI   C3B 8075   0.858  15.143   8.852 -0.2103  0.1460 -0.3703
  519PYPI   C4B 8076   0.946  15.046   8.376 -0.1238  0.0213 -0.0272
  520PYPI    C1 8077  12.510   7.880  10.382 -0.1243  0.1877  0.0670
  520PYPI    C2 8078  12.793   8.016  10.135  0.0305  0.2606  0.2822
  520PYPI    C3 8079  12.719   7.623  10.157 -0.1602  0.2735 -0.0655
  520PYPI   PO4 8080  12.314   7.971  10.372 -0.1674  0.0266 -0.0992
  520PYPI   GL1 8081  12.163   8.108   9.965 -0.1796  0.3864  0.2671
  520PYPI   GL2 8082  12.313   7.796   9.882 -0.0392 -0.0023  0.0765
  520PYPI   C1A 8083  12.324   8.066   9.502  0.1289  0.0937 -0.2428
  520PYPI   C2A 8084  12.424   7.985   9.227 -0.2967  0.0591 -0.3378
  520PYPI   D3A 8085  12.589   7.989   8.867  0.1706  0.1042 -0.1407
  520PYPI   C4A 8086  12.682   7.992   8.498  0.2366 -0.2158  0.0933
  520PYPI   C1B 8087  12.310   7.549   9.491  0.0069  0.0949 -0.1497
  520PYPI   C2B 8088  12.250   7.577   9.075  0.1434  0.0780  0.1949
  520PYPI   C3B 8089  12.187   7.840   8.625  0.0892 -0.0183  0.1692
  520PYPI   C4B 8090  12.083   8.010   8.310  0.0961  0.1333 -0.2838
  521PYPI    C1 8091   4.598   0.404  11.046  0.1147 -0.1764 -0.0358
  521PYPI    C2 8092   4.598   0.078  11.279  0.1856 -0.0017  0.2130
  521PYPI    C3 8093   4.915   0.160  11.049  0.0469 -0.2656 -0.0794
  521PYPI   PO4 8094   4.383   0.421  10.910  0.1715 -0.0299  0.1635
  521PYPI   GL1 8095   4.346   0.701  10.496  0.2963  0.1603  0.0509
  521PYPI   GL2 8096   4.373   0.343  10.376  0.0608  0.2231 -0.0022
  521PYPI   C1A 8097   4.172   0.878  10.101  0.0599  0.2195  0.2217
  521PYPI   C2A 8098   4.296   1.140   9.748 -0.1240 -0.0463  0.2665
  521PYPI   D3A 8099   4.073   1.507   9.680  0.3393  0.2344 -0.1332
  521PYPI   C4A 8100   3.869   1.763   9.962  0.0635  0.2764  0.0108
  521PYPI   C1B 8101   4.124   0.373  10.075 -0.1582  0.1842 -0.0010
  521PYPI   C2B 8102   4.173   0.650   9.668 -0.1454  0.1609 -0.0030
  521PYPI   C3B 8103   4.234   0.881   9.295  0.1376 -0.1656  0.1753
  521PYPI   C4B 8104   4.422   1.273   9.264 -0.0341  0.1291  0.1476
  522PYPI    C1 8105  16.544   6.591  10.501  0.2489 -0.0054  0.3741
  522PYPI    C2 8106  16.193   6.692  10.665  0.0632 -0.1037  0.0456
  522PYPI    C3 8107  16.231   6.344  10.471  0.3040 -0.0322 -0.0390
  522PYPI   PO4 8108  16.568   6.883  10.388  0.2808  0.0723 -0.2028
  522PYPI   GL1 8109  16.794   7.003  10.046  0.1779  0.1582 -0.2319
  522PYPI   GL2 8110  16.507   7.127   9.874  0.0623  0.0822 -0.0246
  522PYPI   C1A 8111  17.038   6.906   9.606  0.1404 -0.0712 -0.0132
  522PYPI   C2A 8112  16.987   6.882   9.167 -0.1204  0.1715  0.0212
  522PYPI   D3A 8113  16.821   6.843   8.728 -0.0559 -0.1682 -0.0283
  522PYPI   C4A 8114  16.415   6.917   8.405 -0.3175 -0.1027 -0.4649
  522PYPI   C1B 8115  16.565   7.127   9.424 -0.1971  0.2268 -0.0601
  522PYPI   C2B 8116  16.575   7.219   9.113 -0.0690  0.0268 -0.1111
  522PYPI   C3B 8117  16.599   7.324   8.744 -0.4743 -0.2321 -0.0156
  522PYPI   C4B 8118  16.476   7.407   8.391  0.3580  0.2986  0.2540
  523PYPI    C1 8119   1.021  14.388  10.806 -0.0360 -0.0329 -0.0953
  523PYPI    C2 8120   1.333  14.204  10.977  0.0528 -0.0845 -0.3094
  523PYPI    C3 8121   1.292  14.600  11.010 -0.1054 -0.1301  0.1004
  523PYPI   PO4 8122   0.885  14.094  10.688  0.1576  0.0225  0.2251
  523PYPI   GL1 8123   0.789  13.758  10.365 -0.0631  0.1050  0.0113
  523PYPI   GL2 8124   0.679  14.054  10.271  0.0797  0.0094  0.1765
  523PYPI   C1A 8125   0.688  13.542   9.920 -0.1136  0.1674  0.2857
  523PYPI   C2A 8126   0.528  13.584   9.583 -0.1421 -0.0429  0.1599
  523PYPI   D3A 8127   0.462  13.477   9.151 -0.0607  0.0555  0.2146
  523PYPI   C4A 8128   0.507  13.792   8.818 -0.1079  0.0411  0.1930
  523PYPI   C1B 8129   0.520  14.047   9.864 -0.1614  0.2012  0.2815
  523PYPI   C2B 8130   0.868  13.909   9.595 -0.1877  0.2496 -0.2144
  523PYPI   C3B 8131   1.042  13.586   9.394  0.0318  0.0576  0.1284
  523PYPI   C4B 8132   1.418  13.447   9.284  0.3259  0.0843  0.1075
  524PYPI    C1 8133  13.684   6.806  10.989  0.2370 -0.0996  0.1855
  524PYPI    C2 8134  13.523   7.158  11.090  0.1464 -0.0637 -0.0743
  524PYPI    C3 8135  13.821   7.004  11.308  0.0572  0.0806  0.1536
  524PYPI   PO4 8136  13.696   6.891  10.675 -0.0114  0.0603 -0.1605
  524PYPI   GL1 8137  13.664   6.596  10.273  0.0111 -0.2352 -0.2916
  524PYPI   GL2 8138  13.841   6.776  10.033 -0.3253 -0.0154 -0.2974
  524PYPI   C1A 8139  13.630   6.315   9.959 -0.2078 -0.0343 -0.1454
  524PYPI   C2A 8140  13.404   6.148   9.653 -0.2333 -0.2543  0.1403
  524PYPI   D3A 8141  13.137   6.216   9.358  0.3655 -0.2572 -0.2318
  524PYPI   C4A 8142  13.043   6.028   8.988 -0.0278 -0.2301  0.0626
  524PYPI   C1B 8143  13.735   6.705   9.630 -0.1563  0.0397 -0.0039
  524PYPI   C2B 8144  13.633   6.460   9.296 -0.0928  0.1788  0.0433
  524PYPI   C3B 8145  13.524   6.216   8.874  0.0414 -0.0897  0.0088
  524PYPI   C4B 8146  13.376   6.055   8.507 -0.0004 -0.3117 -0.0366
  525PYPI    C1 8147  15.634   6.237  10.590  0.0237 -0.0489  0.0341
  525PYPI    C2 8148  15.278   6.208  10.411 -0.0307 -0.0566  0.1422
  525PYPI    C3 8149  15.321   6.089  10.790  0.0329  0.1548  0.2027
  525PYPI   PO4 8150  15.762   6.486  10.476  0.0148 -0.2011  0.3917
  525PYPI   GL1 8151  15.960   6.615  10.167 -0.1934 -0.2763 -0.0218
  525PYPI   GL2 8152  16.138   6.851  10.142  0.0994  0.2573 -0.2378
  525PYPI   C1A 8153  16.001   6.452   9.757 -0.2970  0.1127  0.0277
  525PYPI   C2A 8154  15.938   6.588   9.391 -0.0479 -0.0421  0.1413
  525PYPI   D3A 8155  15.957   6.645   8.943 -0.3616  0.2443  0.1953
  525PYPI   C4A 8156  15.910   6.724   8.457 -0.2220  0.1082 -0.0207
  525PYPI   C1B 8157  16.134   6.993   9.681  0.4422 -0.1458  0.0150
  525PYPI   C2B 8158  16.127   7.009   9.223 -0.0309  0.1238 -0.2199
  525PYPI   C3B 8159  16.155   7.081   8.833  0.1345 -0.0517  0.0660
  525PYPI   C4B 8160  16.025   7.323   8.488 -0.1321  0.0998 -0.0390
  526PYPI    C1 8161  16.622  15.573  10.574 -0.0582 -0.0808  0.1677
  526PYPI    C2 8162  16.396  15.446  10.879 -0.1610 -0.0532  0.1039
  526PYPI    C3 8163  16.451  15.838  10.820  0.1065 -0.0636  0.2646
  526PYPI   PO4 8164  16.544  15.438  10.391  0.0860  0.0146 -0.0215
  526PYPI   GL1 8165  16.533  15.427   9.965 -0.1705 -0.2164  0.0258
  526PYPI   GL2 8166  16.204  15.466  10.028  0.0520 -0.0315 -0.1316
  526PYPI   C1A 8167  16.867  15.304   9.549 -0.1077 -0.1958  0.0556
  526PYPI   C2A 8168  16.942  15.263   9.127 -0.1402  0.0311  0.1040
  526PYPI   D3A 8169  17.158  15.255   8.808 -0.0054 -0.0298 -0.0432
  526PYPI   C4A 8170  17.155  15.538   8.374 -0.0299 -0.1797 -0.2043
  526PYPI   C1B 8171  15.912  15.487   9.679  0.1250  0.0815  0.0329
  526PYPI   C2B 8172  16.076  15.398   9.236  0.0612 -0.1607  0.2582
  526PYPI   C3B 8173  16.173  15.269   8.860  0.0243  0.1788 -0.0666
  526PYPI   C4B 8174  16.221  15.297   8.434  0.0541 -0.2757  0.4316
  527PYPI    C1 8175   5.195   5.749  10.468 -0.3151 -0.0564 -0.2742
  527PYPI    C2 8176   5.090   5.509  10.771  0.1013 -0.1331 -0.1845
  527PYPI    C3 8177   5.021   5.396  10.393  0.1394 -0.3183 -0.1374
  527PYPI   PO4 8178   5.495   5.850  10.551 -0.1426  0.0399  0.0370
  527PYPI   GL1 8179   5.825   5.764  10.318 -0.0648 -0.0684 -0.0473
  527PYPI   GL2 8180   6.135   5.732  10.118 -0.2426 -0.2696  0.0684
  527PYPI   C1A 8181   5.761   5.631   9.850 -0.2804  0.0534  0.4798
  527PYPI   C2A 8182   5.746   5.681   9.415 -0.2447  0.1426 -0.0113
  527PYPI   D3A 8183   5.696   5.607   8.989  0.1111 -0.0017  0.1474
  527PYPI   C4A 8184   5.577   5.934   8.713 -0.0915 -0.0566  0.2155
  527PYPI   C1B 8185   6.191   5.902   9.679 -0.1818  0.2064  0.0556
  527PYPI   C2B 8186   6.492   6.196   9.447 -0.0630 -0.1607  0.1368
  527PYPI   C3B 8187   6.432   6.157   9.007 -0.3825  0.2077  0.0644
  527PYPI   C4B 8188   6.464   6.058   8.540  0.0864  0.1218  0.1928
  528PYPI    C1 8189   0.940  14.863  10.691  0.0741  0.0145 -0.0487
  528PYPI    C2 8190   1.083  15.074  10.999 -0.1145  0.1486 -0.0511
  528PYPI    C3 8191   0.692  15.079  10.918 -0.1124 -0.1543 -0.0899
  528PYPI   PO4 8192   1.251  14.930  10.528  0.1908 -0.1200 -0.0829
  528PYPI   GL1 8193   1.509  14.841  10.210 -0.0927 -0.0039  0.0675
  528PYPI   GL2 8194   1.431  14.543  10.065 -0.2032  0.0968  0.0007
  528PYPI   C1A 8195   1.560  14.950   9.822  0.1463  0.4338 -0.0109
  528PYPI   C2A 8196   1.744  14.976   9.324  0.3450 -0.0325 -0.0412
  528PYPI   D3A 8197   1.830  14.733   8.951 -0.2075 -0.2029 -0.0076
  528PYPI   C4A 8198   1.659  14.712   8.597 -0.0965  0.0616  0.1775
  528PYPI   C1B 8199   1.289  14.558   9.559 -0.1511 -0.1162  0.0411
  528PYPI   C2B 8200   1.317  14.765   9.135 -0.1433 -0.1269 -0.2117
  528PYPI   C3B 8201   1.167  14.744   8.742  0.1542 -0.0859 -0.1567
  528PYPI   C4B 8202   1.288  14.762   8.251  0.0250  0.0557  0.0872
  529PYPI    C1 8203   0.127   0.633  10.385  0.0248  0.2792  0.3833
  529PYPI    C2 8204   0.417   0.375  10.289 -0.3679 -0.0063 -0.0858
  529PYPI    C3 8205   0.471   0.767  10.232 -0.0497 -0.0487 -0.0943
  529PYPI   PO4 8206  -0.106   0.468  10.363  0.1698  0.1715 -0.1603
  529PYPI   GL1 8207  -0.279   0.203  10.072 -0.0222 -0.0663 -0.2203
  529PYPI   GL2 8208  -0.562   0.250  10.230  0.1423  0.2295 -0.0402
  529PYPI   C1A 8209  -0.266   0.335   9.559  0.1140 -0.4472  0.0249
  529PYPI   C2A 8210  -0.278   0.387   9.156 -0.2929  0.1910  0.1065
  529PYPI   D3A 8211  -0.216   0.395   8.790  0.2557  0.0843 -0.1599
  529PYPI   C4A 8212  -0.218   0.314   8.397 -0.1800  0.1092  0.1602
  529PYPI   C1B 8213  -0.684   0.524   9.887  0.1167  0.0775 -0.0981
  529PYPI   C2B 8214  -0.761   0.570   9.467 -0.2238 -0.0039  0.5788
  529PYPI   C3B 8215  -0.814   0.543   8.978  0.1146 -0.0541 -0.0862
  529PYPI   C4B 8216  -0.915   0.587   8.596  0.1655 -0.2440 -0.0907
  530PYPI    C1 8217  11.607   1.195  10.686 -0.3173 -0.0787 -0.1446
  530PYPI    C2 8218  11.534   1.574  10.792  0.4014  0.0027  0.1206
  530PYPI    C3 8219  11.376   1.273  11.003 -0.0770  0.1451 -0.0202
  530PYPI   PO4 8220  11.584   1.283  10.357 -0.2231 -0.0691 -0.1063
  530PYPI   GL1 8221  11.342   1.289  10.001 -0.0323 -0.0540  0.1669
  530PYPI   GL2 8222  11.499   1.559   9.941 -0.2004 -0.2888  0.1706
  530PYPI   C1A 8223  11.328   1.091   9.614 -0.2022  0.0154 -0.3435
  530PYPI   C2A 8224  11.391   0.746   9.549  0.0028 -0.1465  0.3860
  530PYPI   D3A 8225  11.469   0.451   9.204  0.3084 -0.1950 -0.2731
  530PYPI   C4A 8226  11.515   0.542   8.822  0.0918 -0.0994  0.2308
  530PYPI   C1B 8227  11.543   1.575   9.495 -0.5444 -0.3181 -0.2266
  530PYPI   C2B 8228  11.631   1.394   9.148 -0.3144  0.5209 -0.0021
  530PYPI   C3B 8229  11.557   1.379   8.680 -0.1326  0.1307  0.2959
  530PYPI   C4B 8230  11.290   1.481   8.301  0.1016  0.2009 -0.1641
  531PYPI    C1 8231   8.392   3.140  10.481 -0.0065  0.0364 -0.2530
  531PYPI    C2 8232   8.084   2.885  10.483 -0.0412  0.0778 -0.0333
  531PYPI    C3 8233   8.375   2.848  10.754  0.0786  0.1227 -0.1546
  531PYPI   PO4 8234   8.520   3.126  10.255  0.0627 -0.0375  0.0991
  531PYPI   GL1 8235   8.459   3.174   9.857  0.0088 -0.2309  0.0089
  531PYPI   GL2 8236   8.234   2.854  10.016 -0.1152  0.2651 -0.0993
  531PYPI   C1A 8237   8.759   3.160   9.534 -0.3622 -0.2509 -0.4068
  531PYPI   C2A 8238   8.759   3.083   9.080  0.1367 -0.2164 -0.1117
  531PYPI   D3A 8239   8.815   2.977   8.674  0.1915 -0.0737  0.0221
  531PYPI   C4A 8240   9.131   2.677   8.589  0.1311  0.2828  0.1082
  531PYPI   C1B 8241   8.253   2.832   9.509  0.0352  0.2602 -0.1219
  531PYPI   C2B 8242   8.377   2.785   9.072 -0.0666  0.0249  0.0716
  531PYPI   C3B 8243   8.168   2.876   8.752 -0.1082 -0.0735 -0.0349
  531PYPI   C4B 8244   7.821   2.700   8.521  0.0682 -0.2487  0.3510
  532PYPI    C1 8245   0.479   5.004  10.911 -0.1480  0.1471  0.4217
  532PYPI    C2 8246   0.568   4.621  10.984 -0.1670  0.0839  0.1256
  532PYPI    C3 8247   0.591   4.891  11.278  0.2103 -0.0761  0.2490
  532PYPI   PO4 8248   0.218   5.000  10.812  0.1656  0.0959 -0.2930
  532PYPI   GL1 8249   0.084   5.096  10.463 -0.0481 -0.0997 -0.2460
  532PYPI   GL2 8250  -0.009   5.303  10.496  0.0847 -0.1368  0.0146
  532PYPI   C1A 8251  -0.032   4.960  10.048  0.1485  0.2233  0.2617
  532PYPI   C2A 8252   0.066   4.933   9.645  0.1777  0.2141  0.1633
  532PYPI   D3A 8253   0.239   5.015   9.286 -0.1752 -0.2821  0.3139
  532PYPI   C4A 8254   0.565   5.207   9.204  0.0211  0.1466  0.1586
  532PYPI   C1B 8255  -0.206   5.374  10.160  0.3790 -0.1184  0.1955
  532PYPI   C2B 8256  -0.365   5.255   9.793 -0.0938 -0.0019  0.2230
  532PYPI   C3B 8257  -0.279   5.120   9.389 -0.1312  0.0560 -0.0529
  532PYPI   C4B 8258  -0.303   5.121   8.951  0.1384  0.4062  0.0778
  533PYPI    C1 8259  17.240   7.528  10.783 -0.2509  0.1395 -0.0778
  533PYPI    C2 8260  17.135   7.883  10.933 -0.0423  0.2078 -0.0893
  533PYPI    C3 8261  17.212   7.577  11.179 -0.0818  0.2104 -0.0736
  533PYPI   PO4 8262  17.389   7.562  10.586  0.0501 -0.0684 -0.0094
  533PYPI   GL1 8263  17.659   7.533  10.300  0.1676  0.0139  0.0669
  533PYPI   GL2 8264  17.531   7.331  10.015  0.1196  0.0709  0.1784
  533PYPI   C1A 8265  17.934   7.519   9.822 -0.0027  0.0290 -0.0383
  533PYPI   C2A 8266  17.882   7.322   9.441  0.1479 -0.2618  0.3336
  533PYPI   D3A 8267  17.842   7.055   9.092  0.1153 -0.1618 -0.2329
  533PYPI   C4A 8268  17.622   7.128   8.691 -0.1946  0.0358  0.0225
  533PYPI   C1B 8269  17.443   7.207   9.571  0.2542 -0.2702  0.0814
  533PYPI   C2B 8270  17.401   7.209   9.152  0.1524 -0.0971  0.0989
  533PYPI   C3B 8271  17.131   7.250   8.734 -0.0078  0.2126 -0.1098
  533PYPI   C4B 8272  16.888   7.176   8.332  0.3726 -0.0111  0.0647
  534PYPI    C1 8273   7.501  16.960  11.057  0.1637 -0.0830 -0.0486
  534PYPI    C2 8274   7.636  17.263  11.280 -0.0208  0.0745 -0.1473
  534PYPI    C3 8275   7.887  16.976  11.160  0.1573  0.1915 -0.0596
  534PYPI   PO4 8276   7.354  17.049  10.905  0.1781 -0.0016  0.2262
  534PYPI   GL1 8277   7.207  17.053  10.455 -0.0283 -0.0733 -0.2054
  534PYPI   GL2 8278   6.988  17.258  10.337  0.1077  0.0874 -0.0762
  534PYPI   C1A 8279   7.461  16.923  10.265  0.1681  0.0912 -0.1485
  534PYPI   C2A 8280   7.324  17.013   9.871 -0.0988 -0.2643  0.2805
  534PYPI   D3A 8281   7.118  16.870   9.590  0.0805 -0.1381  0.0596
  534PYPI   C4A 8282   7.081  17.190   9.295  0.0123  0.0118 -0.1513
  534PYPI   C1B 8283   6.902  17.264   9.844  0.0184 -0.2347 -0.0965
  534PYPI   C2B 8284   6.745  17.555   9.556  0.0635 -0.0808  0.2092
  534PYPI   C3B 8285   6.676  17.657   9.131 -0.0905 -0.1335  0.0263
  534PYPI   C4B 8286   6.554  17.568   8.683 -0.0780  0.2562  0.1009
  535PYPI    C1 8287  12.419   4.290  10.617 -0.0624  0.0997  0.1635
  535PYPI    C2 8288  12.315   4.013  10.886  0.0905 -0.0621  0.0586
  535PYPI    C3 8289  12.397   4.387  11.004 -0.1040 -0.0634  0.2027
  535PYPI   PO4 8290  12.223   4.237  10.383 -0.1017  0.1840  0.2737
  535PYPI   GL1 8291  12.068   4.061  10.107 -0.2186 -0.0241 -0.0199
  535PYPI   GL2 8292  11.766   4.077  10.026  0.0658 -0.1551 -0.2206
  535PYPI   C1A 8293  12.127   4.211   9.603 -0.1327  0.1497 -0.2261
  535PYPI   C2A 8294  12.363   4.490   9.417  0.0730  0.0912 -0.1777
  535PYPI   D3A 8295  12.768   4.752   9.410 -0.0942  0.0390  0.2219
  535PYPI   C4A 8296  12.797   4.872   8.965 -0.3187  0.2727  0.1456
  535PYPI   C1B 8297  11.635   4.336   9.659  0.1471  0.0408 -0.1206
  535PYPI   C2B 8298  11.561   4.291   9.266 -0.1481  0.4657  0.3464
  535PYPI   C3B 8299  11.557   4.251   8.857 -0.1180  0.1491 -0.1334
  535PYPI   C4B 8300  11.881   4.462   8.575  0.0338 -0.1591 -0.1305
  536PYPI    C1 8301   4.020  10.360  10.740 -0.0029  0.0212 -0.1543
  536PYPI    C2 8302   3.691  10.564  10.638 -0.0618  0.0262  0.0421
  536PYPI    C3 8303   3.843  10.600  11.007  0.1534  0.0159 -0.0441
  536PYPI   PO4 8304   4.211  10.387  10.562  0.2183 -0.0259 -0.1830
  536PYPI   GL1 8305   4.279  10.741  10.250 -0.0711  0.0555  0.1360
  536PYPI   GL2 8306   3.961  10.795  10.237 -0.2142  0.0798 -0.2521
  536PYPI   C1A 8307   4.503  10.677   9.856 -0.0473  0.2333 -0.2134
  536PYPI   C2A 8308   4.501  10.679   9.511 -0.0242 -0.2565 -0.1130
  536PYPI   D3A 8309   4.540  10.557   9.106 -0.1194  0.0129  0.1461
  536PYPI   C4A 8310   4.305  10.551   8.771 -0.3205  0.1570  0.0415
  536PYPI   C1B 8311   4.029  10.581   9.783  0.2155 -0.3080 -0.0371
  536PYPI   C2B 8312   4.076  10.507   9.355 -0.0338 -0.0006 -0.1425
  536PYPI   C3B 8313   3.968  10.363   9.003  0.1454  0.2356  0.0393
  536PYPI   C4B 8314   3.841  10.254   8.541 -0.2017 -0.1193 -0.1415
  537PYPI    C1 8315   6.144   5.499  10.562 -0.1774 -0.1834  0.0886
  537PYPI    C2 8316   6.484   5.290  10.593 -0.1065 -0.1020 -0.1247
  537PYPI    C3 8317   6.314   5.444  10.920  0.2398  0.1373 -0.0527
  537PYPI   PO4 8318   5.990   5.320  10.493 -0.1016 -0.0642 -0.4912
  537PYPI   GL1 8319   5.865   5.166  10.051  0.2061 -0.2190 -0.2633
  537PYPI   GL2 8320   6.199   5.241  10.051  0.0952 -0.1482  0.0578
  537PYPI   C1A 8321   5.829   5.173   9.618  0.1214  0.2465  0.0016
  537PYPI   C2A 8322   5.749   5.160   9.231  0.0922  0.1406 -0.1484
  537PYPI   D3A 8323   5.942   5.174   8.869 -0.0934  0.0201 -0.1666
  537PYPI   C4A 8324   5.831   4.907   8.458 -0.2802  0.0232  0.0451
  537PYPI   C1B 8325   6.304   5.327   9.703 -0.0653 -0.3983  0.3207
  537PYPI   C2B 8326   6.215   5.355   9.266 -0.1797  0.0430 -0.3042
  537PYPI   C3B 8327   6.198   5.727   9.102  0.0732 -0.0046 -0.5242
  537PYPI   C4B 8328   6.156   5.692   8.727  0.2899  0.0887 -0.1624
  538PYPI    C1 8329   5.054   7.949  11.151  0.0942 -0.0366 -0.1339
  538PYPI    C2 8330   5.277   7.701  11.372  0.0992 -0.0261 -0.1273
  538PYPI    C3 8331   5.431   8.048  11.245 -0.0133  0.1245  0.1390
  538PYPI   PO4 8332   4.980   7.718  10.931  0.0397 -0.0708 -0.0244
  538PYPI   GL1 8333   5.097   7.786  10.552  0.1240  0.1460  0.3971
  538PYPI   GL2 8334   5.338   7.602  10.472 -0.0971  0.1785 -0.0621
  538PYPI   C1A 8335   4.900   7.969  10.198 -0.1521 -0.1248  0.0829
  538PYPI   C2A 8336   4.872   7.861   9.759  0.1700  0.4921 -0.1299
  538PYPI   D3A 8337   4.834   7.805   9.265  0.1653  0.1211  0.1999
  538PYPI   C4A 8338   4.587   7.737   8.814  0.1947  0.2525 -0.0415
  538PYPI   C1B 8339   5.375   7.394  10.142  0.0254  0.2072  0.1605
  538PYPI   C2B 8340   5.381   7.446   9.684  0.1237  0.1269 -0.0064
  538PYPI   C3B 8341   5.354   7.502   9.273 -0.2470  0.2162 -0.0345
  538PYPI   C4B 8342   5.124   7.480   8.878 -0.0311 -0.0697  0.0841
  539PYPI    C1 8343  17.394  10.804  10.456  0.0337  0.4254 -0.1860
  539PYPI    C2 8344  17.697  11.045  10.356  0.0125  0.5196 -0.0261
  539PYPI    C3 8345  17.376  11.194  10.542 -0.1172  0.4139 -0.1632
  539PYPI   PO4 8346  17.280  10.717  10.200 -0.0263  0.1893 -0.1525
  539PYPI   GL1 8347  17.400  10.880   9.901  0.1911  0.2111 -0.1784
  539PYPI   GL2 8348  17.712  10.655   9.878 -0.0421 -0.0867  0.0275
  539PYPI   C1A 8349  17.394  11.207   9.627 -0.0105  0.0819  0.1947
  539PYPI   C2A 8350  17.225  11.532   9.455  0.0503 -0.4544 -0.4618
  539PYPI   D3A 8351  16.984  11.716   9.051  0.0982  0.0312 -0.0498
  539PYPI   C4A 8352  16.914  11.625   8.627  0.4469  0.2037 -0.0481
  539PYPI   C1B 8353  17.859  11.125   9.904  0.0598 -0.0788 -0.5446
  539PYPI   C2B 8354  18.138  11.333   9.635  0.1358 -0.1026 -0.3120
  539PYPI   C3B 8355  18.454  11.391   9.338 -0.1832  0.0735  0.1303
  539PYPI   C4B 8356  18.560  11.535   8.932 -0.0846 -0.2483 -0.0032
  540ERGO   ROH 8357  10.332   1.718  10.152 -0.1411  0.2036 -0.1855
  540ERGO    R1 8358  10.417   1.665   9.887 -0.1789  0.2027 -0.1970
  540ERGO    R2 8359  10.359   1.428   9.757 -0.0694  0.1422 -0.1333
  540ERGO    R3 8360  10.257   1.594   9.568 -0.2207  0.0422 -0.1423
  540ERGO    R4 8361  10.261   1.330   9.440  0.0013  0.0300 -0.1215
  540ERGO    R5 8362  10.349   1.514   9.362 -0.1574  0.1028 -0.1399
  540ERGO    C1 8363  10.109   1.430   9.078 -0.0995 -0.1292 -0.1232
  540ERGO    C2 8364   9.966   1.392   8.737  0.0646 -0.0456  0.1541
  541ERGO   ROH 8365  10.577   5.483   9.822  0.0591 -0.1081  0.0459
  541ERGO    R1 8366  10.609   5.542   9.547 -0.0305 -0.0033  0.0572
  541ERGO    R2 8367  10.611   5.347   9.353  0.0180  0.0600 -0.0068
  541ERGO    R3 8368  10.414   5.499   9.243 -0.0793  0.0035  0.0875
  541ERGO    R4 8369  10.454   5.280   9.052 -0.0580  0.0547  0.0337
  541ERGO    R5 8370  10.459   5.494   9.008 -0.1568  0.0649  0.0710
  541ERGO    C1 8371  10.178   5.384   8.774 -0.1936 -0.0014  0.1459
  541ERGO    C2 8372  10.012   5.289   8.502  0.3223  0.0941 -0.1499
  542ERGO   ROH 8373  13.856  11.771  10.057  0.1785 -0.1105  0.0197
  542ERGO    R1 8374  13.786  11.756   9.783  0.1582  0.1101  0.0113
  542ERGO    R2 8375  13.829  11.965   9.607  0.4103  0.1501  0.1147
  542ERGO    R3 8376  13.960  11.775   9.464  0.1820  0.0582  0.0216
  542ERGO    R4 8377  13.821  11.937   9.263  0.3515  0.3054  0.1026
  542ERGO    R5 8378  13.810  11.720   9.286  0.1045  0.3065  0.0088
  542ERGO    C1 8379  13.939  11.743   8.928  0.1030  0.3097  0.0083
  542ERGO    C2 8380  13.928  11.782   8.591  0.0154  0.2277 -0.0172
  543ERGO   ROH 8381   7.431  17.461  10.146 -0.2255  0.4256  0.0575
  543ERGO    R1 8382   7.382  17.607   9.908 -0.0889  0.2513 -0.0793
  543ERGO    R2 8383   7.529  17.567   9.677 -0.0387 -0.0076 -0.0037
  543ERGO    R3 8384   7.283  17.529   9.567 -0.0227  0.0142 -0.0478
  543ERGO    R4 8385   7.454  17.608   9.342  0.0493 -0.0765 -0.0322
  543ERGO    R5 8386   7.266  17.701   9.400  0.0524 -0.0215 -0.0963
  543ERGO    C1 8387   7.181  17.597   9.043  0.1157 -0.0962 -0.0901
  543ERGO    C2 8388   7.045  17.494   8.799  0.0866 -0.2632 -0.0971
  544ERGO   ROH 8389   1.367   0.569  10.159 -0.0359  0.1651  0.0676
  544ERGO    R1 8390   1.478   0.740   9.963 -0.0417  0.1259  0.0291
  544ERGO    R2 8391   1.549   0.652   9.710  0.0062  0.0614  0.0618
  544ERGO    R3 8392   1.387   0.855   9.630 -0.0219  0.0075 -0.0166
  544ERGO    R4 8393   1.511   0.758   9.383 -0.0454 -0.0946  0.0168
  544ERGO    R5 8394   1.509   0.963   9.455 -0.0563 -0.0631 -0.0820
  544ERGO    C1 8395   1.337   1.010   9.117 -0.1017 -0.2359 -0.0829
  544ERGO    C2 8396   1.285   1.040   8.815 -0.0634  0.2480  0.0801
  545ERGO   ROH 8397   0.696   1.657  10.015  0.1428  0.1070 -0.0288
  545ERGO    R1 8398   0.660   1.610   9.738 -0.0685  0.1904 -0.0181
  545ERGO    R2 8399   0.557   1.801   9.567  0.0715  0.3484  0.0657
  545ERGO    R3 8400   0.785   1.753   9.427 -0.0589  0.0830 -0.0630
  545ERGO    R4 8401   0.611   1.893   9.238 -0.0517  0.1499 -0.0116
  545ERGO    R5 8402   0.710   1.702   9.206 -0.2433  0.0488  0.0084
  545ERGO    C1 8403   0.857   1.902   8.916 -0.2459 -0.2149 -0.1775
  545ERGO    C2 8404   0.822   2.049   8.638  0.1922  0.2787 -0.0119
  546ERGO   ROH 8405  12.200  14.111  10.046 -0.2248 -0.1296  0.1331
  546ERGO    R1 8406  12.159  13.918   9.844 -0.2971 -0.1165  0.1368
  546ERGO    R2 8407  11.915  13.883   9.718 -0.2139  0.2295 -0.1201
  546ERGO    R3 8408  12.062  13.919   9.493  0.0906 -0.0537  0.0236
  546ERGO    R4 8409  11.875  13.705   9.425 -0.3105  0.3213 -0.1646
  546ERGO    R5 8410  12.092  13.699   9.405 -0.2827 -0.1260  0.0472
  546ERGO    C1 8411  11.990  13.634   9.043 -0.0809  0.1089 -0.0557
  546ERGO    C2 8412  11.738  13.642   8.740 -0.0163  0.1467 -0.2694
  547ERGO   ROH 8413   6.768   3.331  10.047 -0.1309  0.0256 -0.2618
  547ERGO    R1 8414   6.794   3.436   9.785 -0.0076  0.0231 -0.2511
  547ERGO    R2 8415   7.018   3.395   9.630  0.0205 -0.0655 -0.1834
  547ERGO    R3 8416   6.837   3.302   9.449  0.0382  0.0174 -0.2437
  547ERGO    R4 8417   7.023   3.465   9.291  0.0271  0.1414 -0.1417
  547ERGO    R5 8418   6.806   3.485   9.297  0.0211  0.1089 -0.1353
  547ERGO    C1 8419   6.855   3.419   8.925  0.0475  0.3398 -0.1740
  547ERGO    C2 8420   6.857   3.498   8.497 -0.2361 -0.1360  0.3922
  548ERGO   ROH 8421   2.085  16.608  10.441 -0.1321  0.1980  0.1488
  548ERGO    R1 8422   2.007  16.596  10.170 -0.1924  0.1166  0.1697
  548ERGO    R2 8423   1.936  16.820  10.025 -0.1139  0.0879  0.0867
  548ERGO    R3 8424   2.127  16.730   9.854 -0.1909 -0.0783  0.0858
  548ERGO    R4 8425   1.975  16.928   9.699  0.1245  0.2297  0.1593
  548ERGO    R5 8426   2.017  16.722   9.641 -0.1482  0.2022  0.0491
  548ERGO    C1 8427   2.177  16.907   9.348  0.1911  0.1564  0.2006
  548ERGO    C2 8428   2.281  17.000   9.030  0.1721 -0.0121  0.0712
  549ERGO   ROH 8429   3.765  17.827  10.486  0.0668  0.0628 -0.0110
  549ERGO    R1 8430   3.984  17.933  10.342  0.0960 -0.0312 -0.0353
  549ERGO    R2 8431   4.215  17.788  10.294 -0.0007 -0.1537 -0.1211
  549ERGO    R3 8432   4.163  17.852  10.035 -0.0189 -0.0618 -0.0957
  549ERGO    R4 8433   4.440  17.756  10.033  0.0092  0.0032 -0.1331
  549ERGO    R5 8434   4.368  17.946   9.954 -0.0385  0.0209 -0.0573
  549ERGO    C1 8435   4.521  17.798   9.638 -0.0022  0.1807 -0.1161
  549ERGO    C2 8436   4.521  17.906   9.285  0.0040 -0.5441 -0.0296
  550ERGO   ROH 8437  15.501   6.346   9.989  0.0141  0.1584  0.0014
  550ERGO    R1 8438  15.424   6.299   9.721  0.0747  0.1111 -0.0077
  550ERGO    R2 8439  15.175   6.366   9.624  0.0560 -0.0132 -0.0449
  550ERGO    R3 8440  15.319   6.500   9.436  0.0174  0.0499 -0.0302
  550ERGO    R4 8441  15.040   6.530   9.351 -0.0088  0.1550  0.0856
  550ERGO    R5 8442  15.206   6.454   9.230 -0.0682  0.1785 -0.0133
  550ERGO    C1 8443  15.098   6.750   9.016 -0.0826  0.3122  0.1753
  550ERGO    C2 8444  15.048   7.186   8.908  0.4226 -0.0317  0.1834
  551ERGO   ROH 8445   6.187   9.742  10.000  0.1945  0.1931  0.0383
  551ERGO    R1 8446   6.135   9.826   9.735  0.0820  0.0540  0.0154
  551ERGO    R2 8447   6.336   9.861   9.548  0.0275  0.1890 -0.0166
  551ERGO    R3 8448   6.184   9.691   9.401  0.1780 -0.0107  0.0546
  551ERGO    R4 8449   6.363   9.816   9.206 -0.0353  0.1881 -0.0218
  551ERGO    R5 8450   6.146   9.807   9.195 -0.0327 -0.0735  0.0546
  551ERGO    C1 8451   6.236   9.630   8.869  0.0693  0.0001  0.0421
  551ERGO    C2 8452   6.104   9.563   8.543 -0.0338 -0.4137  0.2200
  552ERGO   ROH 8453   7.841  16.626  10.088  0.2402  0.0253  0.0803
  552ERGO    R1 8454   7.787  16.508   9.837  0.0021  0.0330  0.1257
  552ERGO    R2 8455   7.589  16.602   9.668  0.0309  0.2172  0.1954
  552ERGO    R3 8456   7.793  16.615   9.488 -0.0310 -0.0427  0.1012
  552ERGO    R4 8457   7.550  16.594   9.325 -0.1531  0.3727  0.2104
  552ERGO    R5 8458   7.727  16.466   9.313 -0.3474  0.1026  0.0881
  552ERGO    C1 8459   7.719  16.601   8.956 -0.3184  0.2193  0.1308
  552ERGO    C2 8460   7.759  16.562   8.626 -0.0435 -0.2054 -0.0879
  553ERGO   ROH 8461   4.048  16.858  10.197  0.0044  0.0594  0.0773
  553ERGO    R1 8462   3.925  16.845   9.942  0.0641 -0.1176  0.0556
  553ERGO    R2 8463   3.860  17.070   9.796 -0.3017 -0.1992  0.0740
  553ERGO    R3 8464   4.008  16.948   9.603 -0.0534  0.0729  0.0856
  553ERGO    R4 8465   3.832  17.130   9.457 -0.2846 -0.1672  0.0785
  553ERGO    R5 8466   3.855  16.917   9.422  0.0541 -0.1215  0.0326
  553ERGO    C1 8467   3.954  17.050   9.078 -0.0415  0.1066  0.0922
  553ERGO    C2 8468   4.103  17.204   8.814 -0.0396  0.4294 -0.1361
  554ERGO   ROH 8469   5.221  14.766  10.178 -0.1220  0.2110  0.1148
  554ERGO    R1 8470   5.325  14.791   9.916 -0.0132  0.1464  0.1516
  554ERGO    R2 8471   5.193  14.696   9.693  0.1777 -0.0998  0.1385
  554ERGO    R3 8472   5.224  14.952   9.606  0.0012 -0.1210  0.0062
  554ERGO    R4 8473   5.220  14.790   9.362  0.1302 -0.2481  0.0915
  554ERGO    R5 8474   5.373  14.933   9.420  0.0246 -0.1090  0.0255
  554ERGO    C1 8475   5.265  15.084   9.087 -0.0630 -0.3542 -0.0603
  554ERGO    C2 8476   5.145  15.228   8.806  0.2287  0.2867 -0.0729
  555ERGO   ROH 8477   4.588  17.551  10.452  0.1734 -0.2205  0.0762
  555ERGO    R1 8478   4.773  17.478  10.250  0.2177 -0.0088  0.0386
  555ERGO    R2 8479   4.707  17.308  10.042  0.4004 -0.1770  0.1184
  555ERGO    R3 8480   4.797  17.514   9.889  0.0428 -0.0880  0.0169
  555ERGO    R4 8481   4.739  17.300   9.698  0.2570 -0.2375  0.1056
  555ERGO    R5 8482   4.926  17.408   9.717  0.1192  0.0387 -0.0086
  555ERGO    C1 8483   4.842  17.488   9.354 -0.1622 -0.1890  0.0028
  555ERGO    C2 8484   4.876  17.623   9.046  0.1121 -0.1012  0.2074
  556ERGO   ROH 8485  10.521   0.413   9.973 -0.0893  0.1518  0.0274
  556ERGO    R1 8486  10.475   0.344   9.702 -0.0923  0.0818  0.0453
  556ERGO    R2 8487  10.442   0.533   9.504 -0.0769  0.0312 -0.0074
  556ERGO    R3 8488  10.643   0.396   9.383 -0.0857 -0.0166  0.0328
  556ERGO    R4 8489  10.507   0.536   9.164  0.0027  0.0275  0.0079
  556ERGO    R5 8490  10.548   0.322   9.176 -0.0565  0.0170  0.0084
  556ERGO    C1 8491  10.734   0.409   8.854  0.0407 -0.0195  0.0545
  556ERGO    C2 8492  10.959   0.601   8.677 -0.1441 -0.0158 -0.1178
  557ERGO   ROH 8493  17.924   3.010   9.803 -0.0212 -0.1046  0.0470
  557ERGO    R1 8494  18.037   2.827   9.619 -0.2308 -0.1143 -0.0750
  557ERGO    R2 8495  17.910   2.756   9.383 -0.2568  0.2887 -0.1904
  557ERGO    R3 8496  18.146   2.834   9.272 -0.0908  0.0358 -0.0290
  557ERGO    R4 8497  18.016   2.670   9.066 -0.1113  0.1473 -0.1055
  557ERGO    R5 8498  18.217   2.644   9.145 -0.1934 -0.0529  0.0444
  557ERGO    C1 8499  18.298   2.694   8.776  0.1291 -0.1725  0.0954
  557ERGO    C2 8500  18.365   2.775   8.475 -0.4892  0.1794 -0.0385
  558ERGO   ROH 8501  11.507   6.112   9.998 -0.3800  0.2877  0.1182
  558ERGO    R1 8502  11.654   6.229   9.787 -0.2993  0.1511  0.0956
  558ERGO    R2 8503  11.642   6.137   9.527 -0.3437  0.0956  0.1090
  558ERGO    R3 8504  11.579   6.395   9.472 -0.1919  0.1207  0.0562
  558ERGO    R4 8505  11.617   6.270   9.209 -0.2823  0.0554  0.0883
  558ERGO    R5 8506  11.715   6.450   9.283 -0.1751  0.0064  0.0421
  558ERGO    C1 8507  11.543   6.590   8.972 -0.1042  0.0555  0.0267
  558ERGO    C2 8508  11.500   6.750   8.608 -0.2118 -0.1213 -0.1490
  559ERGO   ROH 8509   7.266   7.090  10.366  0.0675  0.2233  0.0995
  559ERGO    R1 8510   7.015   7.062  10.237  0.0607  0.0932  0.1396
  559ERGO    R2 8511   6.899   7.267  10.092 -0.0798  0.0405  0.1789
  559ERGO    R3 8512   6.890   7.080   9.895 -0.0086  0.0542  0.1622
  559ERGO    R4 8513   6.767   7.319   9.777 -0.3596 -0.0606  0.2764
  559ERGO    R5 8514   6.680   7.119   9.786 -0.1328 -0.1623  0.3136
  559ERGO    C1 8515   6.682   7.173   9.409 -0.4557 -0.1066  0.3175
  559ERGO    C2 8516   6.698   7.318   9.073  0.2484 -0.0863  0.1431
  560ERGO   ROH 8517   8.241   7.115  10.280 -0.0363  0.0717  0.0424
  560ERGO    R1 8518   8.030   7.112  10.091 -0.0182 -0.0132  0.0238
  560ERGO    R2 8519   7.939   7.340   9.966 -0.1470 -0.0401  0.0705
  560ERGO    R3 8520   7.988   7.198   9.740 -0.0413  0.0434  0.0398
  560ERGO    R4 8521   7.934   7.471   9.646  0.1329  0.1115  0.1251
  560ERGO    R5 8522   7.836   7.288   9.578  0.1073  0.1788 -0.0294
  560ERGO    C1 8523   7.978   7.413   9.247  0.3951  0.2781  0.1281
  560ERGO    C2 8524   7.943   7.426   8.994 -0.0562 -0.0978  0.1928
  561ERGO   ROH 8525   9.532   7.047  10.037  0.3249  0.1909 -0.0400
  561ERGO    R1 8526   9.496   7.194   9.798 -0.0321  0.1961  0.0101
  561ERGO    R2 8527   9.622   7.126   9.561  0.0370  0.5048 -0.0514
  561ERGO    R3 8528   9.368   7.128   9.464 -0.0057  0.0378  0.0321
  561ERGO    R4 8529   9.537   7.116   9.226 -0.0743  0.2231 -0.0165
  561ERGO    R5 8530   9.381   7.261   9.266 -0.3043 -0.0241 -0.0275
  561ERGO    C1 8531   9.250   7.111   8.940 -0.1792 -0.3793  0.0824
  561ERGO    C2 8532   9.034   7.058   8.726 -0.0965  0.5063 -0.0584
  562ERGO   ROH 8533   7.005  15.414  10.315 -0.0403 -0.0407 -0.1334
  562ERGO    R1 8534   7.146  15.496  10.083  0.0152 -0.0082 -0.0893
  562ERGO    R2 8535   7.190  15.328   9.869  0.1446 -0.0077 -0.0680
  562ERGO    R3 8536   7.073  15.529   9.728  0.1268 -0.0517 -0.1154
  562ERGO    R4 8537   7.272  15.415   9.544 -0.0353 -0.2275 -0.1746
  562ERGO    R5 8538   7.253  15.624   9.601  0.0761 -0.1891 -0.2894
  562ERGO    C1 8539   7.210  15.654   9.223 -0.1568 -0.3967 -0.2811
  562ERGO    C2 8540   7.012  15.750   8.926 -0.1450 -0.2089 -0.2593
  563ERGO   ROH 8541  15.719  17.243  10.140 -0.0933 -0.0072 -0.0754
  563ERGO    R1 8542  15.703  17.113   9.889 -0.1748 -0.0360 -0.0564
  563ERGO    R2 8543  15.470  17.104   9.740 -0.2061  0.0131 -0.0181
  563ERGO    R3 8544  15.630  17.207   9.546 -0.2056 -0.0571 -0.0543
  563ERGO    R4 8545  15.409  17.082   9.401 -0.3083  0.0789 -0.0037
  563ERGO    R5 8546  15.621  17.046   9.369 -0.3403 -0.0325 -0.0667
  563ERGO    C1 8547  15.523  17.167   9.021 -0.3673  0.0513 -0.0294
  563ERGO    C2 8548  15.619  17.097   8.647  0.1293  0.0228 -0.0363
  564ERGO   ROH 8549  14.270   1.894   9.872 -0.0299 -0.1632  0.0954
  564ERGO    R1 8550  14.354   1.814   9.613 -0.0297 -0.0438  0.0578
  564ERGO    R2 8551  14.182   1.810   9.396 -0.0751 -0.1127  0.0930
  564ERGO    R3 8552  14.373   1.967   9.284 -0.2091  0.0495  0.0894
  564ERGO    R4 8553  14.279   1.796   9.065  0.0609 -0.1593  0.1344
  564ERGO    R5 8554  14.486   1.822   9.129  0.0096  0.1023  0.1971
  564ERGO    C1 8555  14.515   1.935   8.766  0.0144 -0.0340  0.1551
  564ERGO    C2 8556  14.402   2.016   8.513 -0.1484 -0.0544 -0.2119
  565ERGO   ROH 8557  15.508   1.156  10.193 -0.0151 -0.0345 -0.0018
  565ERGO    R1 8558  15.645   1.088   9.955  0.0358 -0.0686  0.0368
  565ERGO    R2 8559  15.555   0.890   9.784  0.0331 -0.0450  0.0079
  565ERGO    R3 8560  15.572   1.088   9.599  0.1378 -0.0464  0.0162
  565ERGO    R4 8561  15.567   0.841   9.442  0.1258 -0.0400  0.0104
  565ERGO    R5 8562  15.716   0.999   9.429  0.1673 -0.0769  0.0586
  565ERGO    C1 8563  15.589   0.998   9.069  0.2781 -0.0384  0.0197
  565ERGO    C2 8564  15.584   1.112   8.744 -0.2873  0.0218  0.0715
  566ERGO   ROH 8565   7.835   1.899   9.999 -0.0040 -0.2070 -0.0376
  566ERGO    R1 8566   7.884   1.955   9.726 -0.0406 -0.1296 -0.0281
  566ERGO    R2 8567   7.947   1.758   9.543 -0.0685 -0.0770 -0.0917
  566ERGO    R3 8568   7.737   1.863   9.406 -0.0848 -0.0352 -0.0358
  566ERGO    R4 8569   7.902   1.734   9.201 -0.1445 -0.0390 -0.0850
  566ERGO    R5 8570   7.832   1.941   9.200 -0.1173 -0.0280 -0.0496
  566ERGO    C1 8571   7.679   1.818   8.873 -0.2041  0.0223 -0.0286
  566ERGO    C2 8572   7.586   1.661   8.638 -0.0305 -0.0421  0.2621
  567ERGO   ROH 8573  14.750   5.044   9.773 -0.0895  0.1959  0.0198
  567ERGO    R1 8574  14.606   5.179   9.571 -0.0734  0.0640 -0.0811
  567ERGO    R2 8575  14.679   5.168   9.304  0.0275 -0.0005 -0.0538
  567ERGO    R3 8576  14.422   5.085   9.271  0.0742 -0.1208 -0.1152
  567ERGO    R4 8577  14.501   5.187   9.008 -0.0282  0.2467 -0.0058
  567ERGO    R5 8578  14.326   5.246   9.123 -0.0483 -0.0005  0.0932
  567ERGO    C1 8579  14.157   5.121   8.805 -0.0167  0.2776 -0.0356
  567ERGO    C2 8580  14.244   5.202   8.450  0.2946 -0.0920  0.1385
  568ERGO   ROH 8581   9.063  14.938  10.370 -0.0162 -0.0540  0.0278
  568ERGO    R1 8582   9.024  14.948  10.089 -0.0144  0.2386  0.0348
  568ERGO    R2 8583   9.173  15.112   9.924  0.2786  0.1097  0.1592
  568ERGO    R3 8584   9.224  14.880   9.793 -0.1448  0.1133 -0.0241
  568ERGO    R4 8585   9.227  15.086   9.584  0.1071  0.2503  0.1197
  568ERGO    R5 8586   9.108  14.903   9.584 -0.1873  0.4404  0.0340
  568ERGO    C1 8587   9.306  14.852   9.262 -0.3901  0.3355 -0.0753
  568ERGO    C2 8588   9.604  14.913   9.137  0.3055 -0.0031  0.0405
  569ERGO   ROH 8589   9.190   2.253  10.089 -0.0625 -0.0744 -0.0187
  569ERGO    R1 8590   9.168   2.371   9.833 -0.1456  0.0137  0.0275
  569ERGO    R2 8591   9.388   2.429   9.676 -0.1823  0.2205  0.0405
  569ERGO    R3 8592   9.254   2.281   9.491 -0.0924  0.2026 -0.0090
  569ERGO    R4 8593   9.431   2.454   9.334 -0.1827  0.3380  0.0495
  569ERGO    R5 8594   9.215   2.432   9.310 -0.1659  0.2290  0.0330
  569ERGO    C1 8595   9.331   2.329   8.962 -0.0985  0.3896  0.0084
  569ERGO    C2 8596   9.522   2.315   8.642 -0.3421  0.0800 -0.0532
  570ERGO   ROH 8597   2.791  11.752  10.363 -0.1022  0.1838 -0.0496
  570ERGO    R1 8598   2.763  11.775  10.082 -0.0257  0.1279 -0.0623
  570ERGO    R2 8599   2.957  11.890   9.922 -0.0134  0.1601 -0.0235
  570ERGO    R3 8600   2.940  11.654   9.788  0.0991  0.1323  0.0100
  570ERGO    R4 8601   3.025  11.850   9.586 -0.0952  0.1683 -0.0411
  570ERGO    R5 8602   2.854  11.715   9.573 -0.0118  0.0518  0.0303
  570ERGO    C1 8603   3.048  11.605   9.263 -0.0373  0.1470 -0.0197
  570ERGO    C2 8604   3.172  11.582   8.852 -0.1170 -0.2468 -0.2309
  571ERGO   ROH 8605  13.223   8.282   9.779  0.1867  0.1406  0.1164
  571ERGO    R1 8606  13.145   8.376   9.524  0.0484  0.1056  0.1451
  571ERGO    R2 8607  13.299   8.552   9.376 -0.0930  0.1875  0.0934
  571ERGO    R3 8608  13.277   8.360   9.185 -0.0626  0.1790  0.0980
  571ERGO    R4 8609  13.434   8.573   9.059 -0.1573  0.2316  0.0689
  571ERGO    R5 8610  13.251   8.483   8.981 -0.1408  0.1698  0.1019
  571ERGO    C1 8611  13.491   8.406   8.694 -0.1662  0.2494  0.0588
  571ERGO    C2 8612  13.613   8.173   8.493  0.1456 -0.2291 -0.1657
  572ERGO   ROH 8613  13.453   1.088   9.920  0.0308  0.1068 -0.0938
  572ERGO    R1 8614  13.575   1.140   9.670  0.1649  0.0264 -0.0460
  572ERGO    R2 8615  13.754   0.964   9.552 -0.0192 -0.1654 -0.0447
  572ERGO    R3 8616  13.582   0.982   9.342  0.0574  0.1077 -0.0880
  572ERGO    R4 8617  13.835   0.892   9.224 -0.0328 -0.2310 -0.0338
  572ERGO    R5 8618  13.717   1.064   9.162  0.2231 -0.0524 -0.0405
  572ERGO    C1 8619  13.721   0.867   8.836  0.0311 -0.0128 -0.0682
  572ERGO    C2 8620  13.852   0.816   8.536 -0.1619  0.1125 -0.1116
  573ERGO   ROH 8621   9.390  17.880   9.994 -0.0365  0.1226  0.0150
  573ERGO    R1 8622   9.250  17.976   9.767 -0.2045  0.0916  0.1044
  573ERGO    R2 8623   9.291  17.877   9.513 -0.0185  0.4024  0.0086
  573ERGO    R3 8624   9.022  17.838   9.519  0.0407 -0.0819 -0.0285
  573ERGO    R4 8625   9.096  17.810   9.236  0.0978  0.3947 -0.0724
  573ERGO    R5 8626   8.943  17.943   9.318 -0.1432  0.0315  0.0985
  573ERGO    C1 8627   8.729  17.735   9.081  0.2210 -0.0645 -0.1546
  573ERGO    C2 8628   8.706  17.644   8.775 -0.4199 -0.2643  0.2509
  574ERGO   ROH 8629   8.389  10.863  10.166 -0.0848  0.2647 -0.0219
  574ERGO    R1 8630   8.490  10.952   9.917  0.0642  0.1378 -0.0081
  574ERGO    R2 8631   8.651  10.795   9.757 -0.0972 -0.0608  0.0228
  574ERGO    R3 8632   8.463  10.851   9.568 -0.0007  0.1610 -0.0106
  574ERGO    R4 8633   8.691  10.744   9.417 -0.0788 -0.0771  0.0274
  574ERGO    R5 8634   8.589  10.933   9.382  0.1326  0.0416  0.0219
  574ERGO    C1 8635   8.537  10.767   9.043  0.0227  0.1218 -0.0012
  574ERGO    C2 8636   8.688  10.626   8.663  0.0390  0.0790  0.1804
  575ERGO   ROH 8637   0.284   3.132  10.115 -0.0331 -0.1838 -0.0001
  575ERGO    R1 8638   0.264   3.286   9.878 -0.2600 -0.1225  0.0559
  575ERGO    R2 8639   0.471   3.305   9.695 -0.2760  0.2643  0.0716
  575ERGO    R3 8640   0.280   3.224   9.520 -0.1456  0.0329  0.0320
  575ERGO    R4 8641   0.498   3.321   9.351 -0.2322  0.3283  0.0778
  575ERGO    R5 8642   0.290   3.384   9.343 -0.3162  0.0650  0.0473
  575ERGO    C1 8643   0.334   3.254   8.986 -0.0844  0.1482  0.0440
  575ERGO    C2 8644   0.415   3.203   8.712 -0.1929 -0.2826  0.0437
  576ERGO   ROH 8645   6.676  16.649  10.669 -0.1716 -0.0085 -0.0438
  576ERGO    R1 8646   6.541  16.522  10.455 -0.0910  0.0331 -0.1199
  576ERGO    R2 8647   6.277  16.574  10.394 -0.0771  0.0258 -0.1941
  576ERGO    R3 8648   6.378  16.627  10.147  0.0013  0.0966 -0.1470
  576ERGO    R4 8649   6.101  16.722  10.135  0.0330  0.1700 -0.1874
  576ERGO    R5 8650   6.196  16.583   9.998  0.0334  0.2015 -0.2144
  576ERGO    C1 8651   6.094  16.857   9.753  0.1707  0.3206 -0.1396
  576ERGO    C2 8652   6.167  16.974   9.356  0.0528  0.1282 -0.1993
  577ERGO   ROH 8653   4.386  15.819  10.328 -0.1877 -0.2415  0.0059
  577ERGO    R1 8654   4.392  15.930  10.068 -0.0235 -0.1425  0.0502
  577ERGO    R2 8655   4.573  15.850   9.876 -0.0428 -0.2261  0.0667
  577ERGO    R3 8656   4.350  15.809   9.727 -0.0428  0.0277 -0.0093
  577ERGO    R4 8657   4.569  15.811   9.533  0.0363 -0.2664  0.0701
  577ERGO    R5 8658   4.388  15.933   9.526  0.1842 -0.0435 -0.0129
  577ERGO    C1 8659   4.357  15.749   9.193  0.0823 -0.0514  0.0007
  577ERGO    C2 8660   4.300  15.801   8.837 -0.1085 -0.0068  0.0160
  578ERGO   ROH 8661  14.624   7.758   9.983 -0.3086 -0.0456 -0.0717
  578ERGO    R1 8662  14.553   7.713   9.713 -0.2619  0.1267 -0.1156
  578ERGO    R2 8663  14.596   7.900   9.513  0.0012  0.1616 -0.0382
  578ERGO    R3 8664  14.725   7.694   9.393 -0.1648  0.0690 -0.0584
  578ERGO    R4 8665  14.653   7.874   9.174 -0.0378  0.1292 -0.0412
  578ERGO    R5 8666  14.608   7.662   9.187 -0.1985  0.1672 -0.0504
  578ERGO    C1 8667  14.808   7.666   8.863 -0.2163  0.0234 -0.0618
  578ERGO    C2 8668  14.745   7.473   8.615  0.3361  0.0771  0.1930
  579ERGO   ROH 8669  11.755   5.786  10.289 -0.0279  0.1606  0.0495
  579ERGO    R1 8670  11.817   5.670  10.039 -0.0221  0.1228  0.0677
  579ERGO    R2 8671  11.625   5.560   9.873 -0.0224  0.1143  0.0687
  579ERGO    R3 8672  11.732   5.731   9.690  0.0011  0.0849  0.0561
  579ERGO    R4 8673  11.523   5.587   9.544  0.1295 -0.0456  0.0077
  579ERGO    R5 8674  11.732   5.607   9.486  0.1480  0.0105  0.1026
  579ERGO    C1 8675  11.564   5.763   9.181  0.2401 -0.1664 -0.0396
  579ERGO    C2 8676  11.492   5.819   8.924 -0.0978 -0.0409  0.4112
  580ERGO   ROH 8677  13.410   0.059   9.946 -0.1499  0.0516  0.0218
  580ERGO    R1 8678  13.345   0.133   9.680 -0.4752 -0.0049  0.0819
  580ERGO    R2 8679  13.505   0.069   9.464 -0.2737  0.6804  0.0010
  580ERGO    R3 8680  13.275  -0.039   9.368  0.0543 -0.0829 -0.0037
  580ERGO    R4 8681  13.442  -0.002   9.131 -0.0851  0.5826 -0.0149
  580ERGO    R5 8682  13.239   0.070   9.159 -0.3541 -0.1122  0.0426
  580ERGO    C1 8683  13.190  -0.145   8.848  0.3324 -0.1909 -0.0288
  580ERGO    C2 8684  13.293  -0.221   8.450  0.0033  0.1259 -0.2449
  581ERGO   ROH 8685   0.082  14.651   9.852  0.1028  0.1467  0.0332
  581ERGO    R1 8686  -0.033  14.602   9.598  0.0543  0.0421  0.0750
  581ERGO    R2 8687  -0.021  14.784   9.391 -0.0424 -0.0153  0.0172
  581ERGO    R3 8688   0.085  14.574   9.255 -0.0210 -0.0286  0.0549
  581ERGO    R4 8689  -0.016  14.754   9.047 -0.0156 -0.0673  0.0221
  581ERGO    R5 8690  -0.063  14.542   9.070 -0.0046 -0.0652  0.0493
  581ERGO    C1 8691   0.086  14.539   8.719  0.0200 -0.1100  0.0603
  581ERGO    C2 8692   0.124  14.640   8.362  0.1366 -0.2686 -0.2134
  582ERGO   ROH 8693   6.025  11.736  10.199  0.1399  0.1601  0.0178
  582ERGO    R1 8694   6.093  11.642   9.941  0.1677  0.1382  0.0320
  582ERGO    R2 8695   5.930  11.680   9.721  0.0927 -0.0585  0.0468
  582ERGO    R3 8696   6.154  11.789   9.614 -0.0143  0.0944 -0.0216
  582ERGO    R4 8697   5.996  11.704   9.382  0.0635 -0.1853  0.0324
  582ERGO    R5 8698   6.204  11.652   9.424  0.1124  0.0359  0.0563
  582ERGO    C1 8699   6.246  11.821   9.085 -0.0539 -0.1156 -0.0402
  582ERGO    C2 8700   6.274  11.947   8.720 -0.1570 -0.0819  0.0223
  583ERGO   ROH 8701   9.975  10.471  10.407 -0.1486  0.1122  0.0316
  583ERGO    R1 8702  10.070  10.407  10.148 -0.1637  0.1079  0.0281
  583ERGO    R2 8703  10.033  10.158  10.034 -0.1582  0.1053  0.0414
  583ERGO    R3 8704   9.923  10.302   9.832 -0.1779  0.0888  0.0398
  583ERGO    R4 8705  10.049  10.073   9.699  0.0484  0.2134  0.0224
  583ERGO    R5 8706  10.081  10.284   9.653 -0.0833  0.2554  0.1005
  583ERGO    C1 8707   9.956  10.160   9.315  0.1503  0.2607  0.0097
  583ERGO    C2 8708   9.887  10.264   8.997 -0.1058  0.2104 -0.1167
  584ERGO   ROH 8709  14.983   4.746  10.063  0.1776  0.1514 -0.1618
  584ERGO    R1 8710  15.058   4.685   9.797  0.1330  0.1534 -0.1736
  584ERGO    R2 8711  14.873   4.643   9.596  0.1019  0.1274 -0.1322
  584ERGO    R3 8712  15.014   4.837   9.469  0.0544  0.1383 -0.1719
  584ERGO    R4 8713  14.808   4.758   9.277 -0.1704  0.3075 -0.0175
  584ERGO    R5 8714  15.023   4.765   9.241 -0.1946  0.2426 -0.2217
  584ERGO    C1 8715  14.903   5.007   8.972 -0.3735  0.4225  0.0121
  584ERGO    C2 8716  14.813   5.084   8.577 -0.0463 -0.0623 -0.2717
  585ERGO   ROH 8717  16.278  10.910   9.797  0.2033  0.1260  0.0345
  585ERGO    R1 8718  16.367  10.992   9.541  0.1656  0.1073  0.0150
  585ERGO    R2 8719  16.561  10.855   9.400  0.1542  0.1041  0.0013
  585ERGO    R3 8720  16.372  10.852   9.205  0.1282  0.0767  0.0271
  585ERGO    R4 8721  16.622  10.789   9.066  0.1164  0.0917 -0.0029
  585ERGO    R5 8722  16.481  10.947   9.014  0.0950  0.0764  0.0076
  585ERGO    C1 8723  16.479  10.748   8.689  0.0702  0.0589  0.0190
  585ERGO    C2 8724  16.460  10.675   8.405  0.1383 -0.2835  0.4935
  586ERGO   ROH 8725   9.889   6.209   9.949  0.2483  0.1786  0.0397
  586ERGO    R1 8726   9.885   6.135   9.675  0.2609  0.1232  0.0542
  586ERGO    R2 8727   9.659   6.159   9.518  0.2517  0.0377  0.0530
  586ERGO    R3 8728   9.826   6.302   9.357  0.2148  0.0461  0.0221
  586ERGO    R4 8729   9.629   6.186   9.174  0.2789 -0.0903  0.0400
  586ERGO    R5 8730   9.845   6.170   9.159  0.2863 -0.0139  0.0691
  586ERGO    C1 8731   9.768   6.336   8.824  0.2602 -0.1567  0.0035
  586ERGO    C2 8732   9.754   6.267   8.434  0.0697 -0.0956 -0.4248
  587ERGO   ROH 8733  13.249   4.393   9.951  0.0228  0.0636  0.0474
  587ERGO    R1 8734  13.365   4.532   9.733 -0.0218  0.0087 -0.0123
  587ERGO    R2 8735  13.405   4.415   9.486 -0.0758 -0.0533  0.0069
  587ERGO    R3 8736  13.263   4.629   9.397 -0.0929 -0.0738 -0.0146
  587ERGO    R4 8737  13.451   4.569   9.180 -0.0009  0.0013  0.0453
  587ERGO    R5 8738  13.424   4.762   9.279 -0.0813 -0.0196  0.0624
  587ERGO    C1 8739  13.345   4.860   8.919  0.0268  0.0136  0.0476
  587ERGO    C2 8740  13.138   4.862   8.566  0.1064 -0.1785  0.0458
  588ERGO   ROH 8741   4.061   6.743  10.446  0.0015 -0.2410  0.0597
  588ERGO    R1 8742   4.263   6.726  10.249 -0.0149 -0.0311  0.0230
  588ERGO    R2 8743   4.289   6.509  10.080  0.1812 -0.0070  0.0214
  588ERGO    R3 8744   4.278   6.699   9.886 -0.0518 -0.0188  0.0203
  588ERGO    R4 8745   4.318   6.447   9.742  0.3075  0.0273  0.0252
  588ERGO    R5 8746   4.439   6.628   9.724  0.0688  0.1953  0.0406
  588ERGO    C1 8747   4.324   6.590   9.362  0.1623  0.0362  0.0264
  588ERGO    C2 8748   4.324   6.422   8.975 -0.3101  0.1692  0.1647
  589ERGO   ROH 8749  11.948   1.657  10.055  0.0138 -0.0098 -0.0001
  589ERGO    R1 8750  12.028   1.431   9.904  0.0444 -0.0039  0.0049
  589ERGO    R2 8751  11.851   1.235   9.824  0.0881 -0.0954  0.1086
  589ERGO    R3 8752  11.951   1.291   9.577 -0.0355 -0.0879  0.0614
  589ERGO    R4 8753  11.814   1.034   9.545  0.0867 -0.1545  0.1524
  589ERGO    R5 8754  12.021   1.079   9.491  0.0381 -0.0610  0.0669
  589ERGO    C1 8755  11.886   0.970   9.151 -0.0300 -0.1819  0.1337
  589ERGO    C2 8756  11.862   1.047   8.824  0.0141  0.0415  0.0494
  590ERGO   ROH 8757   2.906  15.523  10.520 -0.0515  0.1740  0.0657
  590ERGO    R1 8758   2.981  15.428  10.265 -0.0873  0.0173  0.1115
  590ERGO    R2 8759   2.807  15.425  10.050 -0.0759  0.0244  0.0969
  590ERGO    R3 8760   3.006  15.564   9.928  0.0159 -0.1419  0.0546
  590ERGO    R4 8761   2.833  15.474   9.709 -0.1920  0.1421  0.1051
  590ERGO    R5 8762   3.048  15.443   9.726 -0.2185 -0.1009 -0.0180
  590ERGO    C1 8763   3.034  15.634   9.396 -0.1735  0.0547  0.0700
  590ERGO    C2 8764   3.022  15.771   9.069 -0.0791  0.1642  0.0973
  591ERGO   ROH 8765  17.681   1.397  10.174  0.2628  0.1314  0.0493
  591ERGO    R1 8766  17.546   1.349   9.929  0.2876  0.0377  0.0535
  591ERGO    R2 8767  17.385   1.539   9.809  0.0282 -0.1241  0.1367
  591ERGO    R3 8768  17.546   1.493   9.595  0.0603  0.1473  0.0986
  591ERGO    R4 8769  17.277   1.511   9.481  0.0113 -0.2048  0.1489
  591ERGO    R5 8770  17.418   1.348   9.454  0.2376 -0.0038  0.0896
  591ERGO    C1 8771  17.366   1.451   9.090  0.0319  0.0029  0.1201
  591ERGO    C2 8772  17.507   1.367   8.788  0.0476  0.0093 -0.1501
  592ERGO   ROH 8773   3.153   7.987  10.109  0.2788 -0.0587  0.0225
  592ERGO    R1 8774   3.004   8.123   9.910  0.0979 -0.1892  0.0668
  592ERGO    R2 8775   3.124   8.254   9.698 -0.0758 -0.0062  0.0820
  592ERGO    R3 8776   2.958   8.097   9.550  0.0879 -0.1678  0.0658
  592ERGO    R4 8777   3.091   8.270   9.355 -0.2455  0.1483  0.1038
  592ERGO    R5 8778   2.876   8.242   9.379 -0.2013 -0.1822  0.1840
  592ERGO    C1 8779   2.916   8.133   9.016 -0.1906  0.0865  0.1011
  592ERGO    C2 8780   3.000   8.176   8.768 -0.3292 -0.1956 -0.0017
  593ERGO   ROH 8781  10.624   6.811   9.762  0.2541  0.2864  0.0646
  593ERGO    R1 8782  10.625   6.935   9.507  0.0544  0.2778  0.0577
  593ERGO    R2 8783  10.661   6.793   9.273  0.2820  0.3191  0.0607
  593ERGO    R3 8784  10.428   6.912   9.202  0.0827 -0.0567  0.0623
  593ERGO    R4 8785  10.578   6.891   8.952  0.1461  0.2675  0.0799
  593ERGO    R5 8786  10.490   7.072   9.035 -0.1726  0.0965  0.1140
  593ERGO    C1 8787  10.310   7.060   8.699 -0.1202 -0.1154  0.0927
  593ERGO    C2 8788  10.371   7.063   8.388  0.1086  0.0153 -0.2017
  594ERGO   ROH 8789  15.758   5.389  10.210  0.1495  0.0070  0.0429
  594ERGO    R1 8790  15.846   5.359   9.943  0.0645  0.0498  0.0100
  594ERGO    R2 8791  15.675   5.293   9.736  0.0135  0.0032  0.0689
  594ERGO    R3 8792  15.778   5.518   9.623 -0.1019  0.0426  0.0406
  594ERGO    R4 8793  15.619   5.394   9.410  0.0138 -0.1077  0.0341
  594ERGO    R5 8794  15.828   5.454   9.398 -0.0172  0.0194  0.0637
  594ERGO    C1 8795  15.682   5.664   9.114 -0.0943 -0.1354 -0.0129
  594ERGO    C2 8796  15.708   5.797   8.817  0.2240 -0.0191 -0.1218
  595ERGO   ROH 8797  10.783   1.405  10.081  0.0020  0.2131  0.0451
  595ERGO    R1 8798  10.791   1.326   9.809 -0.0306  0.1519  0.0618
  595ERGO    R2 8799  10.744   1.503   9.602 -0.1049  0.0932  0.0298
  595ERGO    R3 8800  10.986   1.413   9.514 -0.1025  0.1242  0.0050
  595ERGO    R4 8801  10.843   1.491   9.271 -0.1860  0.0054  0.0087
  595ERGO    R5 8802  10.936   1.298   9.310 -0.1261  0.0400  0.0552
  595ERGO    C1 8803  11.126   1.400   8.996 -0.2307 -0.0166 -0.0269
  595ERGO    C2 8804  11.125   1.659   8.704 -0.0545  0.1793 -0.0656
  596ERGO   ROH 8805  15.189  14.156  10.048 -0.1665  0.0912 -0.0346
  596ERGO    R1 8806  15.230  14.274   9.794  0.0334  0.0592 -0.0168
  596ERGO    R2 8807  15.402  14.167   9.607 -0.0749 -0.1509  0.0101
  596ERGO    R3 8808  15.183  14.177   9.446 -0.0329  0.1522 -0.0359
  596ERGO    R4 8809  15.410  14.151   9.262 -0.0292 -0.4611  0.0213
  596ERGO    R5 8810  15.255  14.305   9.256  0.2685 -0.1437 -0.1359
  596ERGO    C1 8811  15.208  14.152   8.910  0.0367 -0.3571 -0.0153
  596ERGO    C2 8812  15.260  14.175   8.537  0.4777 -0.0900  0.0115
  597ERGO   ROH 8813  17.281  17.145  10.244  0.3181  0.0277  0.0253
  597ERGO    R1 8814  17.397  17.260  10.013  0.1938 -0.1233 -0.1140
  597ERGO    R2 8815  17.397  17.132   9.767 -0.1777 -0.1696 -0.0959
  597ERGO    R3 8816  17.282  17.363   9.684 -0.0450 -0.0733 -0.0162
  597ERGO    R4 8817  17.440  17.274   9.455 -0.2203 -0.1654 -0.1001
  597ERGO    R5 8818  17.449  17.469   9.550 -0.0299 -0.1824 -0.0829
  597ERGO    C1 8819  17.356  17.574   9.195 -0.1205 -0.0723 -0.0277
  597ERGO    C2 8820  17.347  17.501   8.900  0.3143 -0.3158 -0.1629
  598ERGO   ROH 8821  16.153   3.143  10.222 -0.2067  0.1963  0.0051
  598ERGO    R1 8822  16.005   3.269  10.016 -0.1396  0.1991 -0.0418
  598ERGO    R2 8823  16.104   3.482   9.870 -0.0470  0.1291 -0.0847
  598ERGO    R3 8824  16.044   3.323   9.658 -0.0805  0.0968 -0.0509
  598ERGO    R4 8825  16.093   3.587   9.541  0.0818  0.0334 -0.1203
  598ERGO    R5 8826  15.916   3.464   9.512  0.0257  0.1176 -0.1230
  598ERGO    C1 8827  16.031   3.500   9.150  0.1253 -0.0525 -0.1092
  598ERGO    C2 8828  15.867   3.663   8.839  0.0862  0.0272  0.2191
  599ERGO   ROH 8829   0.138  10.632  10.186  0.1026  0.1357  0.1400
  599ERGO    R1 8830   0.219  10.794   9.968  0.1375  0.1355  0.1534
  599ERGO    R2 8831   0.370  10.696   9.759 -0.0115  0.0811  0.0723
  599ERGO    R3 8832   0.168  10.796   9.608  0.0042  0.2687  0.1715
  599ERGO    R4 8833   0.356  10.680   9.414 -0.1555  0.1601  0.0731
  599ERGO    R5 8834   0.277  10.884   9.413 -0.0005  0.2244  0.1464
  599ERGO    C1 8835   0.158  10.765   9.071 -0.2246  0.3822  0.1668
  599ERGO    C2 8836   0.017  10.795   8.763 -0.1136  0.0626 -0.1307
  600ERGO   ROH 8837   7.533  11.345  10.244  0.0921  0.1225 -0.0726
  600ERGO    R1 8838   7.640  11.236  10.005 -0.0402  0.0128 -0.0830
  600ERGO    R2 8839   7.482  11.166   9.790 -0.1367  0.1384 -0.0542
  600ERGO    R3 8840   7.651  11.329   9.654 -0.0126 -0.0183 -0.0904
  600ERGO    R4 8841   7.509  11.178   9.446 -0.1153  0.0297 -0.0564
  600ERGO    R5 8842   7.726  11.196   9.469 -0.1018 -0.1208 -0.0535
  600ERGO    C1 8843   7.684  11.338   9.117  0.0136 -0.1808 -0.0919
  600ERGO    C2 8844   7.670  11.431   8.756 -0.2242 -0.1172  0.0551
  601ERGO   ROH 8845  11.656   7.860   9.809 -0.1915  0.1004 -0.0809
  601ERGO    R1 8846  11.807   7.985   9.606 -0.0277 -0.0670 -0.0643
  601ERGO    R2 8847  11.886   7.854   9.376 -0.2128 -0.1348 -0.0871
  601ERGO    R3 8848  11.763   8.063   9.253  0.0645  0.0551 -0.0506
  601ERGO    R4 8849  11.968   7.976   9.063 -0.2302 -0.3856 -0.1926
  601ERGO    R5 8850  11.940   8.178   9.140  0.1950 -0.2991 -0.2275
  601ERGO    C1 8851  11.900   8.244   8.766  0.0201 -0.3535 -0.2197
  601ERGO    C2 8852  11.892   8.449   8.522  0.0209  0.1515  0.0030
  602ERGO   ROH 8853   8.240   9.272  10.142  0.2602  0.1953 -0.0634
  602ERGO    R1 8854   8.274   9.393   9.888  0.2085  0.0103 -0.1621
  602ERGO    R2 8855   8.342   9.248   9.662 -0.0673 -0.1947 -0.1290
  602ERGO    R3 8856   8.120   9.367   9.559 -0.0314 -0.0552 -0.0434
  602ERGO    R4 8857   8.303   9.342   9.332 -0.1011 -0.0431 -0.0814
  602ERGO    R5 8858   8.205   9.524   9.400 -0.0026 -0.0334  0.0042
  602ERGO    C1 8859   8.072   9.508   9.043 -0.0870  0.1762  0.0266
  602ERGO    C2 8860   7.893   9.492   8.748  0.4268  0.2219  0.1127
  603ERGO   ROH 8861  17.077   7.483  10.143  0.0068 -0.4677 -0.2367
  603ERGO    R1 8862  17.046   7.405   9.872  0.0819 -0.2943 -0.2971
  603ERGO    R2 8863  16.825   7.475   9.722  0.0136 -0.3865 -0.2458
  603ERGO    R3 8864  17.013   7.573   9.551 -0.0728 -0.0790 -0.1705
  603ERGO    R4 8865  16.766   7.562   9.393 -0.0381 -0.2626 -0.2042
  603ERGO    R5 8866  16.958   7.473   9.340  0.0663 -0.0184 -0.2334
  603ERGO    C1 8867  16.908   7.704   9.040 -0.1494  0.0981 -0.1092
  603ERGO    C2 8868  16.822   7.802   8.606 -0.1242 -0.4074  0.0425
  604ERGO   ROH 8869   0.361  15.679   9.903 -0.1915  0.0540 -0.1206
  604ERGO    R1 8870   0.345  15.740   9.628 -0.0118  0.0519 -0.1319
  604ERGO    R2 8871   0.555  15.697   9.454  0.0154 -0.1807 -0.0392
  604ERGO    R3 8872   0.368  15.557   9.314 -0.0737  0.0057 -0.1112
  604ERGO    R4 8873   0.548  15.667   9.109  0.2856 -0.3847 -0.0301
  604ERGO    R5 8874   0.331  15.689   9.117  0.2996 -0.0541 -0.2338
  604ERGO    C1 8875   0.369  15.518   8.778  0.3594 -0.3286 -0.0924
  604ERGO    C2 8876   0.530  15.440   8.482 -0.0920 -0.2420  0.0546
  605ERGO   ROH 8877  14.067   6.251  10.158 -0.1601 -0.0509  0.0752
  605ERGO    R1 8878  14.133   6.377   9.914 -0.0844 -0.0201  0.1120
  605ERGO    R2 8879  14.293   6.258   9.723 -0.0880 -0.0255  0.1169
  605ERGO    R3 8880  14.082   6.311   9.559 -0.0444  0.0673  0.0889
  605ERGO    R4 8881  14.290   6.206   9.381 -0.0775 -0.0671  0.1225
  605ERGO    R5 8882  14.182   6.394   9.358  0.0237 -0.0097  0.0881
  605ERGO    C1 8883  14.090   6.226   9.029 -0.0305 -0.0042  0.0994
  605ERGO    C2 8884  14.052   6.266   8.639 -0.0514 -0.3655 -0.1047
  606ERGO   ROH 8885   7.161  10.112  10.110  0.0464  0.3013 -0.0553
  606ERGO    R1 8886   7.216  10.234   9.860  0.2568  0.1021 -0.1096
  606ERGO    R2 8887   7.361  10.108   9.661 -0.0678 -0.2893 -0.1060
  606ERGO    R3 8888   7.142  10.166   9.511  0.0146  0.1480 -0.0695
  606ERGO    R4 8889   7.350  10.099   9.316 -0.1656 -0.3833 -0.1015
  606ERGO    R5 8890   7.230  10.280   9.320  0.2306 -0.1042 -0.1293
  606ERGO    C1 8891   7.139  10.148   8.973 -0.1452 -0.0274 -0.0646
  606ERGO    C2 8892   7.197   9.980   8.705 -0.0434 -0.1762  0.0811
  607ERGO   ROH 8893   2.160   7.997  10.178 -0.2405  0.0588 -0.0757
  607ERGO    R1 8894   2.024   7.833   9.992 -0.0603 -0.2810  0.0847
  607ERGO    R2 8895   1.975   7.912   9.731 -0.4386 -0.4497  0.1057
  607ERGO    R3 8896   2.099   7.677   9.672 -0.0022 -0.2217  0.0665
  607ERGO    R4 8897   2.017   7.784   9.413 -0.2525 -0.3337  0.0809
  607ERGO    R5 8898   1.973   7.586   9.491  0.1265 -0.4401  0.0738
  607ERGO    C1 8899   2.158   7.490   9.172  0.2656 -0.0521  0.0296
  607ERGO    C2 8900   2.126   7.492   8.865  0.2272 -0.3875 -0.0288
  608ERGO   ROH 8901   2.285   2.686  10.357 -0.1288 -0.0632 -0.1596
  608ERGO    R1 8902   2.497   2.611  10.185 -0.0834  0.0601 -0.1586
  608ERGO    R2 8903   2.509   2.362  10.065  0.0901  0.0485 -0.1153
  608ERGO    R3 8904   2.530   2.509   9.837 -0.0287  0.0233 -0.1433
  608ERGO    R4 8905   2.598   2.235   9.756  0.2287  0.0622 -0.0818
  608ERGO    R5 8906   2.718   2.414   9.722  0.0692  0.1691 -0.1094
  608ERGO    C1 8907   2.669   2.299   9.362  0.1979  0.0466 -0.0887
  608ERGO    C2 8908   2.614   2.232   9.074  0.0157  0.0519  0.2295
  609ERGO   ROH 8909   9.152   8.377  10.179 -0.0341  0.0258  0.1557
  609ERGO    R1 8910   9.263   8.248   9.953 -0.0437 -0.0117  0.1723
  609ERGO    R2 8911   9.109   8.160   9.741 -0.0426  0.0309  0.1538
  609ERGO    R3 8912   9.282   8.311   9.595  0.0219 -0.0236  0.1739
  609ERGO    R4 8913   9.118   8.172   9.396 -0.0558  0.0944  0.1554
  609ERGO    R5 8914   9.336   8.173   9.406 -0.0543 -0.0126  0.1441
  609ERGO    C1 8915   9.286   8.319   9.057 -0.0027  0.0800  0.1751
  609ERGO    C2 8916   9.202   8.374   8.645 -0.1767  0.1588  0.2685
  610ERGO   ROH 8917  12.801  11.765  10.009 -0.0370 -0.1212 -0.0351
  610ERGO    R1 8918  12.903  11.633   9.780 -0.0955  0.0161 -0.1411
  610ERGO    R2 8919  12.860  11.365   9.733  0.1868 -0.0339 -0.1075
  610ERGO    R3 8920  12.766  11.455   9.494 -0.1576 -0.1390 -0.0177
  610ERGO    R4 8921  12.842  11.176   9.444  0.4373  0.0287 -0.1677
  610ERGO    R5 8922  12.908  11.351   9.331 -0.0109  0.2322 -0.1429
  610ERGO    C1 8923  12.743  11.150   9.052  0.2596 -0.0337 -0.1186
  610ERGO    C2 8924  12.622  10.939   8.777  0.0521  0.1117 -0.3623
  611ERGO   ROH 8925   8.306   0.127   9.961  0.3195 -0.1527 -0.0102
  611ERGO    R1 8926   8.223   0.048   9.702  0.3068 -0.1312 -0.0116
  611ERGO    R2 8927   8.221   0.222   9.487  0.0429 -0.0421  0.0648
  611ERGO    R3 8928   8.373   0.028   9.371  0.2049  0.1659 -0.0806
  611ERGO    R4 8929   8.177   0.101   9.166  0.0317  0.0513  0.0299
  611ERGO    R5 8930   8.218  -0.099   9.241  0.2786  0.0554 -0.0689
  611ERGO    C1 8931   8.294  -0.151   8.871  0.1774  0.3009 -0.1270
  611ERGO    C2 8932   8.108  -0.376   8.580  0.0396 -0.1108  0.1644
  612ERGO   ROH 8933  15.011   9.754   9.947  0.0451  0.0640  0.1464
  612ERGO    R1 8934  15.101   9.788   9.681  0.0291  0.0356  0.1363
  612ERGO    R2 8935  15.077   9.591   9.489  0.0195  0.0109  0.1558
  612ERGO    R3 8936  14.952   9.788   9.349  0.0067 -0.0041  0.1482
  612ERGO    R4 8937  14.982   9.567   9.158  0.1694  0.0632  0.1091
  612ERGO    R5 8938  15.047   9.773   9.129  0.1020  0.0891  0.1874
  612ERGO    C1 8939  14.810   9.737   8.833  0.2445  0.0796  0.0747
  612ERGO    C2 8940  14.804   9.895   8.592 -0.0617  0.4565  0.2117
  613ERGO   ROH 8941   9.327   0.631  10.118 -0.0848  0.1965 -0.0511
  613ERGO    R1 8942   9.373   0.623   9.839 -0.0308  0.2233 -0.0425
  613ERGO    R2 8943   9.467   0.397   9.710 -0.0581  0.2184 -0.0526
  613ERGO    R3 8944   9.247   0.432   9.555 -0.0197  0.2913 -0.0931
  613ERGO    R4 8945   9.434   0.282   9.385 -0.0530  0.2079 -0.0502
  613ERGO    R5 8946   9.334   0.470   9.335  0.0283  0.2412 -0.0817
  613ERGO    C1 8947   9.207   0.249   9.052 -0.0139  0.2702 -0.0870
  613ERGO    C2 8948   8.951   0.144   8.842 -0.1724  0.1374 -0.0998
  614ERGO   ROH 8949  11.815  16.439  10.096  0.1137  0.0914 -0.1554
  614ERGO    R1 8950  11.886  16.305   9.857  0.1074  0.0431 -0.1310
  614ERGO    R2 8951  11.741  16.093   9.756  0.1836 -0.0692 -0.0111
  614ERGO    R3 8952  11.735  16.247   9.531  0.0340 -0.1505 -0.0633
  614ERGO    R4 8953  11.770  15.973   9.433  0.3270 -0.1512  0.0324
  614ERGO    R5 8954  11.895  16.145   9.385  0.1501 -0.0341 -0.0190
  614ERGO    C1 8955  11.781  16.046   9.035  0.2702 -0.2754  0.0085
  614ERGO    C2 8956  11.554  16.043   8.752 -0.3531 -0.1386 -0.2711
  615ERGO   ROH 8957   4.273  16.405  10.273 -0.0588 -0.0857 -0.2632
  615ERGO    R1 8958   4.307  16.455   9.997 -0.0741 -0.0319 -0.2563
  615ERGO    R2 8959   4.247  16.268   9.802  0.0050 -0.0314 -0.2883
  615ERGO    R3 8960   4.093  16.468   9.703 -0.0760 -0.0779 -0.2551
  615ERGO    R4 8961   4.140  16.291   9.475 -0.0388 -0.0294 -0.2732
  615ERGO    R5 8962   4.178  16.505   9.482 -0.1163 -0.0221 -0.2567
  615ERGO    C1 8963   3.933  16.493   9.190 -0.1403 -0.0720 -0.2332
  615ERGO    C2 8964   3.846  16.393   8.909  0.0531  0.0920  0.1045
  616ERGO   ROH 8965   0.137   9.246  10.055 -0.0901 -0.0201 -0.0201
  616ERGO    R1 8966   0.238   9.155   9.807 -0.0891  0.0490 -0.0440
  616ERGO    R2 8967   0.074   9.101   9.591 -0.0834  0.1302 -0.0617
  616ERGO    R3 8968   0.240   9.274   9.463 -0.0652  0.1531 -0.0100
  616ERGO    R4 8969   0.162   9.081   9.257  0.1814  0.0122  0.0110
  616ERGO    R5 8970   0.365   9.137   9.312  0.1192  0.1353  0.1478
  616ERGO    C1 8971   0.368   9.233   8.943  0.3527 -0.0349  0.1020
  616ERGO    C2 8972   0.544   9.130   8.723  0.0605  0.3204 -0.2435
  617ERGO   ROH 8973  13.151  10.952   9.756 -0.1661  0.0656 -0.0058
  617ERGO    R1 8974  13.259  10.902   9.499 -0.0360  0.0794  0.0456
  617ERGO    R2 8975  13.109  10.799   9.292  0.1072 -0.0565  0.0079
  617ERGO    R3 8976  13.198  11.019   9.159  0.0224 -0.0275 -0.0018
  617ERGO    R4 8977  13.074  10.852   8.952  0.0968 -0.0883  0.0038
  617ERGO    R5 8978  13.276  10.934   8.949  0.0633 -0.0067  0.0055
  617ERGO    C1 8979  13.137  11.090   8.630  0.0109 -0.0796 -0.0077
  617ERGO    C2 8980  12.847  11.087   8.378 -0.2524 -0.2290 -0.0723
  618ERGO   ROH 8981   0.707   2.996  10.256 -0.1394  0.0749  0.0214
  618ERGO    R1 8982   0.730   3.130  10.008  0.0382  0.1435  0.0739
  618ERGO    R2 8983   0.958   3.269   9.934  0.2125 -0.1009  0.1419
  618ERGO    R3 8984   0.944   3.109   9.715  0.0330 -0.0035  0.0800
  618ERGO    R4 8985   1.121   3.329   9.636  0.2765 -0.1658  0.1630
  618ERGO    R5 8986   0.942   3.262   9.530  0.1986  0.0708  0.1383
  618ERGO    C1 8987   1.203   3.215   9.255  0.1453 -0.1122  0.1174
  618ERGO    C2 8988   1.275   3.264   8.910  0.0311 -0.0249 -0.0719
  619ERGO   ROH 8989   2.573   5.903  10.372 -0.0627  0.2481  0.0023
  619ERGO    R1 8990   2.443   5.949  10.125 -0.0308  0.0927 -0.0438
  619ERGO    R2 8991   2.473   6.184   9.984 -0.1685  0.0781 -0.0882
  619ERGO    R3 8992   2.544   6.017   9.782  0.0088  0.0868 -0.0352
  619ERGO    R4 8993   2.460   6.265   9.648 -0.2454 -0.0247 -0.1111
  619ERGO    R5 8994   2.386   6.064   9.608 -0.0420 -0.1210 -0.0536
  619ERGO    C1 8995   2.521   6.156   9.263 -0.1237 -0.0764 -0.0748
  619ERGO    C2 8996   2.427   6.073   8.948  0.1787  0.1181  0.0560
  620ERGO   ROH 8997   6.605   1.956  10.364 -0.3080  0.1358  0.1463
  620ERGO    R1 8998   6.571   1.831  10.113 -0.1276  0.0690  0.1537
  620ERGO    R2 8999   6.322   1.776  10.006 -0.0535 -0.1280  0.0713
  620ERGO    R3 9000   6.419   1.916   9.794 -0.0747 -0.0911  0.0858
  620ERGO    R4 9001   6.250   1.709   9.674  0.1529 -0.2519  0.0495
  620ERGO    R5 9002   6.458   1.750   9.625  0.1389 -0.0902  0.1348
  620ERGO    C1 9003   6.299   1.801   9.282  0.2531 -0.2894  0.0507
  620ERGO    C2 9004   6.309   1.928   8.882 -0.2865  0.3193  0.1732
  621ERGO   ROH 9005   5.372  12.431  10.602 -0.0523  0.0583 -0.0818
  621ERGO    R1 9006   5.265  12.431  10.340 -0.1259 -0.0517 -0.0532
  621ERGO    R2 9007   5.418  12.489  10.117 -0.2579  0.1722 -0.0927
  621ERGO    R3 9008   5.325  12.249  10.030  0.0291  0.0552 -0.0865
  621ERGO    R4 9009   5.403  12.392   9.786 -0.3381  0.2257 -0.1043
  621ERGO    R5 9010   5.209  12.301   9.827 -0.1813 -0.0643  0.0026
  621ERGO    C1 9011   5.306  12.111   9.511 -0.1154  0.1470 -0.1052
  621ERGO    C2 9012   5.326  12.216   9.286  0.1454 -0.0620 -0.1946
  622ERGO   ROH 9013   1.223   2.425  10.135 -0.0494 -0.0954  0.0275
  622ERGO    R1 9014   1.427   2.360   9.950 -0.0607 -0.0064 -0.0140
  622ERGO    R2 9015   1.377   2.220   9.716 -0.0530  0.0049 -0.0121
  622ERGO    R3 9016   1.498   2.433   9.601 -0.1401  0.0520 -0.0214
  622ERGO    R4 9017   1.524   2.219   9.404 -0.2414  0.0922 -0.1041
  622ERGO    R5 9018   1.685   2.341   9.484 -0.1963  0.0886 -0.1590
  622ERGO    C1 9019   1.724   2.419   9.113 -0.4329  0.1874 -0.1664
  622ERGO    C2 9020   1.705   2.389   8.796  0.2131 -0.0223  0.0336
  623ERGO   ROH 9021  17.028   9.060  10.016 -0.0539 -0.0433 -0.1746
  623ERGO    R1 9022  17.127   9.049   9.751 -0.0442 -0.2048 -0.1656
  623ERGO    R2 9023  17.049   8.854   9.571 -0.2355 -0.1659 -0.1297
  623ERGO    R3 9024  16.987   9.068   9.416 -0.0008 -0.1318 -0.1792
  623ERGO    R4 9025  17.031   8.850   9.226 -0.4052 -0.2724 -0.1207
  623ERGO    R5 9026  17.127   9.045   9.223 -0.1226 -0.4077 -0.2393
  623ERGO    C1 9027  16.963   9.049   8.879 -0.2837 -0.3023 -0.1620
  623ERGO    C2 9028  16.804   9.101   8.506 -0.1668 -0.2059  0.1158
  624ERGO   ROH 9029  15.149   7.357   9.742  0.0792  0.0547  0.1078
  624ERGO    R1 9030  15.118   7.551   9.538 -0.1132 -0.0336  0.0519
  624ERGO    R2 9031  15.324   7.627   9.371 -0.1526  0.2119  0.1138
  624ERGO    R3 9032  15.147   7.561   9.175  0.0071 -0.0770  0.0594
  624ERGO    R4 9033  15.394   7.632   9.033 -0.0504  0.3152  0.1357
  624ERGO    R5 9034  15.195   7.716   8.999 -0.1804  0.0010  0.0718
  624ERGO    C1 9035  15.269   7.574   8.652  0.1590  0.1042  0.0972
  624ERGO    C2 9036  15.426   7.576   8.344 -0.2186  0.1229  0.0778
  625ERGO   ROH 9037  10.910   9.406  10.309  0.1453  0.1056 -0.2147
  625ERGO    R1 9038  10.928   9.408  10.026  0.0111  0.0598 -0.2243
  625ERGO    R2 9039  10.713   9.469   9.864 -0.0097  0.2551 -0.1269
  625ERGO    R3 9040  10.885   9.652   9.760  0.1220  0.0778 -0.2262
  625ERGO    R4 9041  10.730   9.556   9.530 -0.1866  0.3093 -0.1226
  625ERGO    R5 9042  10.947   9.561   9.547 -0.1618  0.0495 -0.3020
  625ERGO    C1 9043  10.902   9.779   9.238 -0.1660  0.1745 -0.2135
  625ERGO    C2 9044  10.789   9.850   8.911 -0.2452 -0.1435 -0.1394
  626ERGO   ROH 9045  11.384   0.035  10.026  0.0189  0.3378 -0.1701
  626ERGO    R1 9046  11.420  -0.163   9.827  0.1448  0.2452 -0.0558
  626ERGO    R2 9047  11.212  -0.257   9.671  0.1916 -0.0336  0.0513
  626ERGO    R3 9048  11.377  -0.186   9.466  0.0802 -0.0194 -0.0341
  626ERGO    R4 9049  11.158  -0.335   9.339  0.1606 -0.2844  0.1130
  626ERGO    R5 9050  11.372  -0.375   9.319  0.1942 -0.1200  0.0827
  626ERGO    C1 9051  11.281  -0.315   8.953  0.0379 -0.4173  0.0687
  626ERGO    C2 9052  11.250  -0.292   8.580 -0.1359 -0.2860  0.1069
  627ERGO   ROH 9053   0.071   0.523   9.920 -0.2699 -0.1461 -0.0234
  627ERGO    R1 9054   0.076   0.687   9.689 -0.1462 -0.1844 -0.0489
  627ERGO    R2 9055   0.295   0.703   9.522 -0.1208 -0.3472 -0.0302
  627ERGO    R3 9056   0.114   0.638   9.331 -0.1427 -0.2633 -0.0387
  627ERGO    R4 9057   0.356   0.710   9.182 -0.1248 -0.2869 -0.0299
  627ERGO    R5 9058   0.157   0.793   9.153 -0.1087 -0.2323 -0.0064
  627ERGO    C1 9059   0.222   0.652   8.804 -0.1476 -0.1730 -0.0377
  627ERGO    C2 9060   0.158   0.623   8.464  0.2269  0.2068  0.1123
  628ERGO   ROH 9061   0.578   4.214  10.270 -0.0808 -0.1401 -0.0288
  628ERGO    R1 9062   0.668   4.312  10.020 -0.1119 -0.0638 -0.0108
  628ERGO    R2 9063   0.865   4.186   9.873 -0.1214 -0.0122 -0.0685
  628ERGO    R3 9064   0.678   4.190   9.676 -0.1421  0.0354 -0.0473
  628ERGO    R4 9065   0.935   4.178   9.535 -0.1604 -0.1222 -0.0738
  628ERGO    R5 9066   0.777   4.325   9.504 -0.0935 -0.0504 -0.0882
  628ERGO    C1 9067   0.800   4.177   9.153 -0.2024 -0.1416 -0.0570
  628ERGO    C2 9068   0.977   3.956   8.984 -0.0025  0.0442  0.0253
  629ERGO   ROH 9069   7.097   9.123  10.172  0.2566  0.3445  0.0558
  629ERGO    R1 9070   7.089   9.232   9.911  0.0284  0.2514  0.0230
  629ERGO    R2 9071   7.242   9.133   9.703 -0.0548  0.2684 -0.0356
  629ERGO    R3 9072   7.002   9.115   9.578 -0.1222  0.0959  0.1134
  629ERGO    R4 9073   7.200   9.100   9.362 -0.2273  0.4154 -0.0309
  629ERGO    R5 9074   7.032   9.238   9.375 -0.3679  0.2462  0.1565
  629ERGO    C1 9075   6.950   9.065   9.045 -0.3911  0.3390  0.1118
  629ERGO    C2 9076   7.037   8.989   8.775 -0.0178 -0.1115  0.3148
  630ERGO   ROH 9077  16.290  13.323  10.108 -0.0384  0.0206  0.0456
  630ERGO    R1 9078  16.449  13.348   9.875 -0.0425  0.1211  0.0518
  630ERGO    R2 9079  16.461  13.151   9.682  0.2214  0.0501  0.1293
  630ERGO    R3 9080  16.391  13.355   9.516 -0.0187 -0.0987  0.0439
  630ERGO    R4 9081  16.504  13.150   9.339  0.3414  0.0156  0.1449
  630ERGO    R5 9082  16.565  13.359   9.351  0.0319  0.1076  0.1048
  630ERGO    C1 9083  16.464  13.340   8.983  0.1862 -0.1442  0.0740
  630ERGO    C2 9084  16.359  13.109   8.772  0.1462 -0.0691 -0.0446
  631ERGO   ROH 9085   5.975   8.706  10.107  0.2426 -0.0523  0.1245
  631ERGO    R1 9086   5.897   8.689   9.835  0.1111 -0.0867  0.1634
  631ERGO    R2 9087   6.017   8.839   9.636 -0.0833 -0.0036  0.1060
  631ERGO    R3 9088   6.056   8.596   9.521  0.0052  0.0241  0.0770
  631ERGO    R4 9089   6.078   8.787   9.300 -0.1563  0.0475  0.0844
  631ERGO    R5 9090   5.948   8.613   9.308 -0.0654 -0.0174  0.1107
  631ERGO    C1 9091   6.151   8.529   8.996 -0.1158  0.1033  0.0444
  631ERGO    C2 9092   6.140   8.418   8.648  0.2297  0.0781 -0.0468
  632ERGO   ROH 9093  16.596   1.217  10.223  0.2517 -0.3822 -0.0259
  632ERGO    R1 9094  16.538   1.109   9.967  0.1423 -0.2150 -0.0731
  632ERGO    R2 9095  16.386   1.245   9.779  0.0844 -0.0788  0.0695
  632ERGO    R3 9096  16.602   1.201   9.621  0.0196 -0.0033 -0.0416
  632ERGO    R4 9097  16.384   1.257   9.434 -0.1235 -0.1972  0.0641
  632ERGO    R5 9098  16.516   1.084   9.432 -0.0210 -0.1202  0.0485
  632ERGO    C1 9099  16.587   1.224   9.084 -0.3055 -0.1953 -0.0433
  632ERGO    C2 9100  16.453   1.310   8.935 -0.0173  0.1821 -0.0847
  633ERGO   ROH 9101  11.812   2.642  10.168 -0.0269  0.0429 -0.0378
  633ERGO    R1 9102  11.811   2.607   9.888  0.0461  0.0978 -0.0447
  633ERGO    R2 9103  11.579   2.617   9.737  0.0394 -0.2051 -0.0579
  633ERGO    R3 9104  11.718   2.804   9.596 -0.2171  0.0261 -0.0123
  633ERGO    R4 9105  11.526   2.694   9.404  0.1527 -0.4422 -0.1337
  633ERGO    R5 9106  11.742   2.709   9.378  0.1549 -0.0173  0.0401
  633ERGO    C1 9107  11.625   2.915   9.079 -0.0220 -0.3633 -0.1349
  633ERGO    C2 9108  11.553   2.928   8.800  0.0084 -0.0677 -0.2911
  634ERGO   ROH 9109   1.016  10.070   9.900 -0.0011 -0.1904  0.1338
  634ERGO    R1 9110   1.038   9.943   9.648 -0.0694 -0.0983  0.0789
  634ERGO    R2 9111   0.819   9.890   9.487 -0.1070  0.0413  0.0735
  634ERGO    R3 9112   0.963  10.027   9.302 -0.0750  0.0690  0.1210
  634ERGO    R4 9113   0.787   9.854   9.145 -0.0744  0.1271  0.0628
  634ERGO    R5 9114   1.003   9.868   9.128 -0.0742  0.1089  0.0881
  634ERGO    C1 9115   0.903   9.962   8.772 -0.0255  0.2030  0.1012
  634ERGO    C2 9116   0.882   9.980   8.408 -0.0670 -0.3519  0.2546
  635ERGO   ROH 9117   3.605  13.728  10.463  0.1356 -0.0220 -0.0095
  635ERGO    R1 9118   3.737  13.655  10.223  0.0055 -0.0808 -0.0634
  635ERGO    R2 9119   3.638  13.462  10.052 -0.2432  0.0878 -0.1114
  635ERGO    R3 9120   3.660  13.661   9.868 -0.0649  0.1306 -0.0469
  635ERGO    R4 9121   3.749  13.419   9.727 -0.0793  0.1308 -0.0626
  635ERGO    R5 9122   3.859  13.607   9.745 -0.0155  0.0862  0.0488
  635ERGO    C1 9123   3.834  13.581   9.366  0.1834  0.1959  0.0264
  635ERGO    C2 9124   4.027  13.698   9.035  0.3641 -0.0858  0.0491
  636ERGO   ROH 9125  15.315   4.304  10.042  0.0462 -0.2135 -0.0179
  636ERGO    R1 9126  15.368   4.353   9.768 -0.0005 -0.0763 -0.0025
  636ERGO    R2 9127  15.300   4.174   9.569  0.0950 -0.0399 -0.0646
  636ERGO    R3 9128  15.172   4.390   9.463 -0.0410 -0.0760  0.0225
  636ERGO    R4 9129  15.323   4.276   9.239  0.0968  0.1482 -0.0079
  636ERGO    R5 9130  15.329   4.482   9.309 -0.0698  0.1210  0.1048
  636ERGO    C1 9131  15.216   4.538   8.949 -0.0296  0.2238  0.1070
  636ERGO    C2 9132  15.124   4.723   8.625 -0.2316  0.0028  0.1948
  637ERGO   ROH 9133  10.703   7.872   9.933 -0.0911  0.0795 -0.1596
  637ERGO    R1 9134  10.609   7.973   9.686 -0.0512 -0.0300 -0.2193
  637ERGO    R2 9135  10.757   8.147   9.531 -0.0638 -0.0341 -0.2281
  637ERGO    R3 9136  10.714   7.961   9.337  0.0535 -0.1062 -0.1868
  637ERGO    R4 9137  10.847   8.183   9.199  0.0378 -0.1026 -0.2090
  637ERGO    R5 9138  10.658   8.089   9.143  0.0795 -0.1758 -0.2442
  637ERGO    C1 9139  10.860   8.029   8.825  0.2069 -0.2100 -0.1592
  637ERGO    C2 9140  10.969   8.147   8.478 -0.1171  0.0261 -0.1150
  638ERGO   ROH 9141  10.249  17.002   9.639 -0.2847 -0.2164  0.0319
  638ERGO    R1 9142  10.398  17.014   9.399 -0.1482 -0.1767  0.1175
  638ERGO    R2 9143  10.409  16.804   9.220 -0.1330 -0.1080  0.0370
  638ERGO    R3 9144  10.328  16.994   9.043  0.0383 -0.0033  0.0694
  638ERGO    R4 9145  10.472  16.796   8.880 -0.2146 -0.1549  0.0230
  638ERGO    R5 9146  10.510  17.011   8.887  0.0262 -0.1945  0.0315
  638ERGO    C1 9147  10.433  16.970   8.516 -0.1012 -0.0837  0.0452
  638ERGO    C2 9148  10.639  16.806   8.182 -0.1605  0.1604  0.2560
  639ERGO   ROH 9149  15.737   8.958   9.966 -0.2943 -0.1111 -0.0286
  639ERGO    R1 9150  15.749   9.031   9.693 -0.1390 -0.0961 -0.0194
  639ERGO    R2 9151  15.987   9.043   9.553 -0.0490 -0.0340  0.1280
  639ERGO    R3 9152  15.857   8.876   9.383  0.0944 -0.0590  0.0432
  639ERGO    R4 9153  16.055   9.013   9.215 -0.0645  0.2290  0.0995
  639ERGO    R5 9154  15.841   8.999   9.178 -0.0525  0.0429  0.1192
  639ERGO    C1 9155  15.974   8.838   8.859  0.0610  0.3587  0.0033
  639ERGO    C2 9156  15.859   8.735   8.527 -0.1577  0.0849  0.2538
  640ERGO   ROH 9157   7.126  13.263   9.954  0.1151 -0.1762  0.0694
  640ERGO    R1 9158   7.173  13.411   9.718 -0.0304 -0.1640  0.0476
  640ERGO    R2 9159   7.425  13.440   9.608 -0.0648  0.0308  0.0207
  640ERGO    R3 9160   7.302  13.344   9.385 -0.0068 -0.0949  0.0418
  640ERGO    R4 9161   7.412  13.603   9.303  0.0574 -0.1566 -0.0872
  640ERGO    R5 9162   7.205  13.537   9.282  0.0524 -0.1425 -0.1112
  640ERGO    C1 9163   7.290  13.608   8.917  0.1829 -0.3837 -0.1303
  640ERGO    C2 9164   7.400  13.792   8.703 -0.0386 -0.0370 -0.1734
  641ERGO   ROH 9165   3.690   5.263  10.290  0.2181 -0.1418 -0.0354
  641ERGO    R1 9166   3.853   5.336  10.070  0.0624 -0.1464 -0.1540
  641ERGO    R2 9167   3.758   5.340   9.811 -0.1874  0.0631 -0.0662
  641ERGO    R3 9168   3.851   5.596   9.815  0.0078 -0.0071 -0.0130
  641ERGO    R4 9169   3.807   5.538   9.531  0.0111  0.0700 -0.0277
  641ERGO    R5 9170   3.991   5.612   9.622  0.0526 -0.0840  0.0140
  641ERGO    C1 9171   3.922   5.892   9.373  0.3098  0.0082  0.0448
  641ERGO    C2 9172   3.914   6.038   9.111 -0.0735 -0.3007 -0.2424
  642ERGO   ROH 9173   2.484   0.642  10.357  0.0274 -0.2596 -0.0449
  642ERGO    R1 9174   2.709   0.672  10.188  0.0111 -0.2106 -0.0558
  642ERGO    R2 9175   2.760   0.502   9.976 -0.0270 -0.1267 -0.1241
  642ERGO    R3 9176   2.768   0.734   9.834 -0.0159 -0.0724 -0.0388
  642ERGO    R4 9177   2.867   0.529   9.648 -0.3109 -0.0753 -0.2167
  642ERGO    R5 9178   2.967   0.716   9.701 -0.1414 -0.1520 -0.2307
  642ERGO    C1 9179   2.937   0.762   9.324 -0.4658  0.0056 -0.1904
  642ERGO    C2 9180   3.014   0.795   9.000  0.2347 -0.0190 -0.1587
  643ERGO   ROH 9181   6.600   4.955   9.836 -0.0166  0.0445 -0.0317
  643ERGO    R1 9182   6.451   4.790   9.661  0.1002 -0.0567 -0.0354
  643ERGO    R2 9183   6.259   4.890   9.490 -0.0074 -0.1949  0.0114
  643ERGO    R3 9184   6.405   4.759   9.301  0.0738 -0.0433 -0.0350
  643ERGO    R4 9185   6.161   4.843   9.162 -0.0324 -0.2177  0.0214
  643ERGO    R5 9186   6.241   4.641   9.172  0.1418 -0.1594 -0.0249
  643ERGO    C1 9187   6.240   4.693   8.794  0.0292 -0.0886 -0.0165
  643ERGO    C2 9188   6.359   4.800   8.493  0.2337  0.3038  0.1226
  644ERGO   ROH 9189  14.724   2.768  10.322 -0.1342 -0.0220  0.0932
  644ERGO    R1 9190  14.773   2.836  10.051 -0.1579  0.0915  0.1166
  644ERGO    R2 9191  14.795   2.646   9.852 -0.0050  0.1624  0.0626
  644ERGO    R3 9192  14.602   2.796   9.733 -0.1023  0.0605  0.0908
  644ERGO    R4 9193  14.739   2.662   9.511 -0.0782  0.1211  0.0725
  644ERGO    R5 9194  14.704   2.876   9.532 -0.1815  0.1035  0.0687
  644ERGO    C1 9195  14.525   2.812   9.201 -0.2122  0.0014  0.1046
  644ERGO    C2 9196  14.441   2.925   8.925 -0.4499 -0.2921  0.2053
  645ERGO   ROH 9197   1.462   5.670  10.377  0.1625 -0.0680 -0.1373
  645ERGO    R1 9198   1.378   5.876  10.201  0.1049  0.0170 -0.0132
  645ERGO    R2 9199   1.508   5.930   9.963  0.0392  0.1431 -0.0248
  645ERGO    R3 9200   1.259   5.897   9.858  0.0123  0.1808  0.0291
  645ERGO    R4 9201   1.396   6.073   9.669  0.0031  0.1335 -0.0150
  645ERGO    R5 9202   1.205   6.111   9.765  0.0323  0.1790  0.0188
  645ERGO    C1 9203   1.098   6.125   9.399 -0.0431  0.1632  0.0411
  645ERGO    C2 9204   0.973   5.980   9.035  0.1237  0.0551  0.0120
  646ERGO   ROH 9205  12.898   5.797   9.824 -0.2012 -0.0872  0.0368
  646ERGO    R1 9206  12.692   5.869   9.644 -0.1666 -0.1725 -0.0380
  646ERGO    R2 9207  12.682   6.116   9.519 -0.3268 -0.1023  0.1075
  646ERGO    R3 9208  12.668   5.965   9.294 -0.0526  0.0192  0.0058
  646ERGO    R4 9209  12.627   6.240   9.202  0.1060  0.0726  0.0943
  646ERGO    R5 9210  12.498   6.069   9.162  0.1317  0.1101 -0.1661
  646ERGO    C1 9211  12.582   6.170   8.805  0.6155  0.2885 -0.0090
  646ERGO    C2 9212  12.591   6.127   8.402 -0.2541  0.2090 -0.0822
  647ERGO   ROH 9213   9.286  16.881  10.001  0.2750 -0.0845 -0.0345
  647ERGO    R1 9214   9.157  16.923   9.753  0.1597 -0.0437  0.0315
  647ERGO    R2 9215   9.296  16.977   9.520  0.0554 -0.0446 -0.0331
  647ERGO    R3 9216   9.156  16.764   9.425 -0.0233 -0.0164  0.0185
  647ERGO    R4 9217   9.254  16.900   9.185 -0.0149 -0.0896 -0.0145
  647ERGO    R5 9218   9.047  16.847   9.228 -0.0237 -0.0175  0.0205
  647ERGO    C1 9219   9.098  16.656   8.902 -0.1296 -0.0888  0.0449
  647ERGO    C2 9220   9.133  16.557   8.544 -0.2507 -0.3685  0.0877
  648ERGO   ROH 9221   9.803   9.104  10.157 -0.1319 -0.0954  0.0342
  648ERGO    R1 9222   9.699   9.089   9.894 -0.0701  0.0756 -0.0008
  648ERGO    R2 9223   9.689   9.308   9.726  0.1069  0.1519  0.0866
  648ERGO    R3 9224   9.825   9.144   9.557  0.0539  0.1401  0.0549
  648ERGO    R4 9225   9.751   9.376   9.393 -0.0902  0.0834  0.0341
  648ERGO    R5 9226   9.710   9.167   9.348 -0.0666  0.0607  0.1100
  648ERGO    C1 9227   9.915   9.261   9.040 -0.2548  0.0326 -0.0261
  648ERGO    C2 9228  10.173   9.299   8.793 -0.2962 -0.0701 -0.0933
  649ERGO   ROH 9229  15.246  11.665   9.955 -0.0755 -0.0789  0.0393
  649ERGO    R1 9230  15.291  11.654   9.676  0.0426 -0.0562  0.0570
  649ERGO    R2 9231  15.117  11.529   9.502  0.1632 -0.1237 -0.0162
  649ERGO    R3 9232  15.121  11.769   9.376  0.1175 -0.1197 -0.0104
  649ERGO    R4 9233  14.970  11.593   9.196 -0.1500 -0.0546  0.1443
  649ERGO    R5 9234  15.144  11.714   9.144 -0.1581 -0.1195 -0.0412
  649ERGO    C1 9235  14.888  11.856   8.899 -0.3753 -0.0106  0.2432
  649ERGO    C2 9236  14.916  11.896   8.614 -0.0651 -0.1679 -0.1607
  650ERGO   ROH 9237   8.485   5.711  10.289 -0.0851 -0.0172  0.0915
  650ERGO    R1 9238   8.311   5.785  10.079 -0.1117 -0.0953  0.0841
  650ERGO    R2 9239   8.270   6.048  10.004 -0.2375 -0.1063  0.0877
  650ERGO    R3 9240   8.340   5.954   9.759 -0.1742 -0.0708  0.0936
  650ERGO    R4 9241   8.145   6.166   9.705 -0.2408 -0.1526  0.0719
  650ERGO    R5 9242   8.137   5.961   9.632 -0.1536 -0.1467  0.0664
  650ERGO    C1 9243   8.137   6.147   9.299 -0.1832 -0.1463  0.0683
  650ERGO    C2 9244   7.864   6.410   9.026  0.2477 -0.0683  0.0971
  651ERGO   ROH 9245  10.115   4.465   9.614 -0.0230  0.0378 -0.1060
  651ERGO    R1 9246  10.197   4.405   9.350  0.0177  0.1980 -0.1305
  651ERGO    R2 9247  10.082   4.204   9.200  0.3173  0.0111 -0.1190
  651ERGO    R3 9248  10.045   4.404   9.020 -0.0624 -0.0289 -0.0950
  651ERGO    R4 9249  10.107   4.168   8.857  0.5035  0.1182 -0.1179
  651ERGO    R5 9250  10.208   4.361   8.849  0.0927  0.3488 -0.0534
  651ERGO    C1 9251  10.088   4.335   8.488  0.2554  0.1431 -0.0946
  651ERGO    C2 9252  10.046   4.336   8.119 -0.1792 -0.0033  0.1584
  652ERGO   ROH 9253  14.666  10.727   9.614 -0.0716  0.1715 -0.0073
  652ERGO    R1 9254  14.773  10.642   9.366  0.0955  0.1309  0.0770
  652ERGO    R2 9255  14.635  10.668   9.128  0.1058 -0.2311  0.0252
  652ERGO    R3 9256  14.860  10.798   9.049 -0.0503  0.0191 -0.0193
  652ERGO    R4 9257  14.730  10.717   8.799  0.0943 -0.3136  0.0095
  652ERGO    R5 9258  14.936  10.675   8.857  0.1432 -0.0050  0.0707
  652ERGO    C1 9259  14.997  10.867   8.533 -0.0590 -0.1268 -0.0416
  652ERGO    C2 9260  14.917  11.057   8.186 -0.1226  0.0471 -0.2123
  653ERGO   ROH 9261   9.528   5.356  10.043 -0.0573  0.1096  0.0006
  653ERGO    R1 9262   9.559   5.334   9.763 -0.0140  0.1106  0.0054
  653ERGO    R2 9263   9.460   5.119   9.618  0.0025  0.1139 -0.0114
  653ERGO    R3 9264   9.340   5.315   9.473  0.0305  0.1189 -0.0287
  653ERGO    R4 9265   9.304   5.073   9.313 -0.0282  0.1076  0.0050
  653ERGO    R5 9266   9.390   5.261   9.246  0.0035  0.0813 -0.0250
  653ERGO    C1 9267   9.100   5.230   9.000 -0.0196  0.1085 -0.0018
  653ERGO    C2 9268   8.952   5.058   8.686  0.2713 -0.1798 -0.3369
  654ERGO   ROH 9269  16.860  14.168  10.209  0.2126 -0.0468  0.0088
  654ERGO    R1 9270  16.815  14.170   9.929  0.0780 -0.1337  0.0291
  654ERGO    R2 9271  16.929  14.358   9.761 -0.1177 -0.0975 -0.0655
  654ERGO    R3 9272  17.017  14.138   9.628 -0.0443 -0.0715 -0.0605
  654ERGO    R4 9273  16.998  14.346   9.423  0.0422 -0.0383 -0.0357
  654ERGO    R5 9274  16.907  14.148   9.416  0.0546 -0.0421 -0.1112
  654ERGO    C1 9275  17.121  14.132   9.101  0.2043  0.0205 -0.0136
  654ERGO    C2 9276  17.101  14.066   8.762 -0.1781  0.1669  0.4056
  655ERGO   ROH 9277   4.643   5.766  10.381  0.0742 -0.3194  0.0987
  655ERGO    R1 9278   4.810   5.808  10.157 -0.0387  0.0180  0.0727
  655ERGO    R2 9279   4.866   5.607   9.974  0.2768  0.1494  0.0270
  655ERGO    R3 9280   4.775   5.790   9.795 -0.0781  0.0272  0.0748
  655ERGO    R4 9281   4.888   5.576   9.631  0.1640  0.1901  0.0148
  655ERGO    R5 9282   4.937   5.788   9.619 -0.1499  0.2701 -0.0020
  655ERGO    C1 9283   4.815   5.730   9.262 -0.2349  0.0990  0.0525
  655ERGO    C2 9284   4.605   5.532   9.006 -0.0715  0.0855  0.0988
  656ERGO   ROH 9285   6.456  14.689  10.092  0.1153 -0.0965 -0.0323
  656ERGO    R1 9286   6.516  14.779   9.831  0.0966 -0.3027 -0.1105
  656ERGO    R2 9287   6.451  14.634   9.604 -0.3649 -0.2618 -0.0186
  656ERGO    R3 9288   6.329  14.865   9.531  0.0279 -0.0373  0.0072
  656ERGO    R4 9289   6.398  14.734   9.278 -0.0942 -0.0653 -0.0058
  656ERGO    R5 9290   6.449  14.937   9.337  0.2109 -0.1642  0.0741
  656ERGO    C1 9291   6.251  15.009   9.019  0.4322  0.2601  0.0258
  656ERGO    C2 9292   6.071  14.886   8.707  0.0485  0.2396  0.0706
  657ERGO   ROH 9293  14.266  13.542   9.983 -0.1729 -0.2952 -0.0521
  657ERGO    R1 9294  14.370  13.632   9.735 -0.0316 -0.0456  0.0942
  657ERGO    R2 9295  14.336  13.491   9.500  0.2851  0.0808 -0.0311
  657ERGO    R3 9296  14.235  13.727   9.411  0.1691  0.0585  0.0397
  657ERGO    R4 9297  14.313  13.583   9.168 -0.0499  0.0398 -0.0222
  657ERGO    R5 9298  14.374  13.785   9.224 -0.0182  0.0539 -0.1041
  657ERGO    C1 9299  14.204  13.858   8.890 -0.3538 -0.0052  0.0494
  657ERGO    C2 9300  14.012  13.703   8.607 -0.2201  0.4523  0.0535
  658ERGO   ROH 9301   1.197  16.210  10.393 -0.1262 -0.0563  0.0712
  658ERGO    R1 9302   1.139  16.141  10.124 -0.3346  0.1166  0.0692
  658ERGO    R2 9303   1.030  16.320   9.945  0.0018  0.3897  0.1280
  658ERGO    R3 9304   1.245  16.250   9.794 -0.1710 -0.0404  0.0688
  658ERGO    R4 9305   1.089  16.430   9.622  0.0908  0.2017  0.0791
  658ERGO    R5 9306   1.157  16.229   9.572 -0.2883  0.0595  0.1050
  658ERGO    C1 9307   1.325  16.427   9.293 -0.0196 -0.3116 -0.0052
  658ERGO    C2 9308   1.270  16.718   8.981  0.2291 -0.2942 -0.1480
  659ERGO   ROH 9309  14.727   6.681   9.680  0.2360 -0.1219 -0.0528
  659ERGO    R1 9310  14.607   6.581   9.443  0.0113  0.0461 -0.0142
  659ERGO    R2 9311  14.464   6.741   9.269  0.2123  0.2638  0.0136
  659ERGO    R3 9312  14.638   6.641   9.086  0.0115 -0.0260 -0.0260
  659ERGO    R4 9313  14.379   6.644   8.949 -0.0371  0.2807  0.0728
  659ERGO    R5 9314  14.513   6.474   8.970 -0.2577  0.1060  0.0693
  659ERGO    C1 9315  14.493   6.494   8.590 -0.3709  0.0185  0.0699
  659ERGO    C2 9316  14.330   6.424   8.294 -0.0342 -0.1508  0.2203
  660ERGO   ROH 9317   1.682  12.042  10.390 -0.2995  0.1327  0.1265
  660ERGO    R1 9318   1.759  11.869  10.179 -0.0681  0.0443  0.2796
  660ERGO    R2 9319   1.604  11.832   9.953  0.0331 -0.2798  0.2594
  660ERGO    R3 9320   1.833  11.902   9.824  0.0042 -0.1542  0.2748
  660ERGO    R4 9321   1.661  11.791   9.614  0.0614 -0.2053  0.2548
  660ERGO    R5 9322   1.865  11.730   9.661  0.0893 -0.1167  0.2512
  660ERGO    C1 9323   1.909  11.833   9.296  0.0507 -0.0441  0.2666
  660ERGO    C2 9324   1.947  11.905   9.003  0.1607 -0.1299 -0.1346
  661ERGO   ROH 9325  11.848  10.787  10.252 -0.2143 -0.0878  0.0661
  661ERGO    R1 9326  11.937  10.763   9.985 -0.0484  0.1228  0.1000
  661ERGO    R2 9327  11.802  10.613   9.796  0.2328  0.0168 -0.0235
  661ERGO    R3 9328  11.808  10.846   9.654  0.0090  0.0812  0.0676
  661ERGO    R4 9329  11.779  10.636   9.451  0.2807  0.1302 -0.0202
  661ERGO    R5 9330  11.932  10.791   9.456  0.1100  0.2956  0.0709
  661ERGO    C1 9331  11.771  10.866   9.118  0.0985  0.2566  0.0673
  661ERGO    C2 9332  11.635  10.733   8.746 -0.1544  0.0399 -0.2578
  662ERGO   ROH 9333  16.474   6.582   9.884  0.2373 -0.2975  0.0170
  662ERGO    R1 9334  16.499   6.710   9.633  0.0468 -0.1809  0.0554
  662ERGO    R2 9335  16.651   6.606   9.427  0.0809  0.0302 -0.0305
  662ERGO    R3 9336  16.420   6.631   9.286  0.0133 -0.1257  0.0508
  662ERGO    R4 9337  16.620   6.551   9.087  0.0087  0.0683 -0.0301
  662ERGO    R5 9338  16.488   6.724   9.076 -0.1314 -0.0335  0.0448
  662ERGO    C1 9339  16.384   6.542   8.757 -0.0970 -0.0558  0.0465
  662ERGO    C2 9340  16.351   6.341   8.510 -0.1931 -0.3029 -0.1850
  663ERGO   ROH 9341   8.772  16.095  10.398 -0.2050 -0.1448  0.1107
  663ERGO    R1 9342   8.638  15.990  10.171 -0.1276 -0.0333  0.0114
  663ERGO    R2 9343   8.620  16.128   9.932  0.1090  0.0118  0.0113
  663ERGO    R3 9344   8.728  15.900   9.830  0.0364 -0.0425  0.0579
  663ERGO    R4 9345   8.592  16.025   9.603  0.1162 -0.0351  0.0259
  663ERGO    R5 9346   8.565  15.821   9.674  0.0331 -0.0090  0.0511
  663ERGO    C1 9347   8.676  15.751   9.317  0.0523 -0.1133  0.0783
  663ERGO    C2 9348   8.716  15.634   8.992 -0.0896  0.2344  0.2624
  664ERGO   ROH 9349  17.570   9.996   9.851 -0.0451  0.1597  0.0870
  664ERGO    R1 9350  17.593  10.065   9.578  0.0918 -0.0235  0.0498
  664ERGO    R2 9351  17.784   9.953   9.411  0.0580 -0.2745  0.1719
  664ERGO    R3 9352  17.567   9.893   9.259  0.0549 -0.1996  0.1473
  664ERGO    R4 9353  17.785   9.933   9.067  0.0536 -0.1339  0.1636
  664ERGO    R5 9354  17.590  10.031   9.065  0.0608 -0.1231  0.2040
  664ERGO    C1 9355  17.582   9.864   8.722  0.0479  0.0182  0.1354
  664ERGO    C2 9356  17.533  10.000   8.383  0.0616  0.0901  0.2150
  665ERGO   ROH 9357  13.465   3.868   8.635  0.0796 -0.0529 -0.0231
  665ERGO    R1 9358  13.465   3.841   8.353  0.1505 -0.1139 -0.0165
  665ERGO    R2 9359  13.466   4.058   8.182  0.0434 -0.1524 -0.0592
  665ERGO    R3 9360  13.684   3.934   8.079  0.1427 -0.0339  0.0019
  665ERGO    R4 9361  13.584   4.100   7.860 -0.0780 -0.3121 -0.1262
  665ERGO    R5 9362  13.624   3.887   7.852  0.1279 -0.2889  0.0518
  665ERGO    C1 9363  13.857   4.007   7.575 -0.0555 -0.2938 -0.1077
  665ERGO    C2 9364  14.065   4.083   7.346 -0.0042  0.0920  0.2495
  666ERGO   ROH 9365   9.700  15.850  10.153 -0.0888  0.0560  0.0825
  666ERGO    R1 9366   9.621  15.974   9.911 -0.0706  0.0552  0.0752
  666ERGO    R2 9367   9.801  16.042   9.713 -0.0423  0.1388  0.1247
  666ERGO    R3 9368   9.635  15.894   9.556  0.0468  0.0965  0.0712
  666ERGO    R4 9369   9.783  16.064   9.368  0.1360  0.0546  0.1094
  666ERGO    R5 9370   9.566  16.045   9.384  0.1313  0.0499 -0.0012
  666ERGO    C1 9371   9.617  15.938   9.021  0.3236 -0.0343  0.0503
  666ERGO    C2 9372   9.566  15.815   8.770 -0.1192 -0.1490  0.1737
  667ERGO   ROH 9373  17.434   4.466  10.429  0.1950 -0.1466  0.1261
  667ERGO    R1 9374  17.418   4.499  10.148  0.0566 -0.1851  0.1269
  667ERGO    R2 9375  17.508   4.727  10.019 -0.2174 -0.0944  0.0673
  667ERGO    R3 9376  17.652   4.548   9.874 -0.0891  0.0305  0.0425
  667ERGO    R4 9377  17.579   4.757   9.683 -0.0164  0.1101  0.1269
  667ERGO    R5 9378  17.544   4.543   9.661  0.0504  0.1247 -0.0224
  667ERGO    C1 9379  17.756   4.606   9.350  0.2212  0.3466  0.1385
  667ERGO    C2 9380  17.944   4.656   9.045  0.0277  0.0719  0.2698
  668ERGO   ROH 9381   3.313  10.307  10.278 -0.1566  0.0881 -0.0731
  668ERGO    R1 9382   3.308  10.381  10.005  0.2348  0.1778 -0.0612
  668ERGO    R2 9383   3.534  10.375   9.845  0.3404 -0.4425  0.0868
  668ERGO    R3 9384   3.378  10.219   9.686 -0.0276  0.0416 -0.0531
  668ERGO    R4 9385   3.568  10.345   9.502  0.4905 -0.4601  0.1019
  668ERGO    R5 9386   3.351  10.346   9.485  0.4833  0.1844 -0.0486
  668ERGO    C1 9387   3.441  10.181   9.154  0.2324 -0.0158 -0.0207
  668ERGO    C2 9388   3.500  10.103   8.857 -0.1552 -0.1307 -0.1593
  669ERGO   ROH 9389   4.464  11.222  10.257  0.0339  0.1880  0.0778
  669ERGO    R1 9390   4.525  11.175   9.984 -0.1915  0.0094  0.0550
  669ERGO    R2 9391   4.330  11.155   9.789 -0.3403  0.2178  0.1776
  669ERGO    R3 9392   4.475  11.350   9.669 -0.1327 -0.0238  0.0273
  669ERGO    R4 9393   4.413  11.161   9.454 -0.3541 -0.1120  0.1652
  669ERGO    R5 9394   4.611  11.233   9.509 -0.2685 -0.2872  0.0984
  669ERGO    C1 9395   4.599  11.347   9.146 -0.1672 -0.5310  0.0168
  669ERGO    C2 9396   4.878  11.527   8.929 -0.0034 -0.0036  0.2763
  670ERGO   ROH 9397  16.202   7.626   9.839 -0.0336  0.0593 -0.0208
  670ERGO    R1 9398  16.328   7.595   9.588 -0.1174 -0.0483 -0.0516
  670ERGO    R2 9399  16.194   7.504   9.364 -0.2583  0.0928 -0.0320
  670ERGO    R3 9400  16.289   7.734   9.254 -0.0605  0.0123 -0.0320
  670ERGO    R4 9401  16.216   7.565   9.025 -0.3755  0.1510 -0.0288
  670ERGO    R5 9402  16.409   7.661   9.059 -0.2499 -0.0749 -0.1143
  670ERGO    C1 9403  16.317   7.817   8.724 -0.2579  0.1093 -0.0269
  670ERGO    C2 9404  16.297   7.879   8.453 -0.0473 -0.0561 -0.1504
  671ERGO   ROH 9405  16.208   5.155  10.212  0.1882 -0.0416 -0.0836
  671ERGO    R1 9406  16.246   5.064   9.947  0.0124  0.1095 -0.1625
  671ERGO    R2 9407  16.041   4.961   9.793 -0.0887  0.1991 -0.0839
  671ERGO    R3 9408  16.121   5.152   9.616 -0.2063  0.2982 -0.0330
  671ERGO    R4 9409  15.964   4.963   9.456  0.0335  0.1574 -0.1130
  671ERGO    R5 9410  16.167   5.031   9.415 -0.0123  0.3606 -0.0300
  671ERGO    C1 9411  15.995   5.143   9.094 -0.0057  0.2262 -0.0820
  671ERGO    C2 9412  15.775   5.258   8.865  0.2112  0.0615  0.1330
  672ERGO   ROH 9413  11.575  12.224  10.441  0.0914 -0.0567  0.2596
  672ERGO    R1 9414  11.555  12.065  10.208 -0.0222 -0.0213  0.2441
  672ERGO    R2 9415  11.715  12.106   9.986 -0.1901  0.0688  0.1373
  672ERGO    R3 9416  11.774  11.842  10.020 -0.0823  0.0813  0.0500
  672ERGO    R4 9417  11.860  11.903   9.746 -0.1877  0.1866  0.0387
  672ERGO    R5 9418  11.725  11.743   9.808 -0.1100  0.1202  0.0378
  672ERGO    C1 9419  11.999  11.538   9.638 -0.0849  0.2670 -0.1006
  672ERGO    C2 9420  12.243  11.262   9.604 -0.2991  0.2154 -0.1674
  673ERGO   ROH 9421   9.910   1.609  10.219  0.0112  0.3547 -0.0917
  673ERGO    R1 9422   9.952   1.615   9.939 -0.0111 -0.0414 -0.1096
  673ERGO    R2 9423   9.917   1.392   9.779 -0.3755 -0.1903  0.1518
  673ERGO    R3 9424   9.751   1.558   9.641 -0.1410 -0.0887 -0.0117
  673ERGO    R4 9425   9.803   1.334   9.458 -0.3447 -0.2590  0.1539
  673ERGO    R5 9426   9.831   1.546   9.415 -0.0874 -0.3236  0.0227
  673ERGO    C1 9427   9.581   1.456   9.141 -0.1065 -0.2036  0.0014
  673ERGO    C2 9428   9.419   1.388   8.847  0.3125  0.1662 -0.2397
  674ERGO   ROH 9429   7.266  12.419  10.173  0.0128 -0.1634  0.1899
  674ERGO    R1 9430   7.418  12.453   9.937 -0.0154  0.0801  0.2061
  674ERGO    R2 9431   7.465  12.246   9.760  0.1510  0.2121  0.1081
  674ERGO    R3 9432   7.362  12.420   9.579  0.0151  0.2164  0.1857
  674ERGO    R4 9433   7.543  12.250   9.423  0.0518  0.3232  0.0840
  674ERGO    R5 9434   7.544  12.468   9.431 -0.0411  0.3315  0.1410
  674ERGO    C1 9435   7.491  12.417   9.057 -0.1337  0.3921  0.1429
  674ERGO    C2 9436   7.505  12.337   8.675 -0.2511 -0.1413 -0.0166
  675loPI    C1 9437   9.217   9.962   5.824 -0.1514 -0.1961 -0.0454
  675loPI    C2 9438   9.026   9.840   5.494 -0.0598 -0.1687 -0.1091
  675loPI    C3 9439   9.224  10.187   5.493  0.0196 -0.2135 -0.0542
  675loPI   PO4 9440   9.357   9.779   5.914  0.1171  0.1813  0.3451
  675loPI   GL1 9441   9.687   9.798   6.227  0.0298  0.0738 -0.1788
  675loPI   GL2 9442   9.973  10.018   6.123 -0.3208  0.1093 -0.2174
  675loPI   C1A 9443   9.611   9.837   6.656  0.1570 -0.0643 -0.0815
  675loPI   C2A 9444   9.651   9.661   7.038 -0.2937  0.0860  0.2048
  675loPI   C3A 9445   9.632   9.587   7.439 -0.0832  0.2083  0.0377
  675loPI   C4A 9446   9.730   9.543   7.822  0.4795  0.0593  0.0752
  675loPI   C5A 9447   9.995   9.188   7.989  0.1455  0.1840 -0.0639
  675loPI   C6A 9448  10.345   8.933   7.768  0.2500  0.0909 -0.1273
  675loPI   C1B 9449  10.048  10.106   6.583 -0.1347  0.1400  0.3896
  675loPI   C2B 9450  10.022  10.013   7.044  0.1043  0.1522 -0.3043
  675loPI   C3B 9451  10.058   9.821   7.420  0.1476 -0.0502 -0.0069
  675loPI   C4B 9452  10.211   9.711   7.877  0.0255 -0.2862  0.3251
  676loPI    C1 9453  11.474  16.894   5.181 -0.0276 -0.0075  0.1917
  676loPI    C2 9454  11.166  16.874   4.927  0.0003  0.0457  0.1535
  676loPI    C3 9455  11.335  17.227   5.009  0.3323 -0.0337 -0.1648
  676loPI   PO4 9456  11.422  16.715   5.357  0.0852 -0.0689 -0.1067
  676loPI   GL1 9457  11.386  16.889   5.808 -0.0850  0.2394  0.1599
  676loPI   GL2 9458  11.147  17.126   5.912  0.1312 -0.3008  0.1612
  676loPI   C1A 9459  11.488  16.681   6.222  0.0789 -0.0834  0.1982
  676loPI   C2A 9460  11.673  16.600   6.606  0.1421 -0.1093  0.0165
  676loPI   C3A 9461  11.682  16.653   7.123 -0.1326 -0.0984 -0.1577
  676loPI   C4A 9462  11.783  16.673   7.551 -0.1247  0.0920 -0.0673
  676loPI   C5A 9463  11.890  16.658   7.967  0.0700  0.1509 -0.0550
  676loPI   C6A 9464  12.263  16.870   8.140  0.1075 -0.1885  0.1284
  676loPI   C1B 9465  11.388  17.173   6.264  0.3137  0.0192  0.4859
  676loPI   C2B 9466  11.394  17.200   6.656  0.2686 -0.0413  0.0844
  676loPI   C3B 9467  11.370  17.100   7.134  0.2993 -0.1538  0.1355
  676loPI   C4B 9468  11.389  17.136   7.506  0.0236 -0.1636 -0.0505
  677loPI    C1 9469   1.090   0.889   5.421 -0.2519  0.0036 -0.1694
  677loPI    C2 9470   1.484   0.845   5.479 -0.3288 -0.1204  0.3017
  677loPI    C3 9471   1.294   0.618   5.209 -0.0277  0.1649 -0.1635
  677loPI   PO4 9472   1.028   1.002   5.639  0.2282  0.2352  0.1029
  677loPI   GL1 9473   0.821   1.032   5.978  0.2953  0.0849  0.1271
  677loPI   GL2 9474   0.801   0.747   6.117  0.2212  0.1221  0.2070
  677loPI   C1A 9475   0.655   1.037   6.434 -0.0156 -0.0475 -0.1258
  677loPI   C2A 9476   0.713   0.929   6.818 -0.3530  0.2380 -0.2316
  677loPI   C3A 9477   0.917   0.771   7.195  0.2323 -0.0405  0.0633
  677loPI   C4A 9478   0.972   0.422   7.446  0.1523 -0.0787  0.0897
  677loPI   C5A 9479   1.192   0.447   7.934 -0.1201 -0.0517 -0.0631
  677loPI   C6A 9480   1.573   0.364   8.064  0.0402  0.0479 -0.4187
  677loPI   C1B 9481   0.691   0.465   6.581  0.1243 -0.3288  0.1513
  677loPI   C2B 9482   0.576   0.444   7.020 -0.2783 -0.2783 -0.1217
  677loPI   C3B 9483   0.480   0.564   7.411  0.0026 -0.1351  0.1438
  677loPI   C4B 9484   0.650   0.447   7.778  0.3174  0.1289 -0.2404
  678loPI    C1 9485   3.613   6.082   5.818 -0.1645  0.0592 -0.0309
  678loPI    C2 9486   3.444   5.732   5.723 -0.1173  0.0184  0.0343
  678loPI    C3 9487   3.599   5.963   5.436  0.1373 -0.1626  0.0229
  678loPI   PO4 9488   3.764   6.021   6.021 -0.2119  0.1152 -0.1816
  678loPI   GL1 9489   3.932   5.989   6.381 -0.1296 -0.0872  0.0561
  678loPI   GL2 9490   3.981   5.608   6.416  0.0680 -0.0203 -0.0206
  678loPI   C1A 9491   4.113   5.950   6.733  0.1457  0.0580 -0.0503
  678loPI   C2A 9492   4.319   5.838   7.147 -0.2009  0.0347  0.0635
  678loPI   C3A 9493   4.511   5.750   7.504  0.1904 -0.0004 -0.2045
  678loPI   C4A 9494   4.444   5.675   7.884  0.0949 -0.0111 -0.0315
  678loPI   C5A 9495   4.425   5.421   8.223  0.1871 -0.0498  0.0269
  678loPI   C6A 9496   4.437   5.213   8.596 -0.0651  0.0491 -0.1338
  678loPI   C1B 9497   4.115   5.437   6.853  0.0722  0.2338  0.0998
  678loPI   C2B 9498   4.257   5.290   7.275 -0.0959 -0.0142 -0.1235
  678loPI   C3B 9499   4.249   5.244   7.774  0.2013 -0.1253 -0.4228
  678loPI   C4B 9500   4.233   4.999   8.167 -0.2132 -0.1794  0.3832
  679loPI    C1 9501  13.198  12.510   5.626 -0.1134 -0.1599  0.1767
  679loPI    C2 9502  13.579  12.391   5.657  0.0119  0.1955  0.0500
  679loPI    C3 9503  13.372  12.312   5.325  0.0331  0.1614  0.0449
  679loPI   PO4 9504  13.070  12.405   5.761 -0.2863 -0.1739  0.1967
  679loPI   GL1 9505  12.998  12.597   6.124  0.2451 -0.0404 -0.3287
  679loPI   GL2 9506  12.978  12.838   6.244 -0.1352 -0.0107 -0.0996
  679loPI   C1A 9507  13.164  12.440   6.551  0.0113  0.1306  0.1043
  679loPI   C2A 9508  13.249  12.324   6.966  0.1579  0.0556  0.1809
  679loPI   C3A 9509  13.381  12.278   7.437  0.1221 -0.0338  0.1823
  679loPI   C4A 9510  13.385  12.109   7.810  0.1417 -0.1924  0.2379
  679loPI   C5A 9511  13.154  11.796   7.951  0.0427 -0.1073 -0.1648
  679loPI   C6A 9512  13.225  11.299   8.106  0.0971 -0.1270 -0.1094
  679loPI   C1B 9513  12.937  13.223   6.460 -0.1913  0.0916  0.1095
  679loPI   C2B 9514  12.858  13.241   6.930 -0.0376  0.1590 -0.0854
  679loPI   C3B 9515  12.962  13.279   7.433  0.3093  0.4361  0.0915
  679loPI   C4B 9516  13.162  13.315   7.857  0.2247  0.1171 -0.1598
  680loPI    C1 9517   3.700   7.059   5.645  0.0089  0.3021 -0.0298
  680loPI    C2 9518   3.916   6.970   5.320  0.1074 -0.0754  0.1339
  680loPI    C3 9519   3.516   6.956   5.305  0.1140 -0.2066  0.0593
  680loPI   PO4 9520   3.730   6.958   5.815  0.0985 -0.1221  0.1370
  680loPI   GL1 9521   3.635   6.956   6.219 -0.2586 -0.0880  0.0905
  680loPI   GL2 9522   3.445   7.238   6.186 -0.0068 -0.2267 -0.1534
  680loPI   C1A 9523   3.784   6.841   6.618 -0.1513 -0.0802  0.0456
  680loPI   C2A 9524   3.918   6.988   7.007 -0.1271 -0.2659 -0.0301
  680loPI   C3A 9525   3.977   6.970   7.371 -0.1594 -0.3058 -0.2115
  680loPI   C4A 9526   4.185   6.975   7.759 -0.0045  0.1199  0.0042
  680loPI   C5A 9527   4.461   6.672   7.875  0.0230 -0.2008 -0.0063
  680loPI   C6A 9528   4.470   6.501   8.344 -0.3953  0.0305 -0.0164
  680loPI   C1B 9529   3.536   7.352   6.547  0.1863  0.0716  0.2190
  680loPI   C2B 9530   3.667   7.493   7.002 -0.1651 -0.0824 -0.1339
  680loPI   C3B 9531   3.646   7.379   7.456 -0.0302 -0.0170  0.2971
  680loPI   C4B 9532   3.576   7.304   7.945 -0.2542 -0.0230 -0.0211
  681loPI    C1 9533   6.795   5.969   5.575  0.0363 -0.1825  0.1320
  681loPI    C2 9534   7.087   5.744   5.421 -0.0998 -0.2893  0.0269
  681loPI    C3 9535   6.795   5.881   5.184 -0.0259 -0.0125  0.0926
  681loPI   PO4 9536   6.711   5.900   5.830 -0.0074 -0.2088  0.2592
  681loPI   GL1 9537   6.277   5.845   5.960 -0.0067  0.1284  0.0011
  681loPI   GL2 9538   6.426   5.529   5.850  0.1875 -0.1221 -0.3055
  681loPI   C1A 9539   6.342   5.890   6.431  0.0528 -0.1020  0.0089
  681loPI   C2A 9540   6.600   5.767   6.724 -0.1013 -0.1006  0.1514
  681loPI   C3A 9541   6.759   5.474   7.069  0.0314  0.0626  0.1634
  681loPI   C4A 9542   6.826   5.089   7.399 -0.0622  0.0888  0.2014
  681loPI   C5A 9543   6.657   4.853   7.766  0.1517  0.2086 -0.0127
  681loPI   C6A 9544   6.750   4.584   8.017 -0.0586  0.0847  0.1978
  681loPI   C1B 9545   6.516   5.434   6.288  0.1548  0.2423 -0.1537
  681loPI   C2B 9546   6.765   5.296   6.608 -0.3370  0.2103  0.2706
  681loPI   C3B 9547   6.919   5.042   6.899  0.0967  0.0200  0.2305
  681loPI   C4B 9548   6.977   4.693   7.079 -0.2300 -0.0518 -0.2062
  682loPI    C1 9549   3.771   0.325   5.486 -0.1274  0.1942 -0.2810
  682loPI    C2 9550   3.409   0.234   5.341 -0.0164 -0.2271 -0.3070
  682loPI    C3 9551   3.584   0.580   5.241 -0.4991  0.0803 -0.1234
  682loPI   PO4 9552   3.703   0.181   5.742 -0.0717 -0.1939  0.1676
  682loPI   GL1 9553   3.436   0.202   6.126  0.1876  0.1201 -0.2114
  682loPI   GL2 9554   3.200   0.021   6.353  0.1983 -0.1320  0.1957
  682loPI   C1A 9555   3.710   0.316   6.537  0.1651  0.0224 -0.1184
  682loPI   C2A 9556   3.842   0.351   6.941 -0.1043 -0.1363  0.0977
  682loPI   C3A 9557   3.957   0.348   7.406 -0.1326  0.0977 -0.2017
  682loPI   C4A 9558   3.798   0.173   7.843  0.1593 -0.0600 -0.0558
  682loPI   C5A 9559   3.849   0.032   8.332  0.0019 -0.1508  0.2129
  682loPI   C6A 9560   3.789  -0.246   8.688 -0.1223  0.2167  0.1115
  682loPI   C1B 9561   3.049  -0.217   6.721 -0.1715 -0.0195 -0.3487
  682loPI   C2B 9562   3.220  -0.213   7.192 -0.1709  0.3047 -0.0318
  682loPI   C3B 9563   3.297  -0.027   7.644 -0.1065 -0.0341 -0.2431
  682loPI   C4B 9564   3.314   0.234   8.000 -0.1290 -0.1025 -0.1853
  683loPI    C1 9565   4.054   6.160   5.330  0.1607 -0.0856 -0.0837
  683loPI    C2 9566   4.120   6.543   5.235  0.0643 -0.0085  0.1516
  683loPI    C3 9567   3.823   6.341   5.058  0.2322 -0.0321 -0.1092
  683loPI   PO4 9568   4.096   6.209   5.664 -0.2748  0.2267  0.1891
  683loPI   GL1 9569   4.291   6.377   6.012  0.1032  0.0709  0.1788
  683loPI   GL2 9570   4.487   6.547   6.144  0.0623  0.0832  0.1201
  683loPI   C1A 9571   4.440   6.101   6.385 -0.4239  0.3215  0.0186
  683loPI   C2A 9572   4.594   6.095   6.766 -0.1104 -0.2717  0.1214
  683loPI   C3A 9573   4.801   6.057   7.152 -0.4211  0.0730  0.2013
  683loPI   C4A 9574   4.934   5.968   7.590 -0.3310  0.1667 -0.2050
  683loPI   C5A 9575   4.916   5.772   7.957 -0.0279 -0.1811  0.0613
  683loPI   C6A 9576   5.084   5.417   8.018  0.1166 -0.0641 -0.0187
  683loPI   C1B 9577   4.693   6.589   6.545  0.0310  0.0555  0.0889
  683loPI   C2B 9578   4.812   6.558   6.927 -0.0847 -0.1275  0.0878
  683loPI   C3B 9579   4.885   6.661   7.418  0.0116  0.2996  0.1736
  683loPI   C4B 9580   4.949   6.524   7.794 -0.1844 -0.0449  0.2323
  684loPI    C1 9581   4.444  16.517   6.155  0.0719 -0.0480  0.0666
  684loPI    C2 9582   4.299  16.147   6.117  0.0170 -0.0094 -0.1108
  684loPI    C3 9583   4.226  16.420   5.834  0.1273  0.1138 -0.0214
  684loPI   PO4 9584   4.703  16.501   6.185 -0.1060 -0.1261  0.0671
  684loPI   GL1 9585   4.960  16.398   6.541 -0.1815  0.1643 -0.2238
  684loPI   GL2 9586   5.183  16.203   6.460 -0.1378 -0.3076 -0.0495
  684loPI   C1A 9587   4.917  16.265   6.932  0.4050  0.0172 -0.0370
  684loPI   C2A 9588   4.939  16.159   7.301 -0.0270  0.1009  0.0190
  684loPI   C3A 9589   4.897  16.430   7.654 -0.1231 -0.0338  0.0072
  684loPI   C4A 9590   4.891  16.328   8.087 -0.1410  0.0650  0.3736
  684loPI   C5A 9591   4.676  16.100   8.379 -0.2465 -0.0575  0.0789
  684loPI   C6A 9592   4.759  16.086   8.771  0.0768  0.0026  0.1073
  684loPI   C1B 9593   5.448  16.176   6.784  0.3271 -0.1340  0.2090
  684loPI   C2B 9594   5.413  16.198   7.168  0.1779 -0.1493 -0.0592
  684loPI   C3B 9595   5.405  16.163   7.603  0.1198 -0.0857  0.2321
  684loPI   C4B 9596   5.436  16.331   7.949 -0.0914 -0.1349  0.3500
  685loPI    C1 9597   5.400   7.194   5.634 -0.1108  0.2481  0.0719
  685loPI    C2 9598   5.066   7.131   5.845 -0.0669  0.0914  0.0957
  685loPI    C3 9599   5.064   7.081   5.448  0.0273 -0.3054  0.1407
  685loPI   PO4 9600   5.630   7.075   5.720  0.2152  0.2187  0.0072
  685loPI   GL1 9601   5.529   6.894   6.142  0.0393  0.3002  0.2060
  685loPI   GL2 9602   5.188   6.776   6.253  0.0449  0.0341  0.0034
  685loPI   C1A 9603   5.674   6.913   6.634 -0.2009  0.1514 -0.0797
  685loPI   C2A 9604   5.792   6.930   7.103 -0.0611  0.0442 -0.1766
  685loPI   C3A 9605   5.948   6.821   7.579  0.4145  0.0235  0.2815
  685loPI   C4A 9606   6.296   6.776   7.772  0.0631  0.0141 -0.0663
  685loPI   C5A 9607   6.706   6.596   7.865 -0.1055 -0.2629 -0.0983
  685loPI   C6A 9608   6.930   6.359   8.195  0.1751 -0.0418 -0.0294
  685loPI   C1B 9609   5.285   6.691   6.638 -0.0845 -0.0876 -0.2059
  685loPI   C2B 9610   5.288   6.720   7.059  0.0825 -0.0886 -0.0183
  685loPI   C3B 9611   5.399   6.740   7.394  0.0458 -0.0746 -0.1569
  685loPI   C4B 9612   5.503   6.548   7.742 -0.0973  0.2036  0.2958
  686loPI    C1 9613  10.296  12.789   5.779  0.1193 -0.0993 -0.0728
  686loPI    C2 9614  10.145  13.058   5.524 -0.1606  0.0261  0.2188
  686loPI    C3 9615  10.134  12.669   5.433  0.0848  0.0949 -0.1255
  686loPI   PO4 9616  10.490  12.875   5.864  0.0856  0.2124  0.1691
  686loPI   GL1 9617  10.596  13.077   6.229  0.1388  0.0151  0.2364
  686loPI   GL2 9618  10.966  12.941   6.250 -0.0911  0.0222 -0.1808
  686loPI   C1A 9619  10.499  12.724   6.535  0.1224 -0.0273  0.0813
  686loPI   C2A 9620  10.624  12.617   6.937  0.0668 -0.0897 -0.0353
  686loPI   C3A 9621  10.778  12.614   7.284 -0.2087 -0.1254 -0.0638
  686loPI   C4A 9622  10.872  12.588   7.770  0.5824  0.0295  0.0749
  686loPI   C5A 9623  10.780  12.866   8.091 -0.1074  0.0362  0.0785
  686loPI   C6A 9624  10.841  13.166   8.373 -0.2078 -0.0130 -0.0273
  686loPI   C1B 9625  10.842  13.050   6.632 -0.0075 -0.0509 -0.0774
  686loPI   C2B 9626  10.866  13.118   7.142  0.1996 -0.3234  0.0581
  686loPI   C3B 9627  10.727  13.210   7.617 -0.0311  0.0116 -0.0789
  686loPI   C4B 9628  10.336  13.041   7.865  0.3825 -0.0500  0.1040
  687loPI    C1 9629  16.403   4.509   5.458  0.1677 -0.1679 -0.0087
  687loPI    C2 9630  16.570   4.185   5.294 -0.3013 -0.3844 -0.0768
  687loPI    C3 9631  16.285   4.384   5.097 -0.2225 -0.1003  0.0903
  687loPI   PO4 9632  16.359   4.461   5.805 -0.1335  0.3448  0.0194
  687loPI   GL1 9633  16.070   4.520   6.125  0.1489 -0.2195 -0.0595
  687loPI   GL2 9634  15.828   4.449   6.316  0.2684 -0.0131 -0.0239
  687loPI   C1A 9635  16.192   4.668   6.567  0.1155 -0.2017  0.0757
  687loPI   C2A 9636  16.210   4.628   6.905  0.3025  0.2176 -0.1125
  687loPI   C3A 9637  16.200   4.829   7.286  0.0180 -0.0173  0.0474
  687loPI   C4A 9638  16.089   4.784   7.583  0.4123  0.0088  0.0411
  687loPI   C5A 9639  15.678   4.903   7.772  0.0727 -0.1415  0.3888
  687loPI   C6A 9640  15.659   4.918   8.305 -0.0745  0.1652 -0.2512
  687loPI   C1B 9641  15.780   4.424   6.719  0.0345 -0.0421  0.3123
  687loPI   C2B 9642  15.663   4.515   7.194 -0.1386  0.0662  0.4613
  687loPI   C3B 9643  15.539   4.441   7.679  0.0619  0.1465 -0.0954
  687loPI   C4B 9644  15.144   4.265   7.866  0.0201 -0.2962 -0.2891
  688loPI    C1 9645  17.190  13.912   5.131  0.0943 -0.0684 -0.0268
  688loPI    C2 9646  17.059  14.083   4.795  0.0504  0.0826  0.0663
  688loPI    C3 9647  17.004  13.692   4.854  0.0810  0.0501 -0.1127
  688loPI   PO4 9648  17.108  14.063   5.287 -0.0150  0.1981  0.3050
  688loPI   GL1 9649  17.023  14.053   5.736 -0.1374  0.4095  0.0970
  688loPI   GL2 9650  16.740  14.144   5.823  0.1608 -0.0594  0.0295
  688loPI   C1A 9651  17.142  13.848   6.124  0.1201 -0.1998  0.0975
  688loPI   C2A 9652  17.049  13.829   6.555  0.1827  0.1177 -0.3169
  688loPI   C3A 9653  16.983  13.718   6.903 -0.3678 -0.1073 -0.1465
  688loPI   C4A 9654  16.961  13.604   7.366  0.0935  0.0272  0.1948
  688loPI   C5A 9655  16.950  13.766   7.758 -0.1568 -0.0081  0.0688
  688loPI   C6A 9656  17.086  13.859   8.147  0.0105 -0.0097  0.0170
  688loPI   C1B 9657  16.702  14.049   6.240  0.0521  0.0479 -0.1790
  688loPI   C2B 9658  16.612  14.215   6.624 -0.1765  0.2208 -0.1036
  688loPI   C3B 9659  16.753  14.168   7.029  0.1264 -0.1361 -0.1700
  688loPI   C4B 9660  16.704  14.115   7.487  0.4816  0.0265 -0.0552
  689loPI    C1 9661   3.227  16.179   5.621  0.0083 -0.1321  0.1380
  689loPI    C2 9662   3.510  15.924   5.499  0.1109 -0.1298  0.3668
  689loPI    C3 9663   3.187  15.788   5.692  0.0089 -0.1199  0.2058
  689loPI   PO4 9664   3.398  16.358   5.794  0.1425  0.2718 -0.0149
  689loPI   GL1 9665   3.676  16.544   6.072  0.1000  0.1750 -0.0884
  689loPI   GL2 9666   3.665  16.918   6.228  0.0618 -0.3620 -0.2485
  689loPI   C1A 9667   3.511  16.386   6.473 -0.0196 -0.4562 -0.3631
  689loPI   C2A 9668   3.328  16.408   6.870  0.3071  0.0466  0.2843
  689loPI   C3A 9669   3.215  16.430   7.233 -0.2708 -0.0093  0.2491
  689loPI   C4A 9670   3.167  16.440   7.602  0.1868  0.2724 -0.1206
  689loPI   C5A 9671   3.081  16.599   8.057  0.1930 -0.1208  0.0771
  689loPI   C6A 9672   3.390  16.806   8.333 -0.1188 -0.2778  0.1104
  689loPI   C1B 9673   3.709  16.965   6.691  0.2622 -0.0618 -0.1149
  689loPI   C2B 9674   3.595  16.889   7.082  0.2324 -0.0006 -0.2660
  689loPI   C3B 9675   3.578  16.779   7.488 -0.1431  0.0781 -0.3442
  689loPI   C4B 9676   3.600  16.604   7.875 -0.0728  0.0658 -0.0183
  690loPI    C1 9677  11.365   9.877   5.184 -0.0287  0.1557 -0.0266
  690loPI    C2 9678  11.019   9.875   4.984 -0.1268  0.0631  0.1416
  690loPI    C3 9679  11.296  10.150   4.900 -0.1061 -0.0623 -0.2206
  690loPI   PO4 9680  11.269   9.818   5.438  0.3082  0.1382 -0.1464
  690loPI   GL1 9681  11.260   9.751   5.761  0.2041 -0.0966 -0.2332
  690loPI   GL2 9682  11.087  10.085   5.829 -0.0013  0.2500 -0.1544
  690loPI   C1A 9683  11.294   9.751   6.225 -0.2433  0.1491 -0.2355
  690loPI   C2A 9684  11.299   9.638   6.648 -0.3034  0.3347  0.1563
  690loPI   C3A 9685  11.187   9.729   7.066 -0.1245 -0.1014 -0.1654
  690loPI   C4A 9686  11.118   9.702   7.481  0.0832 -0.3510  0.0260
  690loPI   C5A 9687  11.046   9.453   7.880  0.1552 -0.1104 -0.1560
  690loPI   C6A 9688  10.973   9.457   8.316 -0.0836 -0.2605  0.1846
  690loPI   C1B 9689  11.002  10.151   6.272 -0.1126 -0.5033 -0.1232
  690loPI   C2B 9690  10.917  10.153   6.634 -0.2572  0.2123  0.0765
  690loPI   C3B 9691  10.869  10.186   7.031  0.2570  0.0303  0.1870
  690loPI   C4B 9692  10.823  10.109   7.460  0.1951  0.1258 -0.1138
  691loPI    C1 9693  13.438   0.942   4.968  0.2500  0.1515 -0.1577
  691loPI    C2 9694  13.072   0.788   4.920  0.2242  0.0929  0.2033
  691loPI    C3 9695  13.222   1.036   4.644 -0.0868  0.1181  0.0525
  691loPI   PO4 9696  13.414   0.980   5.240 -0.0573  0.2857  0.0355
  691loPI   GL1 9697  13.408   1.158   5.613  0.2738 -0.1319 -0.1270
  691loPI   GL2 9698  13.420   0.918   5.824  0.2074  0.0579  0.0102
  691loPI   C1A 9699  13.337   1.475   5.980  0.0082 -0.1288 -0.0310
  691loPI   C2A 9700  13.394   1.506   6.421  0.2520 -0.0208  0.1397
  691loPI   C3A 9701  13.455   1.558   6.812  0.0610  0.1750  0.1221
  691loPI   C4A 9702  13.466   1.647   7.165 -0.1116 -0.0952  0.3144
  691loPI   C5A 9703  13.501   1.663   7.605 -0.1742  0.1409 -0.0867
  691loPI   C6A 9704  13.603   1.787   8.095  0.1367 -0.1050  0.0901
  691loPI   C1B 9705  13.540   1.030   6.224 -0.1043  0.1726 -0.0592
  691loPI   C2B 9706  13.414   1.033   6.609  0.2022  0.0221 -0.0857
  691loPI   C3B 9707  13.291   1.145   7.028 -0.1292  0.0561 -0.4764
  691loPI   C4B 9708  13.536   1.198   7.475 -0.0473 -0.0264 -0.0870
  692loPI    C1 9709  17.326   3.870   5.619  0.3307 -0.1237  0.0359
  692loPI    C2 9710  17.310   4.270   5.635  0.1842 -0.1330  0.1458
  692loPI    C3 9711  17.168   4.076   5.315 -0.1312 -0.1160  0.2721
  692loPI   PO4 9712  17.152   3.774   5.803 -0.3157 -0.2753  0.0460
  692loPI   GL1 9713  17.007   3.719   6.109  0.2044 -0.1006  0.1155
  692loPI   GL2 9714  16.701   3.833   6.118  0.1150 -0.0716 -0.0781
  692loPI   C1A 9715  16.938   3.565   6.599 -0.1212 -0.2366  0.0911
  692loPI   C2A 9716  16.947   3.528   7.007 -0.1426  0.1095  0.1968
  692loPI   C3A 9717  16.665   3.512   7.301  0.1224 -0.1202  0.0250
  692loPI   C4A 9718  16.699   3.648   7.728  0.1717  0.0531 -0.1788
  692loPI   C5A 9719  16.712   3.888   8.077  0.2837  0.0554  0.1355
  692loPI   C6A 9720  16.831   4.334   8.192  0.0967  0.0273  0.4265
  692loPI   C1B 9721  16.620   3.939   6.518  0.0709 -0.0015 -0.1232
  692loPI   C2B 9722  16.465   3.800   6.956  0.2084  0.2244  0.1556
  692loPI   C3B 9723  16.320   3.829   7.415  0.4423 -0.0890 -0.0213
  692loPI   C4B 9724  15.840   4.034   7.547  0.1255  0.0008  0.2307
  693loPI    C1 9725   3.962  11.117   5.901 -0.4420 -0.1306 -0.1423
  693loPI    C2 9726   4.142  11.182   5.550 -0.2045  0.1404  0.0253
  693loPI    C3 9727   3.779  11.013   5.560 -0.0461 -0.2398 -0.3267
  693loPI   PO4 9728   4.050  11.409   6.057 -0.0126 -0.3208 -0.1920
  693loPI   GL1 9729   3.999  11.729   6.480  0.3868  0.1607 -0.0940
  693loPI   GL2 9730   3.740  11.610   6.363  0.0601 -0.1127 -0.1039
  693loPI   C1A 9731   3.931  11.660   6.834  0.2408 -0.0946 -0.2412
  693loPI   C2A 9732   3.885  11.597   7.295 -0.0604 -0.2802 -0.2392
  693loPI   C3A 9733   3.801  11.587   7.699 -0.0164  0.4676 -0.0429
  693loPI   C4A 9734   3.727  11.472   8.140 -0.2344 -0.0869 -0.0120
  693loPI   C5A 9735   3.387  11.429   8.347 -0.2345  0.1599  0.2302
  693loPI   C6A 9736   2.905  11.298   8.369  0.1908  0.1564  0.0181
  693loPI   C1B 9737   3.511  11.363   6.746 -0.1971 -0.0150  0.0732
  693loPI   C2B 9738   3.466  11.496   7.077 -0.1991  0.0460 -0.0519
  693loPI   C3B 9739   3.485  11.367   7.399  0.0561  0.0127 -0.1741
  693loPI   C4B 9740   3.353  11.475   7.784  0.1861 -0.1736  0.0424
  694loPI    C1 9741  11.449  10.707   5.291 -0.0477  0.0541 -0.0271
  694loPI    C2 9742  11.472  11.052   5.089 -0.1147  0.1522  0.1306
  694loPI    C3 9743  11.802  10.835   5.152 -0.1142  0.0491 -0.2040
  694loPI   PO4 9744  11.417  10.764   5.485  0.1209  0.0253 -0.1563
  694loPI   GL1 9745  11.530  10.704   5.928  0.1546  0.3279 -0.0044
  694loPI   GL2 9746  11.145  10.630   5.946 -0.0956  0.4025  0.4041
  694loPI   C1A 9747  11.787  10.745   6.180 -0.0371  0.0355 -0.1077
  694loPI   C2A 9748  11.696  10.685   6.645  0.1247  0.1035 -0.1049
  694loPI   C3A 9749  11.622  10.711   7.051  0.1331  0.0933  0.2707
  694loPI   C4A 9750  11.637  10.760   7.493  0.0987  0.1837 -0.0880
  694loPI   C5A 9751  11.946  10.699   7.882  0.1767 -0.2555 -0.4002
  694loPI   C6A 9752  12.285  10.678   8.050 -0.1713  0.1384 -0.2360
  694loPI   C1B 9753  11.140  10.599   6.452 -0.1338 -0.0746  0.0545
  694loPI   C2B 9754  11.139  10.633   6.943 -0.2586  0.2848 -0.2433
  694loPI   C3B 9755  10.883  10.635   7.286  0.2631  0.0487  0.0557
  694loPI   C4B 9756  10.702  10.534   7.657 -0.2615 -0.1972 -0.2721
  695loPI    C1 9757  10.662   9.958   5.485 -0.0763  0.1826 -0.1131
  695loPI    C2 9758  10.451   9.743   5.222 -0.0542  0.0067  0.0108
  695loPI    C3 9759  10.787   9.593   5.378  0.0144  0.1726  0.0245
  695loPI   PO4 9760  10.607  10.207   5.529  0.1475  0.2457 -0.1441
  695loPI   GL1 9761  10.584  10.462   5.914 -0.1577 -0.1637 -0.0077
  695loPI   GL2 9762  10.566  10.073   6.022 -0.3797  0.3122  0.0864
  695loPI   C1A 9763  10.646  10.527   6.287 -0.1378  0.1115 -0.0502
  695loPI   C2A 9764  10.711  10.580   6.723  0.0080  0.0684  0.4008
  695loPI   C3A 9765  10.399  10.433   6.874 -0.0755  0.0421 -0.1570
  695loPI   C4A 9766  10.325  10.350   7.305  0.1854  0.0876  0.3691
  695loPI   C5A 9767  10.331  10.279   7.780  0.2845 -0.0517  0.0709
  695loPI   C6A 9768  10.561  10.357   8.186 -0.1115  0.0676  0.1046
  695loPI   C1B 9769  10.535   9.940   6.336 -0.3301  0.0142 -0.2417
  695loPI   C2B 9770  10.498   9.947   6.736  0.0305  0.2248  0.0083
  695loPI   C3B 9771  10.539   9.810   7.232  0.1949  0.0535  0.1311
  695loPI   C4B 9772  10.607   9.546   7.558 -0.0605 -0.0738  0.3134
  696loPI    C1 9773   4.016  15.363   5.717 -0.1097 -0.3294 -0.0697
  696loPI    C2 9774   3.721  15.507   5.946  0.0674  0.1525 -0.1316
  696loPI    C3 9775   3.652  15.421   5.561 -0.0226  0.1460 -0.1142
  696loPI   PO4 9776   4.199  15.241   5.972  0.3836 -0.2582  0.1209
  696loPI   GL1 9777   4.066  15.176   6.478  0.0465  0.1433  0.1022
  696loPI   GL2 9778   3.783  15.161   6.319 -0.0503 -0.0121  0.2220
  696loPI   C1A 9779   4.038  14.990   6.780 -0.0161  0.3948 -0.0334
  696loPI   C2A 9780   4.014  14.836   7.189  0.2231 -0.0204 -0.5640
  696loPI   C3A 9781   4.010  14.610   7.529 -0.1661 -0.0195 -0.1683
  696loPI   C4A 9782   4.046  14.403   7.916  0.0916 -0.2706  0.1517
  696loPI   C5A 9783   4.079  14.179   8.308 -0.2227  0.0582 -0.0843
  696loPI   C6A 9784   3.873  14.059   8.716 -0.0032 -0.1137 -0.2610
  696loPI   C1B 9785   3.511  15.167   6.761 -0.0717 -0.0749  0.0095
  696loPI   C2B 9786   3.429  15.015   7.124 -0.1060  0.0364  0.2448
  696loPI   C3B 9787   3.543  14.835   7.511 -0.1811  0.0420 -0.0917
  696loPI   C4B 9788   3.699  14.818   7.854 -0.1758  0.3772 -0.4115
  697loPI    C1 9789   1.992   7.254   5.712 -0.0227  0.2500  0.1547
  697loPI    C2 9790   1.653   7.054   5.781  0.0942  0.0112  0.0500
  697loPI    C3 9791   1.743   7.172   5.410  0.0954  0.1328  0.0884
  697loPI   PO4 9792   2.171   7.123   5.795 -0.0006 -0.0170 -0.2610
  697loPI   GL1 9793   2.288   7.115   6.251  0.1071 -0.1307  0.1830
  697loPI   GL2 9794   2.007   7.191   6.237  0.0766 -0.4678 -0.1455
  697loPI   C1A 9795   2.125   7.215   6.715  0.0528  0.1251 -0.0635
  697loPI   C2A 9796   2.152   7.334   7.095  0.1681 -0.0744 -0.0661
  697loPI   C3A 9797   2.135   7.305   7.664 -0.0557 -0.0008  0.0476
  697loPI   C4A 9798   2.329   7.393   8.053  0.0786  0.1133 -0.2409
  697loPI   C5A 9799   2.460   7.653   8.387  0.0018 -0.1323 -0.1194
  697loPI   C6A 9800   2.539   7.993   8.487 -0.4189  0.0719 -0.0677
  697loPI   C1B 9801   1.676   7.050   6.513 -0.0802  0.2408  0.0050
  697loPI   C2B 9802   1.324   6.792   6.605  0.0075  0.6057 -0.2579
  697loPI   C3B 9803   1.275   6.616   6.949 -0.1525 -0.1137 -0.0985
  697loPI   C4B 9804   1.502   6.565   7.300 -0.0984 -0.2503 -0.0403
  698loPI    C1 9805  11.092   8.006   5.133  0.0982  0.0376 -0.1830
  698loPI    C2 9806  10.714   8.057   5.013  0.0665  0.1586 -0.0365
  698loPI    C3 9807  10.939   7.768   4.851 -0.1410 -0.0236 -0.0051
  698loPI   PO4 9808  11.139   7.922   5.341  0.1176 -0.0257  0.0083
  698loPI   GL1 9809  11.120   8.075   5.740  0.0887  0.0668  0.0155
  698loPI   GL2 9810  10.898   8.200   5.855 -0.0974  0.0549  0.1055
  698loPI   C1A 9811  11.344   8.012   6.075  0.1516  0.1426  0.1033
  698loPI   C2A 9812  11.553   8.134   6.528 -0.3900  0.1567 -0.0121
  698loPI   C3A 9813  11.799   7.904   6.841 -0.1730  0.0473  0.1871
  698loPI   C4A 9814  11.860   7.985   7.304 -0.0203  0.0564  0.1330
  698loPI   C5A 9815  11.641   7.989   7.714 -0.1567 -0.0153  0.2352
  698loPI   C6A 9816  11.667   7.629   7.935  0.1131  0.1084  0.2525
  698loPI   C1B 9817  10.931   8.327   6.282  0.4814  0.0809  0.0537
  698loPI   C2B 9818  10.959   8.524   6.619 -0.2287 -0.0724  0.1731
  698loPI   C3B 9819  10.921   8.290   7.108 -0.0582  0.3346  0.1504
  698loPI   C4B 9820  11.177   8.157   7.504 -0.0993 -0.1508 -0.2644
  699loPI    C1 9821  12.593   1.264   5.252 -0.0645  0.1376 -0.1175
  699loPI    C2 9822  12.288   1.114   5.040 -0.1712  0.0554  0.0909
  699loPI    C3 9823  12.651   0.949   5.012 -0.2049 -0.0105  0.0397
  699loPI   PO4 9824  12.503   1.351   5.442 -0.1431  0.1326 -0.0419
  699loPI   GL1 9825  12.394   1.381   5.774 -0.3719 -0.0656  0.1963
  699loPI   GL2 9826  12.133   1.473   5.868  0.1500  0.1147 -0.0110
  699loPI   C1A 9827  12.592   1.566   6.089  0.1226  0.0687 -0.0608
  699loPI   C2A 9828  12.535   1.684   6.473 -0.3021 -0.0612  0.0327
  699loPI   C3A 9829  12.558   1.767   6.895 -0.0811  0.0306 -0.0473
  699loPI   C4A 9830  12.594   1.861   7.350 -0.3314 -0.0305  0.0893
  699loPI   C5A 9831  12.703   1.606   7.616 -0.1056  0.0994  0.1114
  699loPI   C6A 9832  12.810   1.284   7.804  0.0395  0.0239 -0.4147
  699loPI   C1B 9833  12.109   1.452   6.250 -0.1246 -0.2200 -0.0475
  699loPI   C2B 9834  12.036   1.564   6.645  0.2919  0.2679 -0.0302
  699loPI   C3B 9835  12.089   1.626   7.037 -0.1485 -0.1254 -0.5472
  699loPI   C4B 9836  12.124   1.630   7.444  0.1632 -0.0291 -0.1186
  700loPI    C1 9837   4.734   5.648   5.777 -0.2947  0.0919  0.0024
  700loPI    C2 9838   4.642   6.004   5.935 -0.1013  0.1919 -0.1049
  700loPI    C3 9839   4.459   5.879   5.602 -0.0604  0.2579 -0.1520
  700loPI   PO4 9840   4.780   5.511   5.966 -0.0178  0.1344  0.0234
  700loPI   GL1 9841   4.889   5.560   6.306  0.0748  0.1083 -0.1009
  700loPI   GL2 9842   4.602   5.650   6.392 -0.1741  0.0075  0.0188
  700loPI   C1A 9843   5.065   5.705   6.698  0.2105  0.2310 -0.0714
  700loPI   C2A 9844   5.177   5.741   7.140 -0.1975 -0.1794  0.1634
  700loPI   C3A 9845   5.339   5.649   7.565  0.1463 -0.0198  0.1659
  700loPI   C4A 9846   5.639   5.768   7.803  0.0691 -0.0814  0.1323
  700loPI   C5A 9847   5.876   5.934   8.054 -0.0781 -0.2984  0.3796
  700loPI   C6A 9848   6.243   5.736   8.165  0.1393 -0.1830 -0.1676
  700loPI   C1B 9849   4.620   5.586   6.783 -0.1668  0.2507 -0.1144
  700loPI   C2B 9850   4.760   5.520   7.159 -0.2075  0.0610 -0.0011
  700loPI   C3B 9851   4.787   5.350   7.620 -0.1057  0.0685 -0.1821
  700loPI   C4B 9852   4.736   5.119   8.014  0.0521 -0.1882 -0.0397
  701loPI    C1 9853   9.250  12.708   5.793  0.1439 -0.0203 -0.0134
  701loPI    C2 9854   8.924  12.652   5.569  0.1309 -0.0798  0.0205
  701loPI    C3 9855   9.287  12.625   5.403  0.1204 -0.0913 -0.0006
  701loPI   PO4 9856   9.353  12.512   6.049  0.0963 -0.1111 -0.0672
  701loPI   GL1 9857   9.579  12.399   6.295  0.0360 -0.2278  0.1754
  701loPI   GL2 9858   9.703  12.145   6.411 -0.1887 -0.0856 -0.3285
  701loPI   C1A 9859   9.235  12.272   6.675 -0.1107  0.0032  0.0666
  701loPI   C2A 9860   9.254  12.341   7.043 -0.0896 -0.0854  0.0272
  701loPI   C3A 9861   8.988  12.550   7.376 -0.0039  0.0071 -0.0860
  701loPI   C4A 9862   8.923  12.982   7.484 -0.2828 -0.1562 -0.0160
  701loPI   C5A 9863   8.930  13.203   7.805  0.0205 -0.1412  0.0653
  701loPI   C6A 9864   8.782  13.630   7.906  0.0609  0.1534 -0.2580
  701loPI   C1B 9865   9.702  12.155   6.886  0.0874  0.3615  0.0018
  701loPI   C2B 9866   9.638  12.120   7.384 -0.2672  0.1918 -0.0695
  701loPI   C3B 9867   9.573  12.187   7.838  0.1331 -0.1641  0.0225
  701loPI   C4B 9868   9.490  12.552   8.153 -0.2796  0.0970 -0.0617
  702loPI    C1 9869   3.774  11.591   5.677 -0.1605 -0.0503  0.0994
  702loPI    C2 9870   3.455  11.350   5.673 -0.0387 -0.2126 -0.2932
  702loPI    C3 9871   3.659  11.418   5.335  0.3776 -0.1568 -0.0380
  702loPI   PO4 9872   3.778  11.805   5.864 -0.1431  0.1082  0.1059
  702loPI   GL1 9873   3.736  12.068   6.200 -0.0280 -0.0098 -0.0520
  702loPI   GL2 9874   4.014  12.247   6.289  0.2055  0.1260 -0.0405
  702loPI   C1A 9875   3.437  11.980   6.591 -0.4050  0.2116  0.0149
  702loPI   C2A 9876   3.513  11.991   7.052 -0.0959  0.0691 -0.3178
  702loPI   C3A 9877   3.407  11.899   7.453  0.1213 -0.1261 -0.1400
  702loPI   C4A 9878   3.394  11.957   7.842 -0.1224 -0.2473 -0.0264
  702loPI   C5A 9879   3.536  11.916   8.236  0.0267  0.0283  0.3655
  702loPI   C6A 9880   3.918  11.826   8.384 -0.0623  0.2325 -0.0712
  702loPI   C1B 9881   3.921  12.214   6.707 -0.0624 -0.0842 -0.1958
  702loPI   C2B 9882   3.892  12.331   7.059 -0.3944 -0.1287 -0.1940
  702loPI   C3B 9883   3.884  12.237   7.411 -0.0422 -0.0386 -0.0698
  702loPI   C4B 9884   3.873  12.061   7.817 -0.5335 -0.0988  0.1323
  703loPI    C1 9885   9.619  11.444   5.671  0.2187  0.1096 -0.1457
  703loPI    C2 9886   9.244  11.370   5.554  0.0827  0.0406  0.3127
  703loPI    C3 9887   9.416  11.721   5.466 -0.0120 -0.0066 -0.0774
  703loPI   PO4 9888   9.536  11.402   5.967 -0.3210 -0.1179  0.1309
  703loPI   GL1 9889   9.382  11.464   6.402 -0.0257 -0.0432  0.1618
  703loPI   GL2 9890   9.376  11.767   6.402  0.0200 -0.2056 -0.1449
  703loPI   C1A 9891   9.293  11.296   6.743 -0.0641  0.3714  0.0888
  703loPI   C2A 9892   9.329  11.315   7.231  0.2309  0.0365  0.1373
  703loPI   C3A 9893   9.270  11.303   7.672 -0.1167  0.4990  0.0301
  703loPI   C4A 9894   9.203  11.155   7.971 -0.0567  0.0262 -0.1088
  703loPI   C5A 9895   9.059  10.688   8.022 -0.0426 -0.1539 -0.1729
  703loPI   C6A 9896   8.754  10.335   8.165  0.2911  0.0964 -0.0518
  703loPI   C1B 9897   9.176  11.756   6.819 -0.0213  0.1400 -0.2464
  703loPI   C2B 9898   9.200  11.771   7.203 -0.1971  0.2539 -0.0105
  703loPI   C3B 9899   9.174  11.998   7.442 -0.0053  0.0642 -0.1814
  703loPI   C4B 9900   9.102  12.321   7.793  0.0326 -0.1156 -0.1471
  704loPI    C1 9901  10.523   8.452   5.375 -0.0869 -0.2463  0.0505
  704loPI    C2 9902  10.218   8.318   5.153 -0.0922 -0.0207 -0.0812
  704loPI    C3 9903  10.336   8.699   5.122  0.0853 -0.0589  0.1037
  704loPI   PO4 9904  10.506   8.440   5.612  0.1397  0.0994 -0.3099
  704loPI   GL1 9905  10.405   8.106   5.968  0.2999 -0.0707  0.0794
  704loPI   GL2 9906  10.086   8.226   6.054  0.1174  0.5157 -0.0543
  704loPI   C1A 9907  10.512   8.106   6.343 -0.1188  0.0516 -0.2028
  704loPI   C2A 9908  10.710   7.864   6.659  0.0954 -0.2132 -0.1402
  704loPI   C3A 9909  10.845   7.778   7.193 -0.0514 -0.1464  0.0413
  704loPI   C4A 9910  10.888   7.637   7.569  0.0165 -0.2473  0.0039
  704loPI   C5A 9911  11.089   7.703   7.914  0.2741 -0.1199  0.1033
  704loPI   C6A 9912  11.249   7.877   8.140  0.1112 -0.1636  0.2391
  704loPI   C1B 9913   9.978   8.121   6.515  0.1175 -0.0490  0.1498
  704loPI   C2B 9914  10.170   7.979   6.738  0.1226  0.0148 -0.0124
  704loPI   C3B 9915  10.402   7.785   7.044 -0.0693  0.1153  0.3801
  704loPI   C4B 9916  10.310   7.808   7.495 -0.1992  0.0989  0.0234
  705loPI    C1 9917   1.139   7.163   5.727 -0.0143  0.1309 -0.1353
  705loPI    C2 9918   1.200   7.362   5.386  0.1324 -0.0645 -0.2255
  705loPI    C3 9919   0.982   7.027   5.385  0.0530 -0.0140 -0.1094
  705loPI   PO4 9920   1.114   7.378   5.904  0.1805  0.2486 -0.1872
  705loPI   GL1 9921   1.231   7.760   6.141  0.1589  0.0710 -0.1069
  705loPI   GL2 9922   0.979   8.006   6.172 -0.0534 -0.1583  0.0499
  705loPI   C1A 9923   1.285   7.794   6.573  0.0972 -0.0007  0.1059
  705loPI   C2A 9924   1.312   7.762   7.021 -0.1206 -0.1988  0.0661
  705loPI   C3A 9925   1.445   7.487   7.301 -0.2426  0.0430 -0.0431
  705loPI   C4A 9926   1.412   7.457   7.696 -0.3989 -0.1038  0.1211
  705loPI   C5A 9927   1.494   7.346   8.066  0.4569 -0.3375 -0.1393
  705loPI   C6A 9928   1.423   7.049   8.323  0.0823  0.0179  0.0359
  705loPI   C1B 9929   0.884   8.058   6.545  0.1328 -0.1036 -0.1553
  705loPI   C2B 9930   0.947   8.055   6.960  0.1094  0.2233 -0.1796
  705loPI   C3B 9931   1.010   7.947   7.386 -0.0672  0.1675  0.1778
  705loPI   C4B 9932   0.900   7.737   7.782 -0.2323 -0.0514 -0.2352
  706loPI    C1 9933   0.533   9.741   5.738 -0.0428 -0.1077  0.0919
  706loPI    C2 9934   0.685   9.728   6.108  0.2574  0.0799 -0.0210
  706loPI    C3 9935   0.903   9.877   5.807 -0.0317  0.0476 -0.2514
  706loPI   PO4 9936   0.305   9.629   5.848  0.1677  0.1558  0.0342
  706loPI   GL1 9937   0.332   9.358   6.217  0.0001  0.1388 -0.2052
  706loPI   GL2 9938   0.098   9.575   6.337  0.1889 -0.2018 -0.1508
  706loPI   C1A 9939   0.511   8.977   6.359  0.0712  0.2417 -0.2045
  706loPI   C2A 9940   0.504   8.858   6.780  0.0283 -0.0903 -0.2396
  706loPI   C3A 9941   0.536   8.887   7.210  0.1127 -0.0914 -0.2188
  706loPI   C4A 9942   0.619   8.770   7.681  0.1495 -0.0759 -0.0588
  706loPI   C5A 9943   0.828   8.671   8.117 -0.2593  0.1242  0.0310
  706loPI   C6A 9944   1.247   8.671   8.247  0.3337 -0.1257  0.0317
  706loPI   C1B 9945   0.179   9.541   6.700  0.2171 -0.1010 -0.4476
  706loPI   C2B 9946   0.411   9.305   6.934 -0.2636  0.0742 -0.2370
  706loPI   C3B 9947   0.679   9.403   7.250 -0.1932 -0.1807  0.0249
  706loPI   C4B 9948   1.032   9.426   7.598 -0.0848 -0.0765  0.2049
  707loPI    C1 9949   1.458   8.997   5.708 -0.0621  0.1447  0.0386
  707loPI    C2 9950   1.328   8.638   5.589  0.2727 -0.0008  0.1016
  707loPI    C3 9951   1.533   8.870   5.336  0.2296  0.0609  0.1231
  707loPI   PO4 9952   1.563   8.987   5.900 -0.1805 -0.0350 -0.0168
  707loPI   GL1 9953   1.509   9.279   6.300  0.1107  0.0770 -0.3195
  707loPI   GL2 9954   1.712   9.488   6.456  0.1070  0.4009 -0.1293
  707loPI   C1A 9955   1.496   9.032   6.655 -0.0287  0.0452 -0.1788
  707loPI   C2A 9956   1.395   8.817   7.020  0.3049  0.0628  0.0837
  707loPI   C3A 9957   1.529   8.790   7.381  0.1122  0.0343 -0.0196
  707loPI   C4A 9958   1.791   8.752   7.649 -0.2895  0.0391 -0.0485
  707loPI   C5A 9959   2.146   8.726   7.515  0.1233  0.0596  0.0036
  707loPI   C6A 9960   2.346   8.631   7.187  0.0231  0.2887  0.2041
  707loPI   C1B 9961   1.849   9.344   6.855 -0.0039  0.1213  0.0475
  707loPI   C2B 9962   2.086   9.554   7.194  0.1416  0.0513 -0.1067
  707loPI   C3B 9963   1.889   9.673   7.671 -0.1365 -0.2414 -0.1751
  707loPI   C4B 9964   1.726   9.703   8.092  0.0205  0.1737 -0.0636
  708loPI    C1 9965   6.836  13.723   5.874  0.0967 -0.3609  0.0196
  708loPI    C2 9966   6.495  13.525   5.808 -0.1837  0.1431 -0.0979
  708loPI    C3 9967   6.639  13.773   5.529  0.2245  0.0201 -0.0033
  708loPI   PO4 9968   6.840  13.822   6.139  0.0814 -0.1220 -0.1365
  708loPI   GL1 9969   6.736  14.034   6.509 -0.0018  0.0385  0.0114
  708loPI   GL2 9970   6.683  13.699   6.672 -0.2367  0.1810 -0.1483
  708loPI   C1A 9971   6.681  14.381   6.854  0.0728  0.0402 -0.4180
  708loPI   C2A 9972   6.585  14.326   7.316  0.0467  0.0323  0.0368
  708loPI   C3A 9973   6.444  14.128   7.680 -0.0801  0.1760  0.4197
  708loPI   C4A 9974   6.183  14.337   8.040  0.0151  0.0382  0.1294
  708loPI   C5A 9975   5.809  14.607   8.191 -0.1447  0.0184  0.2273
  708loPI   C6A 9976   5.665  14.758   8.474 -0.1849  0.2061  0.0810
  708loPI   C1B 9977   6.802  13.668   7.123  0.0403  0.1519 -0.4257
  708loPI   C2B 9978   6.713  13.600   7.568 -0.4245  0.1391 -0.0433
  708loPI   C3B 9979   6.991  13.615   7.950 -0.0175  0.1345  0.0634
  708loPI   C4B 9980   7.413  13.569   8.031 -0.2505  0.5241  0.1266
  709loPI    C1 9981  15.274   6.209   5.447 -0.1629 -0.1600 -0.0723
  709loPI    C2 9982  15.271   5.993   5.110 -0.0062  0.0137 -0.1872
  709loPI    C3 9983  14.951   6.211   5.210 -0.1460 -0.2294 -0.0963
  709loPI   PO4 9984  15.451   6.064   5.589 -0.0922 -0.2706  0.0432
  709loPI   GL1 9985  15.628   6.119   6.080  0.1218  0.1632  0.4610
  709loPI   GL2 9986  15.783   5.928   6.228  0.0795 -0.0742  0.2950
  709loPI   C1A 9987  15.251   6.294   6.370 -0.2317  0.2497 -0.0475
  709loPI   C2A 9988  15.101   6.432   6.765 -0.2138  0.1126  0.1787
  709loPI   C3A 9989  15.110   6.444   7.206  0.2123 -0.2027  0.3629
  709loPI   C4A 9990  15.106   6.560   7.478  0.1709  0.3812  0.2633
  709loPI   C5A 9991  14.769   6.518   7.793  0.3906  0.0992  0.0376
  709loPI   C6A 9992  14.650   6.843   8.154  0.1504 -0.1989  0.2866
  709loPI   C1B 9993  16.143   5.786   6.445  0.0034  0.0038 -0.1984
  709loPI   C2B 9994  16.444   5.653   6.768 -0.0218  0.1791  0.3067
  709loPI   C3B 9995  16.681   5.551   7.141  0.0393 -0.0612 -0.2533
  709loPI   C4B 9996  17.103   5.596   7.388  0.0153 -0.3029  0.0697
  710loPI    C1 9997  14.889  13.392   5.318  0.0629  0.0972  0.0455
  710loPI    C2 9998  15.203  13.637   5.286  0.0787  0.0459 -0.2219
  710loPI    C3 9999  14.856  13.734   5.113  0.0165 -0.0111 -0.1303
  710loPI   PO410000  14.890  13.315   5.551 -0.2495 -0.0721  0.0989
  710loPI   GL110001  15.142  13.304   5.919  0.0748  0.3134 -0.1181
  710loPI   GL210002  15.313  13.497   5.822  0.1050  0.1350  0.1433
  710loPI   C1A10003  15.056  13.479   6.323 -0.2755  0.1123  0.0110
  710loPI   C2A10004  14.782  13.555   6.681  0.0787  0.0774  0.0562
  710loPI   C3A10005  14.782  13.718   7.083  0.2231  0.0222 -0.1413
  710loPI   C4A10006  14.699  13.738   7.572 -0.0562 -0.0779  0.0242
  710loPI   C5A10007  14.613  13.907   7.975  0.0710  0.2233 -0.1730
  710loPI   C6A10008  14.455  13.955   8.360  0.2720 -0.1319 -0.2276
  710loPI   C1B10009  15.162  13.816   6.003 -0.0950 -0.2233  0.3882
  710loPI   C2B10010  15.284  14.218   6.299  0.0442 -0.2232 -0.0684
  710loPI   C3B10011  15.250  14.496   6.605  0.2371  0.0854  0.1679
  710loPI   C4B10012  15.368  14.659   7.004 -0.0599 -0.2304  0.1386
  711loPI    C110013   8.220   1.562   5.236  0.0927  0.0520 -0.0960
  711loPI    C210014   8.252   1.941   5.113 -0.0270  0.0443 -0.1523
  711loPI    C310015   8.267   1.642   4.847  0.0407  0.0106 -0.1109
  711loPI   PO410016   7.890   1.587   5.387  0.1042 -0.3090  0.0288
  711loPI   GL110017   7.642   1.721   5.821  0.2199 -0.2423 -0.1013
  711loPI   GL210018   7.396   1.625   5.876  0.1491 -0.0928 -0.1288
  711loPI   C1A10019   7.942   1.872   6.178  0.2330  0.0155  0.0471
  711loPI   C2A10020   8.014   2.092   6.598  0.1515 -0.1046  0.0752
  711loPI   C3A10021   8.015   2.028   7.017 -0.0663  0.2359  0.2685
  711loPI   C4A10022   8.238   1.978   7.482  0.1034 -0.0230 -0.1204
  711loPI   C5A10023   8.423   1.760   7.780 -0.1186 -0.1237  0.3093
  711loPI   C6A10024   8.633   1.539   8.025 -0.0877 -0.1100 -0.0603
  711loPI   C1B10025   7.601   1.599   6.352  0.1340 -0.2091 -0.1947
  711loPI   C2B10026   7.799   1.665   6.785  0.1690 -0.3654 -0.3769
  711loPI   C3B10027   7.765   1.680   7.278 -0.1159 -0.0396 -0.0199
  711loPI   C4B10028   8.026   1.553   7.588 -0.2284  0.0028 -0.1214
  712loPI    C110029  10.358   1.065   5.092 -0.0665 -0.1325 -0.0044
  712loPI    C210030  10.369   1.464   5.070 -0.1187 -0.1340 -0.0611
  712loPI    C310031  10.577   1.244   4.809 -0.0220 -0.1434  0.0232
  712loPI   PO410032  10.417   1.004   5.383 -0.1163 -0.1029  0.1666
  712loPI   GL110033  10.711   1.044   5.715 -0.0876  0.0505  0.1649
  712loPI   GL210034  10.656   0.735   5.844  0.2580 -0.1105  0.1934
  712loPI   C1A10035  10.412   1.243   5.991 -0.2409  0.3937 -0.2999
  712loPI   C2A10036  10.235   1.125   6.442 -0.0893 -0.4654 -0.2815
  712loPI   C3A10037  10.235   1.174   6.865  0.0528 -0.4169  0.2053
  712loPI   C4A10038  10.233   1.256   7.263  0.0423  0.0836 -0.0826
  712loPI   C5A10039  10.292   1.154   7.637 -0.0876 -0.0957 -0.0186
  712loPI   C6A10040  10.597   0.891   7.849  0.0944  0.0926 -0.2221
  712loPI   C1B10041  10.459   0.772   6.086  0.0600 -0.1828  0.0850
  712loPI   C2B10042  10.280   0.640   6.499  0.0006  0.0623  0.0144
  712loPI   C3B10043  10.215   0.614   6.853 -0.0427 -0.2185  0.0636
  712loPI   C4B10044  10.246   0.759   7.274 -0.0014 -0.0482 -0.2284
  713loPI    C110045   7.251   6.256   5.683  0.1208 -0.1452  0.1801
  713loPI    C210046   7.462   6.067   5.401  0.1456 -0.0966  0.1661
  713loPI    C310047   7.188   6.339   5.297  0.2407  0.0104  0.1935
  713loPI   PO410048   7.191   6.016   5.875 -0.0866  0.2648 -0.1172
  713loPI   GL110049   7.116   5.905   6.282  0.1388 -0.1407  0.0416
  713loPI   GL210050   6.778   6.059   6.285  0.0207 -0.0091  0.0996
  713loPI   C1A10051   7.111   5.643   6.672 -0.4313 -0.0736 -0.1738
  713loPI   C2A10052   7.285   5.494   7.044 -0.2123  0.1817  0.0265
  713loPI   C3A10053   7.431   5.384   7.364 -0.3780 -0.2304  0.0901
  713loPI   C4A10054   7.638   5.199   7.757  0.0706  0.3806 -0.0846
  713loPI   C5A10055   7.621   4.860   8.011  0.0695  0.1976 -0.1665
  713loPI   C6A10056   7.700   4.702   8.345  0.0390 -0.1133 -0.1257
  713loPI   C1B10057   6.938   6.112   6.711  0.0859 -0.0633  0.0317
  713loPI   C2B10058   7.103   5.953   7.126  0.0801 -0.1338  0.0865
  713loPI   C3B10059   7.115   5.719   7.469  0.2957 -0.1037 -0.2396
  713loPI   C4B10060   6.980   5.467   7.798  0.0309  0.0200 -0.1209
  714loPI    C110061  13.015   4.684   5.612 -0.0393 -0.0453  0.0948
  714loPI    C210062  13.330   4.867   5.777 -0.0252 -0.0470  0.0699
  714loPI    C310063  13.379   4.638   5.453 -0.0516 -0.0499  0.0680
  714loPI   PO410064  12.838   4.584   5.763 -0.2139 -0.2081 -0.0579
  714loPI   GL110065  12.614   4.584   6.153  0.0961  0.5168  0.4681
  714loPI   GL210066  12.461   4.818   6.177  0.2430 -0.1897 -0.0583
  714loPI   C1A10067  12.692   4.347   6.535  0.0206  0.0395  0.2647
  714loPI   C2A10068  12.827   4.118   6.826  0.3124 -0.1756  0.0600
  714loPI   C3A10069  13.013   4.229   7.141 -0.0372 -0.0577  0.1901
  714loPI   C4A10070  13.261   4.312   7.519 -0.2974 -0.0494 -0.1458
  714loPI   C5A10071  13.247   4.463   7.888 -0.0261  0.2717  0.0707
  714loPI   C6A10072  13.403   4.851   8.052  0.2696 -0.2613 -0.3690
  714loPI   C1B10073  12.484   4.968   6.593  0.1995 -0.1340 -0.0693
  714loPI   C2B10074  12.374   5.173   6.972  0.0259  0.1586 -0.1988
  714loPI   C3B10075  12.470   5.348   7.418 -0.2955  0.1002 -0.0716
  714loPI   C4B10076  12.505   5.392   7.874  0.2719  0.1933  0.0991
  715loPI    C110077   4.605   9.917   5.489  0.2313 -0.2447 -0.0200
  715loPI    C210078   4.452   9.548   5.463 -0.1352 -0.1002  0.0215
  715loPI    C310079   4.210   9.866   5.450  0.0934  0.1199  0.7189
  715loPI   PO410080   4.712   9.936   5.773 -0.0930 -0.1150  0.0625
  715loPI   GL110081   4.610  10.025   6.127 -0.2203  0.1342 -0.0456
  715loPI   GL210082   4.861  10.148   6.328 -0.0632  0.1856  0.0431
  715loPI   C1A10083   4.558   9.663   6.392 -0.0272  0.0105 -0.0741
  715loPI   C2A10084   4.755   9.533   6.700  0.0350  0.0916 -0.0576
  715loPI   C3A10085   4.992   9.384   6.984  0.0518  0.1315  0.0390
  715loPI   C4A10086   5.214   9.623   7.307 -0.2199  0.1178  0.1257
  715loPI   C5A10087   5.299   9.878   7.616  0.0195 -0.1314 -0.0429
  715loPI   C6A10088   5.308  10.011   8.036 -0.0148 -0.0503 -0.1061
  715loPI   C1B10089   4.718  10.001   6.757 -0.0332 -0.1062 -0.2305
  715loPI   C2B10090   4.784   9.891   7.095 -0.1142  0.0461  0.0209
  715loPI   C3B10091   4.786  10.080   7.534  0.0866 -0.0107  0.0110
  715loPI   C4B10092   4.783   9.957   7.970 -0.2215  0.3917  0.1650
  716loPI    C110093  15.124  16.741   5.198 -0.1347 -0.1757  0.0275
  716loPI    C210094  15.391  16.976   5.015 -0.0750 -0.2082  0.0727
  716loPI    C310095  15.264  16.642   4.836 -0.0534 -0.2145  0.0691
  716loPI   PO410096  15.141  16.686   5.416 -0.0534  0.2117  0.0818
  716loPI   GL110097  15.251  16.754   5.780 -0.0480 -0.1006  0.4685
  716loPI   GL210098  15.310  17.052   5.928  0.1012  0.2643  0.0834
  716loPI   C1A10099  15.218  16.562   6.147  0.0356  0.0438  0.1621
  716loPI   C2A10100  15.161  16.479   6.558 -0.2344  0.1699 -0.1764
  716loPI   C3A10101  15.038  16.539   7.005 -0.1320 -0.0479  0.1966
  716loPI   C4A10102  15.126  16.678   7.431  0.2020  0.0930  0.3115
  716loPI   C5A10103  15.123  16.659   7.806  0.0261 -0.0358 -0.0606
  716loPI   C6A10104  14.917  16.598   8.131  0.2645 -0.3504 -0.0149
  716loPI   C1B10105  15.394  16.914   6.399 -0.1823 -0.0759  0.1553
  716loPI   C2B10106  15.335  17.016   6.795  0.2731 -0.1347  0.0364
  716loPI   C3B10107  15.328  17.143   7.121  0.0945  0.1584 -0.2504
  716loPI   C4B10108  15.142  17.269   7.579 -0.0316 -0.1099 -0.1334
  717loPI    C110109   4.557   1.285   5.619  0.1812 -0.1328  0.0155
  717loPI    C210110   4.501   0.946   5.415 -0.0274  0.0057 -0.1621
  717loPI    C310111   4.449   1.299   5.234  0.0071  0.1320  0.0710
  717loPI   PO410112   4.457   1.265   5.835 -0.3316 -0.4033 -0.3967
  717loPI   GL110113   4.648   1.160   6.298  0.1072 -0.0147  0.1638
  717loPI   GL210114   4.930   1.001   6.322  0.0068  0.1493 -0.0743
  717loPI   C1A10115   4.484   1.292   6.618 -0.0859  0.2258 -0.1772
  717loPI   C2A10116   4.490   1.231   7.056 -0.1545 -0.0814  0.1147
  717loPI   C3A10117   4.317   1.290   7.457 -0.0106 -0.0214 -0.4401
  717loPI   C4A10118   4.142   1.051   7.707 -0.4960  0.3735  0.2268
  717loPI   C5A10119   4.196   0.975   8.108 -0.1217 -0.0885 -0.0760
  717loPI   C6A10120   4.457   0.902   8.462  0.0547  0.0168  0.1780
  717loPI   C1B10121   5.210   1.079   6.581  0.0543  0.1834 -0.3714
  717loPI   C2B10122   5.375   1.000   6.997  0.0859  0.1134  0.1667
  717loPI   C3B10123   5.274   1.038   7.382  0.1115 -0.2039  0.1159
  717loPI   C4B10124   5.165   0.940   7.817 -0.0594  0.0043  0.0341
  718loPI    C110125   2.465  14.383   5.499 -0.0045 -0.1759 -0.1698
  718loPI    C210126   2.529  14.754   5.363 -0.1006 -0.0780  0.0466
  718loPI    C310127   2.834  14.497   5.394 -0.0449 -0.0392 -0.1658
  718loPI   PO410128   2.364  14.399   5.710  0.2363 -0.0877 -0.1263
  718loPI   GL110129   2.492  14.305   6.057 -0.1034  0.0711  0.2898
  718loPI   GL210130   2.726  14.396   6.195 -0.1870  0.0162 -0.0901
  718loPI   C1A10131   2.310  14.466   6.451  0.0145  0.1764 -0.0147
  718loPI   C2A10132   2.148  14.530   6.823  0.0595  0.0958 -0.0583
  718loPI   C3A10133   2.206  14.501   7.264  0.1433 -0.1849  0.2671
  718loPI   C4A10134   2.206  14.519   7.675  0.1805  0.4484 -0.0270
  718loPI   C5A10135   2.481  14.358   7.968  0.0490 -0.2636 -0.0681
  718loPI   C6A10136   2.699  14.069   7.969 -0.0626 -0.2559  0.1097
  718loPI   C1B10137   2.771  14.361   6.664  0.1817  0.0306  0.2114
  718loPI   C2B10138   2.611  14.281   7.135 -0.2129  0.3914  0.3122
  718loPI   C3B10139   2.694  14.371   7.540  0.1945 -0.1263  0.1154
  718loPI   C4B10140   2.719  14.715   7.738 -0.1434 -0.2817  0.2328
  719loPI    C110141  15.253   7.602   5.324 -0.0442  0.0732  0.0225
  719loPI    C210142  15.157   7.895   5.069  0.1070  0.0842 -0.0229
  719loPI    C310143  15.221   7.524   4.934  0.0284  0.0546  0.0201
  719loPI   PO410144  15.130   7.701   5.629  0.0207 -0.0884  0.1336
  719loPI   GL110145  14.866   7.622   5.921 -0.0876 -0.1187  0.2046
  719loPI   GL210146  15.176   7.495   6.083  0.0254 -0.0155 -0.0158
  719loPI   C1A10147  14.777   7.682   6.327  0.4746 -0.2754  0.0534
  719loPI   C2A10148  14.729   7.832   6.805  0.3138  0.1396 -0.0219
  719loPI   C3A10149  14.880   7.866   7.216  0.1214  0.2054  0.0307
  719loPI   C4A10150  14.905   7.960   7.624  0.0081  0.1253 -0.1518
  719loPI   C5A10151  14.800   8.126   8.062  0.0023  0.0280  0.0447
  719loPI   C6A10152  14.686   8.437   8.343  0.0293 -0.0507 -0.1095
  719loPI   C1B10153  15.132   7.407   6.522  0.1807 -0.1969  0.0892
  719loPI   C2B10154  15.041   7.391   6.934  0.0368  0.3934  0.1317
  719loPI   C3B10155  15.028   7.394   7.388  0.2242  0.1122  0.1328
  719loPI   C4B10156  15.085   7.511   7.733 -0.2329  0.1316  0.1357
  720loPI    C110157   8.714   3.121   5.204  0.3827 -0.0292 -0.1566
  720loPI    C210158   8.580   3.487   5.114  0.2067 -0.0888 -0.1407
  720loPI    C310159   8.354   3.166   5.036  0.2440 -0.1750  0.0945
  720loPI   PO410160   8.846   3.154   5.453  0.2362  0.1573  0.0662
  720loPI   GL110161   8.713   3.246   5.813 -0.2453 -0.0939  0.2253
  720loPI   GL210162   8.899   3.128   6.017  0.2214  0.3378  0.0730
  720loPI   C1A10163   8.530   3.372   6.229  0.0336 -0.1041 -0.0703
  720loPI   C2A10164   8.591   3.216   6.616 -0.1230  0.0406  0.0254
  720loPI   C3A10165   8.777   3.196   7.009 -0.1141  0.1034 -0.3876
  720loPI   C4A10166   8.925   3.023   7.391  0.0221 -0.0018  0.0129
  720loPI   C5A10167   8.999   3.092   7.685 -0.1031  0.0715 -0.1759
  720loPI   C6A10168   9.165   3.435   7.957  0.0964 -0.3155  0.1800
  720loPI   C1B10169   9.052   2.973   6.366 -0.1640  0.2169  0.3351
  720loPI   C2B10170   9.170   2.872   6.733 -0.0798  0.0102  0.2478
  720loPI   C3B10171   9.399   3.051   7.091  0.1062 -0.0050  0.1774
  720loPI   C4B10172   9.512   2.843   7.452  0.2052  0.0831 -0.0095
  721loPI    C110173  16.525   9.541   5.644 -0.0893 -0.1447  0.0967
  721loPI    C210174  16.768   9.225   5.611  0.2373  0.1079  0.0287
  721loPI    C310175  16.683   9.447   5.289 -0.0870  0.0237  0.0525
  721loPI   PO410176  16.617   9.663   5.858  0.2145  0.2734  0.0752
  721loPI   GL110177  16.394   9.892   6.108  0.1061  0.0689 -0.0610
  721loPI   GL210178  16.150   9.780   6.214 -0.1297  0.0249 -0.1055
  721loPI   C1A10179  16.652   9.863   6.550  0.1178 -0.0365  0.1462
  721loPI   C2A10180  16.924   9.753   6.914  0.0474 -0.1074 -0.1547
  721loPI   C3A10181  17.104   9.876   7.343 -0.2039 -0.1572 -0.0653
  721loPI   C4A10182  17.437   9.738   7.622 -0.2857  0.2201  0.2326
  721loPI   C5A10183  17.717   9.779   7.946  0.0848 -0.0615  0.1245
  721loPI   C6A10184  18.006   9.834   8.394 -0.1774  0.0398  0.2133
  721loPI   C1B10185  16.181   9.454   6.579  0.0590 -0.2680  0.3300
  721loPI   C2B10186  16.029   9.396   7.025  0.0074 -0.0281 -0.0127
  721loPI   C3B10187  15.703   9.633   7.130 -0.1642  0.0833  0.0257
  721loPI   C4B10188  15.617   9.722   7.471 -0.0420  0.3362 -0.0175
  722loPI    C110189  13.438  10.682   5.277  0.2647  0.1174 -0.0292
  722loPI    C210190  13.172  10.487   5.051  0.1054  0.3101 -0.0106
  722loPI    C310191  13.557  10.497   4.943  0.0923  0.0991 -0.0816
  722loPI   PO410192  13.166  10.908   5.359 -0.2140  0.2197  0.1385
  722loPI   GL110193  12.902  10.806   5.730  0.0544 -0.1724  0.0415
  722loPI   GL210194  13.157  10.858   5.873 -0.1307 -0.0541 -0.1295
  722loPI   C1A10195  12.953  10.503   6.082  0.0448  0.2277 -0.1338
  722loPI   C2A10196  12.952  10.375   6.533 -0.2655 -0.0216  0.2447
  722loPI   C3A10197  12.904  10.382   6.979  0.0563  0.1553  0.2237
  722loPI   C4A10198  12.931  10.479   7.373 -0.0364  0.0365  0.2079
  722loPI   C5A10199  13.249  10.455   7.738 -0.2237  0.1469 -0.1523
  722loPI   C6A10200  13.293  10.306   8.092 -0.1290  0.4005 -0.2407
  722loPI   C1B10201  13.196  10.903   6.252 -0.1928 -0.1229 -0.3299
  722loPI   C2B10202  13.164  10.836   6.663 -0.1245  0.0518  0.1795
  722loPI   C3B10203  13.157  10.781   7.110 -0.1814  0.0904  0.0088
  722loPI   C4B10204  13.152  10.955   7.582  0.1043  0.0673  0.1819
  723loPI    C110205  10.232  16.153   5.676  0.1013 -0.0518  0.0696
  723loPI    C210206  10.093  16.508   5.554 -0.0275 -0.1680 -0.1276
  723loPI    C310207  10.486  16.454   5.603 -0.0196  0.0518  0.0722
  723loPI   PO410208   9.929  16.059   5.872 -0.1140 -0.0246 -0.1697
  723loPI   GL110209  10.048  16.009   6.325  0.1073  0.1030 -0.3100
  723loPI   GL210210  10.246  15.874   6.196 -0.0128 -0.2178 -0.0810
  723loPI   C1A10211   9.958  15.953   6.720 -0.0993  0.0972  0.0909
  723loPI   C2A10212   9.791  16.080   7.099  0.1312  0.0095  0.1686
  723loPI   C3A10213   9.693  16.392   7.420 -0.1924  0.1184 -0.0757
  723loPI   C4A10214   9.645  16.465   7.817  0.1352 -0.0040  0.1284
  723loPI   C5A10215   9.514  16.654   8.217  0.0650 -0.0015  0.1207
  723loPI   C6A10216   9.522  16.867   8.682 -0.2508  0.1134  0.4744
  723loPI   C1B10217  10.520  15.937   6.630  0.2023  0.3955  0.2631
  723loPI   C2B10218  10.543  15.871   7.046 -0.6129  0.5059  0.0741
  723loPI   C3B10219  10.562  16.166   7.461  0.0035 -0.0247 -0.0156
  723loPI   C4B10220  10.597  16.411   7.863  0.1660 -0.2858 -0.0515
  724loPI    C110221   6.923  16.575   5.745 -0.0286 -0.0226 -0.1781
  724loPI    C210222   6.672  16.719   5.469 -0.1235  0.3585  0.0989
  724loPI    C310223   7.059  16.819   5.459 -0.0718  0.1508 -0.0522
  724loPI   PO410224   6.753  16.640   5.966  0.4324 -0.1087 -0.3234
  724loPI   GL110225   6.383  16.567   6.114 -0.2522  0.1066 -0.2565
  724loPI   GL210226   6.471  16.571   6.383  0.3197  0.0135 -0.0259
  724loPI   C1A10227   6.277  17.007   6.295 -0.2686  0.0980 -0.0657
  724loPI   C2A10228   6.227  17.247   6.664  0.2885 -0.2774  0.0767
  724loPI   C3A10229   6.252  17.169   7.110  0.0136 -0.3410  0.1888
  724loPI   C4A10230   6.315  17.249   7.496 -0.0704  0.1353  0.2879
  724loPI   C5A10231   6.115  17.214   7.949  0.0565 -0.1051 -0.1156
  724loPI   C6A10232   6.308  17.491   8.199  0.1308 -0.0815 -0.1788
  724loPI   C1B10233   6.281  16.639   6.824 -0.1985  0.2089 -0.4919
  724loPI   C2B10234   6.272  16.685   7.312 -0.1581  0.1989 -0.1090
  724loPI   C3B10235   6.209  16.734   7.705  0.0397  0.1535 -0.0514
  724loPI   C4B10236   6.357  16.837   8.187  0.0308  0.2454 -0.1376
  725loPI    C110237  13.736   7.880   5.233  0.0096  0.1151  0.0963
  725loPI    C210238  14.126   7.798   5.264  0.0032  0.0450 -0.0042
  725loPI    C310239  13.983   7.967   4.931 -0.0651 -0.0041  0.0000
  725loPI   PO410240  13.602   7.759   5.436  0.2746 -0.0122  0.2574
  725loPI   GL110241  13.548   7.381   5.698 -0.0629  0.1015 -0.0362
  725loPI   GL210242  13.300   7.532   5.944 -0.0838  0.0956 -0.2014
  725loPI   C1A10243  13.714   7.258   6.019 -0.0862 -0.1959  0.1943
  725loPI   C2A10244  13.581   7.287   6.381  0.1062  0.0213 -0.0497
  725loPI   C3A10245  13.528   7.316   6.766  0.1985 -0.0040 -0.1247
  725loPI   C4A10246  13.492   7.340   7.152  0.1426  0.0662  0.2313
  725loPI   C5A10247  13.678   7.298   7.535 -0.2064 -0.2057 -0.0180
  725loPI   C6A10248  13.655   6.929   7.719  0.1483 -0.1280  0.1023
  725loPI   C1B10249  13.191   7.745   6.282  0.0956  0.2950  0.1917
  725loPI   C2B10250  13.198   7.769   6.692  0.1229 -0.2330 -0.1621
  725loPI   C3B10251  13.153   7.740   7.088  0.1689 -0.1825  0.0579
  725loPI   C4B10252  13.248   7.702   7.477  0.1451  0.0415  0.0703
  726loPI    C110253  13.833   2.787   5.408 -0.1178 -0.1519  0.0764
  726loPI    C210254  14.190   2.615   5.464  0.0038 -0.0022 -0.2171
  726loPI    C310255  14.131   2.994   5.577 -0.1032 -0.0672 -0.0515
  726loPI   PO410256  13.671   2.636   5.556 -0.0312 -0.1624  0.2322
  726loPI   GL110257  13.497   2.570   5.969  0.0735  0.2285  0.1034
  726loPI   GL210258  13.269   2.374   5.871  0.2111  0.0472 -0.2215
  726loPI   C1A10259  13.548   2.495   6.380  0.2682 -0.0698  0.2260
  726loPI   C2A10260  13.647   2.698   6.813 -0.1435 -0.1671  0.0848
  726loPI   C3A10261  13.570   2.628   7.210 -0.2494  0.0277 -0.0287
  726loPI   C4A10262  13.621   2.531   7.669 -0.2295  0.0369 -0.1134
  726loPI   C5A10263  13.777   2.470   8.097  0.0319  0.0292 -0.0613
  726loPI   C6A10264  13.673   2.167   8.390 -0.0744  0.1602  0.3429
  726loPI   C1B10265  13.093   2.330   6.219  0.0086  0.1755 -0.2591
  726loPI   C2B10266  13.159   2.420   6.681  0.1242 -0.1728 -0.4698
  726loPI   C3B10267  13.124   2.420   7.105 -0.2451  0.0984 -0.0957
  726loPI   C4B10268  13.147   2.519   7.545 -0.1178  0.3064 -0.1419
  727loPI    C110269   4.552   8.182   5.352  0.0722 -0.2289  0.0592
  727loPI    C210270   4.703   7.973   5.046 -0.1795 -0.1080 -0.1511
  727loPI    C310271   4.671   8.371   5.020 -0.2087 -0.0976  0.0305
  727loPI   PO410272   4.679   8.049   5.618  0.0467 -0.1040 -0.1695
  727loPI   GL110273   4.634   8.046   6.118 -0.0397  0.0433  0.3784
  727loPI   GL210274   4.916   8.047   6.163 -0.1989 -0.1151 -0.1376
  727loPI   C1A10275   4.388   7.974   6.499  0.0060  0.1411  0.0431
  727loPI   C2A10276   4.461   8.061   6.985  0.1625  0.0678  0.0298
  727loPI   C3A10277   4.442   7.985   7.408 -0.0533  0.2053  0.2096
  727loPI   C4A10278   4.441   7.910   7.756  0.0633 -0.0126 -0.4247
  727loPI   C5A10279   4.455   7.713   8.063  0.0313  0.0119  0.2229
  727loPI   C6A10280   4.647   7.416   8.350 -0.0017 -0.0924 -0.1216
  727loPI   C1B10281   4.900   8.019   6.560  0.0256 -0.0330  0.0067
  727loPI   C2B10282   5.011   8.014   6.875 -0.0334 -0.1619  0.0397
  727loPI   C3B10283   4.927   8.090   7.308  0.1161 -0.0800  0.1313
  727loPI   C4B10284   5.200   8.202   7.659 -0.0398 -0.3170 -0.0515
  728loPI    C110285   0.598  12.210   5.765  0.4001  0.2675  0.2075
  728loPI    C210286   0.618  12.517   5.510  0.1292  0.1253  0.0100
  728loPI    C310287   0.643  12.142   5.374 -0.2147  0.0422  0.1649
  728loPI   PO410288   0.399  12.274   5.929  0.1661 -0.1057  0.1014
  728loPI   GL110289  -0.075  12.234   6.052  0.0347 -0.0129  0.0386
  728loPI   GL210290  -0.111  12.036   6.319 -0.1817 -0.1549  0.0064
  728loPI   C1A10291  -0.382  12.391   6.449 -0.1561  0.0013 -0.0801
  728loPI   C2A10292  -0.520  12.445   6.862  0.1809 -0.1541  0.2792
  728loPI   C3A10293  -0.775  12.547   7.193  0.1547 -0.0414  0.0777
  728loPI   C4A10294  -0.819  12.477   7.596  0.0064  0.0294  0.1781
  728loPI   C5A10295  -1.012  12.303   7.878 -0.1090 -0.0919 -0.2969
  728loPI   C6A10296  -1.250  12.163   8.196  0.1079 -0.0368  0.0054
  728loPI   C1B10297  -0.168  12.138   6.789 -0.0346  0.2223 -0.0223
  728loPI   C2B10298  -0.226  12.212   7.194 -0.1278 -0.3406 -0.2522
  728loPI   C3B10299  -0.347  12.573   7.492 -0.0702  0.2344  0.2437
  728loPI   C4B10300  -0.523  12.847   7.769  0.0342  0.0453  0.0061
  729loPI    C110301  12.350   3.108   5.312  0.1732 -0.0936 -0.1785
  729loPI    C210302  11.984   2.956   5.259  0.1370  0.0295 -0.2882
  729loPI    C310303  12.289   2.716   5.357 -0.0391 -0.0279  0.1401
  729loPI   PO410304  12.404   3.329   5.477  0.0060  0.3739  0.1424
  729loPI   GL110305  12.540   3.595   5.817  0.2736 -0.1077  0.1376
  729loPI   GL210306  12.869   3.737   5.841 -0.0928 -0.0509 -0.0353
  729loPI   C1A10307  12.494   3.572   6.256 -0.1658  0.1463  0.0842
  729loPI   C2A10308  12.585   3.674   6.608 -0.0870 -0.1025 -0.4824
  729loPI   C3A10309  12.602   3.728   7.061 -0.2060 -0.0978  0.0558
  729loPI   C4A10310  12.878   3.859   7.473 -0.3172 -0.1183 -0.2583
  729loPI   C5A10311  13.110   3.940   7.912  0.0139 -0.3256  0.3455
  729loPI   C6A10312  13.032   4.071   8.387  0.1581  0.0645 -0.0022
  729loPI   C1B10313  12.916   3.892   6.309  0.0054  0.0900  0.0590
  729loPI   C2B10314  13.097   3.756   6.682  0.1269  0.0783 -0.2780
  729loPI   C3B10315  13.433   3.964   6.769  0.0963 -0.2604 -0.0327
  729loPI   C4B10316  13.566   4.033   7.199 -0.0536  0.0019 -0.1622
  730loPI    C110317   6.701  17.210   5.612 -0.0525  0.1732 -0.0810
  730loPI    C210318   6.908  17.484   5.407  0.0782 -0.0164 -0.2074
  730loPI    C310319   6.754  17.168   5.218 -0.1101 -0.0088 -0.0703
  730loPI   PO410320   6.888  17.256   5.827 -0.1112  0.1471  0.2433
  730loPI   GL110321   7.097  17.285   6.259  0.0919 -0.1566  0.1038
  730loPI   GL210322   6.954  17.560   6.323  0.0014  0.1948  0.3580
  730loPI   C1A10323   7.145  17.200   6.676 -0.1766 -0.0629 -0.2277
  730loPI   C2A10324   7.066  17.274   7.140 -0.1044 -0.1542  0.1003
  730loPI   C3A10325   7.358  17.376   7.507 -0.2317 -0.0911  0.2537
  730loPI   C4A10326   7.495  17.674   7.814  0.1115 -0.1789  0.1679
  730loPI   C5A10327   7.101  17.962   7.898 -0.3726  0.2918  0.2079
  730loPI   C6A10328   7.046  18.506   7.726  0.0541 -0.0882 -0.1147
  730loPI   C1B10329   6.672  17.382   6.605  0.2286  0.0971 -0.2070
  730loPI   C2B10330   6.637  17.490   7.004  0.5402 -0.1694  0.1055
  730loPI   C3B10331   6.873  17.571   7.473  0.0384 -0.2996  0.1575
  730loPI   C4B10332   6.746  17.415   7.806 -0.2220 -0.1485  0.0528
  731loPI    C110333  14.106  12.560   5.689  0.0663 -0.0211  0.1144
  731loPI    C210334  13.975  12.507   5.315  0.0847 -0.0218  0.1081
  731loPI    C310335  14.359  12.600   5.382  0.1170 -0.1722  0.1357
  731loPI   PO410336  13.897  12.755   5.876  0.0007  0.2303  0.2815
  731loPI   GL110337  13.895  12.894   6.243  0.1426  0.2910 -0.0860
  731loPI   GL210338  14.187  12.984   6.195  0.1469 -0.3152 -0.1980
  731loPI   C1A10339  13.915  13.068   6.685  0.1188  0.1112 -0.0708
  731loPI   C2A10340  13.889  13.242   7.078  0.2248  0.0116 -0.3200
  731loPI   C3A10341  13.913  13.570   7.290 -0.0274  0.0403  0.1912
  731loPI   C4A10342  13.836  13.981   7.572 -0.1932  0.0921  0.0416
  731loPI   C5A10343  13.933  14.483   7.750 -0.1969 -0.1243  0.2387
  731loPI   C6A10344  14.266  14.655   7.747 -0.1121  0.1742  0.2545
  731loPI   C1B10345  14.375  12.835   6.636 -0.2837 -0.1223  0.2070
  731loPI   C2B10346  14.268  12.689   7.168  0.0326  0.1511 -0.1118
  731loPI   C3B10347  14.253  12.493   7.539 -0.0804 -0.0373 -0.2264
  731loPI   C4B10348  14.293  12.549   7.951  0.0891  0.0620  0.2585
  732loPI    C110349  17.121   0.341   5.590  0.1835  0.1572 -0.1897
  732loPI    C210350  16.731   0.421   5.546  0.1407  0.1325  0.1228
  732loPI    C310351  16.912   0.165   5.297 -0.0232  0.2046 -0.0731
  732loPI   PO410352  17.131   0.280   5.890  0.1479  0.1321  0.2996
  732loPI   GL110353  17.364   0.416   6.213  0.1263  0.0702 -0.1342
  732loPI   GL210354  17.176   0.688   6.320 -0.1491  0.2192  0.2407
  732loPI   C1A10355  17.200   0.272   6.599 -0.0937 -0.1792 -0.1239
  732loPI   C2A10356  17.187   0.344   7.022  0.1075  0.2100 -0.2639
  732loPI   C3A10357  17.197   0.145   7.289  0.0112  0.0470 -0.0554
  732loPI   C4A10358  17.252   0.081   7.747  0.0453  0.1562 -0.4195
  732loPI   C5A10359  17.515  -0.225   8.087 -0.2430  0.1351 -0.0430
  732loPI   C6A10360  17.976  -0.185   8.120  0.0680 -0.0983 -0.0419
  732loPI   C1B10361  17.020   0.803   6.701  0.1990 -0.1218 -0.2462
  732loPI   C2B10362  16.986   0.780   7.249  0.0673 -0.0174  0.1034
  732loPI   C3B10363  16.802   0.409   7.457  0.2058 -0.1103  0.1817
  732loPI   C4B10364  16.898   0.336   7.943  0.2483 -0.0253  0.1887
  733loPI    C110365   2.937   4.064   5.351  0.2053 -0.0727 -0.0876
  733loPI    C210366   2.619   4.302   5.395  0.1635 -0.1098 -0.1871
  733loPI    C310367   2.805   4.280   5.042  0.1416 -0.2565 -0.1900
  733loPI   PO410368   2.899   3.865   5.567  0.0608  0.2084 -0.3134
  733loPI   GL110369   2.591   3.875   5.967 -0.0997 -0.3804  0.0603
  733loPI   GL210370   2.621   4.200   6.064  0.0270  0.2536  0.2673
  733loPI   C1A10371   2.562   3.814   6.366  0.0565 -0.0573 -0.0221
  733loPI   C2A10372   2.563   3.839   6.705  0.1393  0.0115 -0.4156
  733loPI   C3A10373   2.697   3.853   7.150 -0.0251  0.0501 -0.0554
  733loPI   C4A10374   2.691   3.899   7.594 -0.1573 -0.2352  0.0113
  733loPI   C5A10375   2.665   4.108   7.937 -0.0776  0.0104 -0.0789
  733loPI   C6A10376   2.823   4.339   8.235  0.1185  0.0717 -0.1695
  733loPI   C1B10377   2.655   4.345   6.476  0.1735  0.3260 -0.2459
  733loPI   C2B10378   2.938   4.287   6.887  0.2338  0.4131 -0.3551
  733loPI   C3B10379   2.928   4.307   7.376  0.3643  0.0338 -0.1357
  733loPI   C4B10380   3.098   4.442   7.723 -0.0224 -0.2419  0.0249
  734loPI    C110381  13.680   7.015   5.138  0.0594  0.2257  0.0071
  734loPI    C210382  14.070   7.038   5.053  0.1061  0.1892  0.2080
  734loPI    C310383  13.817   6.883   4.786  0.1952  0.4204 -0.0147
  734loPI   PO410384  13.622   7.024   5.358  0.0749  0.2573  0.0074
  734loPI   GL110385  13.391   6.855   5.611 -0.2229 -0.0263  0.0860
  734loPI   GL210386  13.594   6.567   5.613  0.1032 -0.0497  0.1940
  734loPI   C1A10387  13.310   6.952   6.048 -0.0030  0.1981 -0.1729
  734loPI   C2A10388  13.236   6.880   6.433  0.1502 -0.2409  0.0188
  734loPI   C3A10389  13.320   6.677   6.789 -0.1671  0.1147  0.2708
  734loPI   C4A10390  13.106   6.331   7.121  0.0856 -0.1611 -0.3766
  734loPI   C5A10391  13.146   6.047   7.377 -0.2951 -0.3975  0.0763
  734loPI   C6A10392  12.990   5.714   7.671 -0.0495  0.0343 -0.1443
  734loPI   C1B10393  13.281   6.486   5.978  0.1601 -0.0143 -0.1079
  734loPI   C2B10394  13.171   6.427   6.367  0.0643  0.1951 -0.0044
  734loPI   C3B10395  13.055   6.101   6.585  0.1473 -0.1691  0.3075
  734loPI   C4B10396  13.110   5.679   6.802 -0.0400 -0.1805  0.1434
  735loPI    C110397  15.098   3.478   5.224 -0.0505 -0.1134  0.1559
  735loPI    C210398  14.705   3.506   5.157 -0.0725 -0.2035  0.2455
  735loPI    C310399  14.963   3.680   4.906 -0.1733 -0.0422  0.2524
  735loPI   PO410400  15.086   3.572   5.447 -0.2624 -0.1092 -0.0123
  735loPI   GL110401  15.152   3.434   5.816  0.0190 -0.4358 -0.1288
  735loPI   GL210402  14.914   3.575   5.964  0.1436  0.0984 -0.0758
  735loPI   C1A10403  15.316   3.233   6.138 -0.1772  0.2223 -0.0366
  735loPI   C2A10404  15.100   2.955   6.423  0.0791  0.0130 -0.0087
  735loPI   C3A10405  15.113   3.009   6.867 -0.2027 -0.0119 -0.2035
  735loPI   C4A10406  15.123   3.025   7.298 -0.0888 -0.1712 -0.0453
  735loPI   C5A10407  15.004   2.945   7.738  0.4162  0.3275 -0.0006
  735loPI   C6A10408  15.063   3.126   8.162  0.1355  0.0773  0.4303
  735loPI   C1B10409  14.820   3.387   6.380 -0.3134  0.1869  0.2268
  735loPI   C2B10410  14.808   3.336   6.816 -0.2023 -0.5151  0.1103
  735loPI   C3B10411  14.752   3.340   7.245 -0.0562  0.2163 -0.2159
  735loPI   C4B10412  14.728   3.388   7.700 -0.0937  0.1013  0.2527
  736loPI    C110413  15.255   0.262   5.728 -0.1602  0.0477 -0.0358
  736loPI    C210414  15.100   0.102   5.396  0.0305  0.1468 -0.1745
  736loPI    C310415  14.930   0.030   5.751 -0.1347 -0.0152 -0.2846
  736loPI   PO410416  15.510   0.448   5.607  0.1418 -0.2945  0.0320
  736loPI   GL110417  15.659   0.692   5.937 -0.4683  0.0487  0.0816
  736loPI   GL210418  15.730   0.965   5.959  0.3049 -0.0775  0.1313
  736loPI   C1A10419  15.451   0.423   6.309 -0.1130 -0.0581 -0.1077
  736loPI   C2A10420  15.305   0.459   6.773 -0.1643 -0.2386  0.2112
  736loPI   C3A10421  15.132   0.699   7.142  0.4609 -0.0378 -0.2748
  736loPI   C4A10422  14.999   0.493   7.511  0.1999 -0.0306 -0.3529
  736loPI   C5A10423  14.978   0.196   7.917  0.0426  0.0248 -0.2719
  736loPI   C6A10424  14.985  -0.286   7.947  0.0689 -0.2915  0.2334
  736loPI   C1B10425  15.436   0.947   6.365  0.0927 -0.3532 -0.1641
  736loPI   C2B10426  15.095   0.954   6.517 -0.3560  0.2212  0.1072
  736loPI   C3B10427  15.190   1.133   6.940  0.0128 -0.0897 -0.0532
  736loPI   C4B10428  15.285   1.161   7.346  0.0752 -0.3125 -0.0467
  737loPI    C110429   8.014   0.773   5.657 -0.0005 -0.0847 -0.0617
  737loPI    C210430   8.147   1.142   5.579 -0.1794 -0.0367 -0.1448
  737loPI    C310431   8.269   0.835   5.355  0.0124 -0.0373 -0.0412
  737loPI   PO410432   7.901   0.814   5.922 -0.1261 -0.2279 -0.0635
  737loPI   GL110433   7.540   0.917   6.143 -0.0220 -0.1562  0.0188
  737loPI   GL210434   7.646   1.190   6.139  0.2286 -0.0422  0.1669
  737loPI   C1A10435   7.257   0.779   6.429  0.2392  0.1339 -0.1237
  737loPI   C2A10436   7.174   0.804   6.759  0.1373 -0.0896  0.1632
  737loPI   C3A10437   7.221   0.925   7.243  0.2141 -0.1013 -0.1771
  737loPI   C4A10438   7.238   1.008   7.683 -0.2953  0.0944 -0.0874
  737loPI   C5A10439   7.400   1.026   8.068 -0.0898  0.1464  0.0564
  737loPI   C6A10440   7.646   1.269   8.272 -0.3768  0.1663 -0.3381
  737loPI   C1B10441   7.610   1.155   6.641  0.0386  0.0320 -0.1756
  737loPI   C2B10442   7.676   1.071   7.004  0.1167 -0.1785  0.0609
  737loPI   C3B10443   7.628   1.189   7.469  0.3191 -0.2645  0.0021
  737loPI   C4B10444   7.800   1.167   7.813  0.1650  0.0222 -0.0237
  738loPI    C110445  16.446   5.982   5.644  0.0012  0.0416  0.0228
  738loPI    C210446  16.099   6.042   5.834  0.0636 -0.2586  0.2384
  738loPI    C310447  16.116   5.791   5.523  0.0023  0.0847 -0.0487
  738loPI   PO410448  16.583   5.825   5.774 -0.2059  0.1750  0.0440
  738loPI   GL110449  16.886   5.887   6.084  0.0419  0.0025 -0.0547
  738loPI   GL210450  17.115   5.620   6.057  0.1105 -0.0156  0.2082
  738loPI   C1A10451  16.766   6.002   6.517 -0.0086  0.0390 -0.0571
  738loPI   C2A10452  16.865   6.309   6.818  0.0349  0.0282  0.0072
  738loPI   C3A10453  16.760   6.443   7.248  0.1270  0.1028 -0.0230
  738loPI   C4A10454  16.610   6.438   7.676  0.0662  0.0593 -0.1320
  738loPI   C5A10455  16.649   6.122   8.019  0.0638 -0.2688 -0.3058
  738loPI   C6A10456  16.241   5.972   8.226 -0.1001 -0.3762  0.1954
  738loPI   C1B10457  17.114   5.572   6.512  0.0817  0.0947  0.3259
  738loPI   C2B10458  17.125   5.798   6.808  0.0957 -0.0459 -0.3802
  738loPI   C3B10459  17.123   6.075   7.161  0.2061 -0.0538 -0.2065
  738loPI   C4B10460  16.986   6.100   7.665 -0.0769 -0.3439 -0.0154
  739loPI    C110461   2.856   1.841   6.000 -0.0860  0.1548  0.1487
  739loPI    C210462   2.721   1.834   5.623 -0.2023  0.0486  0.1917
  739loPI    C310463   2.849   2.178   5.784 -0.1498  0.0938  0.0548
  739loPI   PO410464   2.780   1.622   6.182  0.2802  0.1339 -0.4031
  739loPI   GL110465   2.817   1.682   6.662  0.2672 -0.0828  0.2471
  739loPI   GL210466   3.119   1.882   6.597 -0.2765  0.0956 -0.0995
  739loPI   C1A10467   2.799   1.808   7.136 -0.0390 -0.0305 -0.1620
  739loPI   C2A10468   3.127   1.867   7.525  0.0990 -0.5035 -0.1039
  739loPI   C3A10469   3.441   1.905   7.884  0.0329 -0.1296  0.0535
  739loPI   C4A10470   3.798   2.104   8.165 -0.4072  0.1814 -0.0072
  739loPI   C5A10471   4.145   2.140   8.466  0.1602  0.0729  0.0249
  739loPI   C6A10472   4.524   1.895   8.569  0.0969  0.1503  0.0104
  739loPI   C1B10473   3.222   1.932   6.990  0.0333 -0.1324  0.3276
  739loPI   C2B10474   3.190   2.321   7.196  0.1803 -0.2199  0.3873
  739loPI   C3B10475   3.132   2.340   7.664 -0.2495  0.0303  0.2100
  739loPI   C4B10476   3.021   2.502   8.099  0.1940 -0.2204 -0.0637
  740loPI    C110477  11.498  14.528   5.447 -0.1081  0.2310 -0.4301
  740loPI    C210478  11.777  14.528   5.160  0.1225 -0.0430 -0.2118
  740loPI    C310479  11.593  14.187   5.260  0.1570  0.0188  0.0719
  740loPI   PO410480  11.627  14.738   5.657 -0.0976  0.3520 -0.3053
  740loPI   GL110481  11.687  14.749   6.148 -0.0142  0.0123  0.0202
  740loPI   GL210482  11.454  14.864   6.355  0.0472 -0.1418 -0.0401
  740loPI   C1A10483  11.861  14.589   6.562  0.1824  0.1339  0.1318
  740loPI   C2A10484  12.184  14.544   6.898  0.1352 -0.0450 -0.2345
  740loPI   C3A10485  12.249  14.769   7.264 -0.1108 -0.0537  0.0271
  740loPI   C4A10486  12.256  14.840   7.679  0.1873  0.1672  0.2862
  740loPI   C5A10487  12.156  15.125   7.922 -0.3371 -0.2877 -0.0289
  740loPI   C6A10488  12.082  15.566   8.003 -0.1219  0.1594  0.0619
  740loPI   C1B10489  11.575  15.157   6.743  0.3534 -0.1029 -0.2598
  740loPI   C2B10490  11.433  15.373   7.109  0.0602 -0.1334 -0.2111
  740loPI   C3B10491  11.322  15.388   7.505 -0.1777  0.0489  0.0311
  740loPI   C4B10492  11.218  15.448   7.991 -0.2629 -0.3621 -0.0015
  741loPI    C110493  11.052   5.364   5.781 -0.2611  0.0980  0.0825
  741loPI    C210494  11.009   5.365   5.384 -0.2326 -0.1496  0.0777
  741loPI    C310495  11.031   5.018   5.582  0.0206 -0.0285  0.2665
  741loPI   PO410496  11.386   5.624   5.718  0.0763  0.1633 -0.0012
  741loPI   GL110497  11.627   5.481   5.988 -0.0359 -0.0812  0.1431
  741loPI   GL210498  11.603   5.184   5.952 -0.1337 -0.1842 -0.1239
  741loPI   C1A10499  11.687   5.564   6.438  0.2094 -0.0773  0.2165
  741loPI   C2A10500  11.711   5.612   6.859 -0.0425 -0.0369 -0.2576
  741loPI   C3A10501  11.697   5.713   7.284 -0.0140 -0.0465 -0.2189
  741loPI   C4A10502  11.566   5.769   7.673 -0.0791 -0.1833 -0.1379
  741loPI   C5A10503  11.874   5.940   7.982  0.0474  0.0896  0.2880
  741loPI   C6A10504  12.078   6.084   8.333  0.1282  0.1810 -0.0228
  741loPI   C1B10505  11.342   5.178   6.262 -0.0235  0.3948  0.3248
  741loPI   C2B10506  11.351   5.217   6.670 -0.1650  0.0990  0.0525
  741loPI   C3B10507  11.315   5.346   7.152 -0.3188 -0.4532 -0.0911
  741loPI   C4B10508  11.456   5.295   7.526 -0.0119  0.2312 -0.0193
  742loPI    C110509  13.441  15.505   5.664  0.1150  0.1649  0.2478
  742loPI    C210510  13.611  15.726   5.377 -0.1320  0.1934  0.1207
  742loPI    C310511  13.470  15.362   5.292 -0.1488  0.1760  0.2208
  742loPI   PO410512  13.677  15.585   5.870 -0.2796  0.0191 -0.0725
  742loPI   GL110513  13.826  15.665   6.279  0.0453 -0.1834  0.0647
  742loPI   GL210514  14.031  15.710   6.375  0.2080 -0.1405 -0.2926
  742loPI   C1A10515  13.941  15.255   6.564  0.2544  0.3563  0.1898
  742loPI   C2A10516  13.883  14.814   6.784  0.0148  0.0606  0.1741
  742loPI   C3A10517  13.889  14.781   7.268 -0.3739  0.1656  0.1829
  742loPI   C4A10518  13.622  14.931   7.658  0.2071  0.3030  0.1509
  742loPI   C5A10519  13.399  14.981   8.004 -0.0346 -0.0095 -0.2929
  742loPI   C6A10520  12.972  15.048   8.164 -0.1071 -0.1523 -0.0232
  742loPI   C1B10521  13.859  15.765   6.799 -0.1191 -0.1187  0.3441
  742loPI   C2B10522  13.940  15.584   7.151 -0.1033  0.2162 -0.0993
  742loPI   C3B10523  13.746  15.668   7.544 -0.0214  0.0762  0.1938
  742loPI   C4B10524  13.644  15.459   7.902 -0.3147  0.1639 -0.1237
  743loPI    C110525   6.974   4.686   5.154  0.2408 -0.0323  0.0156
  743loPI    C210526   6.881   4.338   4.979  0.0902  0.0278 -0.0256
  743loPI    C310527   6.949   4.662   4.755  0.0272  0.0735  0.0211
  743loPI   PO410528   6.990   4.611   5.418 -0.0022 -0.2204 -0.1034
  743loPI   GL110529   6.762   4.532   5.793 -0.1887 -0.0466  0.0368
  743loPI   GL210530   6.467   4.688   5.803  0.0792 -0.1180  0.4719
  743loPI   C1A10531   6.941   4.371   6.080  0.4386  0.1126 -0.1253
  743loPI   C2A10532   6.855   4.095   6.390 -0.0474 -0.0963 -0.0374
  743loPI   C3A10533   6.569   3.841   6.633 -0.0102  0.1737  0.0097
  743loPI   C4A10534   6.578   3.793   7.065  0.0498  0.1465 -0.0492
  743loPI   C5A10535   6.736   3.794   7.516 -0.1498 -0.1279  0.1767
  743loPI   C6A10536   6.819   4.055   7.782 -0.0957 -0.2118  0.1109
  743loPI   C1B10537   6.283   5.046   6.029 -0.0907  0.0509  0.0141
  743loPI   C2B10538   6.357   5.020   6.459  0.0182 -0.0196  0.0283
  743loPI   C3B10539   6.394   4.919   6.911 -0.1194  0.0754 -0.2006
  743loPI   C4B10540   6.512   4.708   7.318  0.3056 -0.2213  0.2848
  744loPI    C110541  11.168  13.884   5.420  0.0563  0.0949  0.2087
  744loPI    C210542  10.997  13.596   5.639  0.1970 -0.1576 -0.0078
  744loPI    C310543  10.966  13.589   5.241  0.2726  0.0822 -0.0194
  744loPI   PO410544  11.405  13.929   5.667  0.1241 -0.0555 -0.2011
  744loPI   GL110545  11.506  14.251   5.953  0.2733 -0.0919  0.0818
  744loPI   GL210546  11.323  14.217   6.135 -0.1155  0.3253 -0.2136
  744loPI   C1A10547  11.785  14.119   6.346 -0.0048  0.3316 -0.0589
  744loPI   C2A10548  11.948  14.141   6.780  0.1093  0.0618  0.0954
  744loPI   C3A10549  12.261  14.107   7.041 -0.0977 -0.0613  0.2759
  744loPI   C4A10550  12.457  14.341   7.349 -0.1813  0.2302 -0.1488
  744loPI   C5A10551  12.615  14.466   7.761  0.2251  0.0903  0.0514
  744loPI   C6A10552  12.395  14.710   8.129  0.1229  0.2246  0.1837
  744loPI   C1B10553  11.387  14.316   6.591 -0.0122 -0.0653  0.1327
  744loPI   C2B10554  11.492  14.256   6.969  0.0697 -0.0985 -0.1234
  744loPI   C3B10555  11.894  14.287   7.270  0.1892  0.0032 -0.2276
  744loPI   C4B10556  12.145  14.306   7.734  0.1065  0.1178  0.2859
  745loPI    C110557   2.810  12.733   5.479  0.1031  0.2632  0.0303
  745loPI    C210558   2.971  12.578   5.811  0.0161 -0.0378 -0.0647
  745loPI    C310559   3.194  12.619   5.481  0.0292  0.0064 -0.0505
  745loPI   PO410560   2.572  12.836   5.678  0.1652 -0.0273 -0.2239
  745loPI   GL110561   2.430  12.830   6.089 -0.0041  0.1415 -0.1141
  745loPI   GL210562   2.713  12.792   6.186  0.0583  0.0755 -0.1279
  745loPI   C1A10563   2.311  12.438   6.327  0.0403  0.1915 -0.0797
  745loPI   C2A10564   2.260  12.260   6.769  0.0773  0.0326  0.0809
  745loPI   C3A10565   2.414  12.411   7.123 -0.0583 -0.0720 -0.1178
  745loPI   C4A10566   2.494  12.362   7.589  0.0100  0.0198 -0.0178
  745loPI   C5A10567   2.613  12.346   8.077 -0.1390 -0.0165  0.1481
  745loPI   C6A10568   2.576  12.095   8.375  0.0441 -0.5767 -0.0092
  745loPI   C1B10569   2.477  12.962   6.539  0.0022 -0.1063  0.1328
  745loPI   C2B10570   2.379  12.970   6.969 -0.0219  0.1978 -0.0089
  745loPI   C3B10571   2.420  12.847   7.393 -0.0032 -0.0682  0.0109
  745loPI   C4B10572   2.512  12.805   7.833 -0.0425 -0.0191 -0.1156
  746loPI    C110573   3.463   2.673   5.682  0.1684  0.1482 -0.1378
  746loPI    C210574   3.744   2.400   5.762  0.1548  0.1614 -0.0438
  746loPI    C310575   3.716   2.557   5.395  0.1253 -0.0068 -0.1141
  746loPI   PO410576   3.288   2.612   5.829 -0.1484 -0.0606  0.4169
  746loPI   GL110577   3.427   2.659   6.348  0.3978 -0.0868  0.3538
  746loPI   GL210578   3.705   2.727   6.177 -0.0048 -0.0280  0.1271
  746loPI   C1A10579   3.130   2.366   6.659 -0.2826 -0.0520  0.2740
  746loPI   C2A10580   2.786   2.312   6.925  0.0655  0.3255 -0.3595
  746loPI   C3A10581   2.682   2.282   7.383  0.0566  0.1985  0.0759
  746loPI   C4A10582   2.695   2.083   7.736  0.2148  0.1752 -0.1923
  746loPI   C5A10583   2.655   2.124   8.237  0.2049  0.0283  0.0304
  746loPI   C6A10584   2.773   2.185   8.600 -0.1129 -0.1424  0.3465
  746loPI   C1B10585   3.812   2.760   6.665 -0.3154 -0.0006  0.0696
  746loPI   C2B10586   3.996   2.849   7.066  0.2373 -0.3900  0.1009
  746loPI   C3B10587   4.072   2.530   7.466  0.1629 -0.0841 -0.3517
  746loPI   C4B10588   4.016   2.446   7.887  0.1089  0.1098  0.0336
  747loPI    C110589   0.528  15.406   5.759  0.0956 -0.0621  0.0088
  747loPI    C210590   0.689  15.383   5.394  0.1613 -0.3408  0.0525
  747loPI    C310591   0.383  15.146   5.492  0.0039 -0.1169  0.1109
  747loPI   PO410592   0.494  15.726   5.814 -0.1830 -0.1625  0.3126
  747loPI   GL110593   0.357  15.931   6.209  0.1661  0.3174 -0.2232
  747loPI   GL210594   0.054  15.839   6.258  0.0209 -0.0018 -0.0151
  747loPI   C1A10595   0.537  15.896   6.617  0.1160  0.3917  0.2359
  747loPI   C2A10596   0.451  15.967   7.119 -0.3478  0.0655 -0.3320
  747loPI   C3A10597   0.329  16.166   7.453  0.1474  0.0985 -0.1755
  747loPI   C4A10598   0.173  16.364   7.894 -0.0325  0.2731 -0.0359
  747loPI   C5A10599  -0.034  16.221   8.255  0.1733  0.2090 -0.0899
  747loPI   C6A10600  -0.231  16.222   8.673 -0.3241 -0.1735  0.0911
  747loPI   C1B10601  -0.025  15.826   6.663  0.1383 -0.0668 -0.4009
  747loPI   C2B10602  -0.035  15.892   7.081  0.2636  0.1785 -0.1491
  747loPI   C3B10603  -0.011  15.721   7.493  0.0305  0.2674  0.2661
  747loPI   C4B10604  -0.069  15.771   7.964  0.3260  0.2314  0.1615
  748loPI    C110605   1.751   2.371   5.884 -0.1155 -0.1102 -0.1312
  748loPI    C210606   1.751   2.758   5.780  0.1621 -0.1431 -0.2637
  748loPI    C310607   1.557   2.490   5.555  0.1224 -0.1067 -0.2729
  748loPI   PO410608   1.935   2.409   6.082 -0.0104 -0.0799 -0.2254
  748loPI   GL110609   1.958   2.472   6.433  0.1841 -0.0063  0.0697
  748loPI   GL210610   1.807   2.500   6.608 -0.0563  0.0326 -0.1131
  748loPI   C1A10611   2.267   2.708   6.708 -0.0611 -0.2256 -0.4025
  748loPI   C2A10612   2.431   2.657   7.058  0.2499 -0.0071 -0.0681
  748loPI   C3A10613   2.350   2.693   7.446  0.0346  0.0738 -0.0259
  748loPI   C4A10614   2.320   2.490   7.775  0.2254 -0.4045  0.0769
  748loPI   C5A10615   2.098   2.425   8.150 -0.0774 -0.0760  0.2086
  748loPI   C6A10616   1.684   2.529   8.340  0.0557  0.1799 -0.0963
  748loPI   C1B10617   1.927   2.491   7.090  0.0996  0.2034  0.0890
  748loPI   C2B10618   1.983   2.369   7.450 -0.0307  0.0909  0.1187
  748loPI   C3B10619   1.810   2.250   7.792  0.2262 -0.0085 -0.3490
  748loPI   C4B10620   1.759   2.049   8.236  0.0113  0.1613 -0.2581
  749loPI    C110621  10.622   4.750   5.351  0.0319 -0.0777 -0.0102
  749loPI    C210622  10.552   4.733   4.958 -0.2010  0.0624  0.0235
  749loPI    C310623  10.659   5.079   5.127 -0.1676  0.0175  0.0945
  749loPI   PO410624  10.835   4.540   5.454 -0.0440 -0.0171  0.1331
  749loPI   GL110625  11.118   4.501   5.868 -0.2803  0.0825  0.2506
  749loPI   GL210626  11.063   4.815   6.092  0.1068 -0.0057  0.2367
  749loPI   C1A10627  11.173   4.412   6.312 -0.2084  0.0177 -0.1334
  749loPI   C2A10628  11.265   4.349   6.715  0.0445  0.1998 -0.1323
  749loPI   C3A10629  11.256   4.288   7.080 -0.3735  0.0360 -0.3251
  749loPI   C4A10630  11.301   4.354   7.439 -0.2699  0.2935  0.1149
  749loPI   C5A10631  11.466   4.282   7.853  0.0683 -0.0301 -0.1645
  749loPI   C6A10632  11.802   4.210   8.133  0.2535 -0.2336  0.3219
  749loPI   C1B10633  11.010   4.905   6.492  0.1460  0.0336 -0.1814
  749loPI   C2B10634  11.106   4.803   6.851  0.0878  0.1367 -0.0493
  749loPI   C3B10635  11.106   4.912   7.308 -0.1289 -0.0625  0.3397
  749loPI   C4B10636  11.233   4.884   7.720  0.0583 -0.3441  0.0057
  750loPI    C110637  17.360  17.767   5.610  0.0090  0.0705 -0.3295
  750loPI    C210638  17.615  18.068   5.676 -0.1706  0.1526  0.0165
  750loPI    C310639  17.721  17.764   5.439  0.1515  0.3066 -0.0423
  750loPI   PO410640  17.281  17.718   5.882  0.1767 -0.3622  0.3467
  750loPI   GL110641  16.981  17.898   6.226 -0.2107  0.1469 -0.0318
  750loPI   GL210642  16.643  17.879   6.171 -0.1377  0.0768 -0.0778
  750loPI   C1A10643  17.002  17.824   6.635 -0.2616  0.0458 -0.0315
  750loPI   C2A10644  17.021  17.657   7.043  0.1267  0.1530 -0.1964
  750loPI   C3A10645  17.247  17.630   7.482 -0.1977 -0.2590  0.0043
  750loPI   C4A10646  17.379  17.362   7.793 -0.0770  0.0654  0.2530
  750loPI   C5A10647  17.450  16.956   8.112  0.1987 -0.1202  0.2891
  750loPI   C6A10648  17.507  16.776   8.500 -0.1785  0.0313 -0.0333
  750loPI   C1B10649  16.381  17.953   6.464  0.0304 -0.1404  0.4026
  750loPI   C2B10650  16.109  17.881   6.839 -0.1413  0.0401 -0.2115
  750loPI   C3B10651  16.001  17.998   7.235  0.1191  0.0882 -0.3280
  750loPI   C4B10652  15.830  17.845   7.587  0.0023 -0.0339 -0.0770
  751loPI    C110653   8.319   6.315   5.497  0.0211 -0.1253  0.1810
  751loPI    C210654   8.281   6.332   5.099  0.1296  0.0026  0.1753
  751loPI    C310655   8.460   6.017   5.270  0.2357  0.0273  0.1106
  751loPI   PO410656   8.070   6.333   5.579 -0.2123  0.0776 -0.1328
  751loPI   GL110657   7.983   6.607   5.878 -0.0934  0.2815  0.2714
  751loPI   GL210658   8.327   6.540   5.973 -0.0025  0.0564  0.0128
  751loPI   C1A10659   7.922   6.241   6.224  0.1482 -0.1407  0.0680
  751loPI   C2A10660   7.938   6.238   6.701 -0.3551 -0.0111  0.3023
  751loPI   C3A10661   7.993   6.314   7.111 -0.1981  0.0236 -0.1264
  751loPI   C4A10662   8.076   6.436   7.439  0.0742  0.0581  0.0654
  751loPI   C5A10663   8.133   6.426   7.905  0.4000  0.2403  0.3387
  751loPI   C6A10664   8.018   6.056   8.252 -0.1839  0.0938  0.0436
  751loPI   C1B10665   8.199   6.611   6.432 -0.0524 -0.0055 -0.1616
  751loPI   C2B10666   8.279   6.663   6.872 -0.1915 -0.3902 -0.1900
  751loPI   C3B10667   8.365   6.754   7.250 -0.0184 -0.0464 -0.0177
  751loPI   C4B10668   8.364   6.819   7.568 -0.0544 -0.3685  0.0794
  752loPI    C110669  13.944   6.521   5.282 -0.2079  0.4170 -0.1537
  752loPI    C210670  14.180   6.566   4.962 -0.1633 -0.0215 -0.1885
  752loPI    C310671  13.859   6.327   4.943 -0.1648 -0.0454  0.0910
  752loPI   PO410672  14.062   6.626   5.451 -0.1526 -0.0037 -0.0530
  752loPI   GL110673  13.971   6.909   5.700 -0.1508  0.2880  0.4389
  752loPI   GL210674  13.807   6.783   6.018 -0.4311  0.1955  0.1401
  752loPI   C1A10675  14.208   7.053   5.996 -0.3106 -0.2203  0.4043
  752loPI   C2A10676  14.103   7.185   6.330 -0.0116  0.3594  0.1065
  752loPI   C3A10677  13.996   7.248   6.726  0.0339  0.1484 -0.0732
  752loPI   C4A10678  13.995   7.467   7.139 -0.0577  0.1939  0.1488
  752loPI   C5A10679  14.070   7.615   7.563 -0.0609 -0.1199  0.1218
  752loPI   C6A10680  13.971   7.369   7.982  0.2768  0.2048 -0.0561
  752loPI   C1B10681  13.754   6.843   6.445 -0.1330  0.0268  0.0913
  752loPI   C2B10682  13.743   6.904   7.030 -0.4318  0.2201 -0.1463
  752loPI   C3B10683  13.880   6.708   7.404 -0.1815  0.0959  0.2300
  752loPI   C4B10684  13.833   6.454   7.807  0.2548  0.1572  0.6295
  753loPI    C110685   7.629   6.574   5.408 -0.0725 -0.0635 -0.0115
  753loPI    C210686   7.922   6.750   5.200 -0.0524  0.0380  0.1020
  753loPI    C310687   7.783   6.393   5.086  0.0207  0.0519 -0.0323
  753loPI   PO410688   7.482   6.679   5.516 -0.1181 -0.0979 -0.3716
  753loPI   GL110689   7.448   6.684   5.907  0.0839  0.0413  0.1172
  753loPI   GL210690   7.358   6.362   6.177  0.0195 -0.0107  0.4612
  753loPI   C1A10691   7.707   6.768   6.302  0.1124 -0.0615 -0.1813
  753loPI   C2A10692   7.807   6.714   6.804  0.0165 -0.3038  0.2614
  753loPI   C3A10693   7.750   6.754   7.265  0.0409  0.1417  0.0017
  753loPI   C4A10694   7.752   6.770   7.640  0.1233 -0.0083  0.0787
  753loPI   C5A10695   7.826   6.830   8.066  0.0086  0.0862 -0.0423
  753loPI   C6A10696   7.828   6.511   8.509 -0.0862  0.1493  0.1966
  753loPI   C1B10697   7.398   6.281   6.593 -0.0233 -0.2602  0.0629
  753loPI   C2B10698   7.419   6.377   6.988 -0.1295 -0.1492 -0.1477
  753loPI   C3B10699   7.528   6.327   7.411  0.3974  0.2490  0.0773
  753loPI   C4B10700   7.713   6.144   7.849 -0.2389  0.3296  0.0930
  754loPI    C110701  15.641  14.381   5.347 -0.2164 -0.0162 -0.3326
  754loPI    C210702  15.642  14.704   5.112 -0.0501  0.0928 -0.1846
  754loPI    C310703  15.937  14.436   5.083 -0.2117 -0.0708 -0.3388
  754loPI   PO410704  15.592  14.448   5.655 -0.3170 -0.3074  0.2093
  754loPI   GL110705  15.620  14.562   6.104  0.3074  0.0973  0.2719
  754loPI   GL210706  15.943  14.677   5.967  0.0472  0.2933  0.0440
  754loPI   C1A10707  15.724  14.298   6.467 -0.0844 -0.1857 -0.0391
  754loPI   C2A10708  15.639  14.241   6.853 -0.0341  0.1640  0.0242
  754loPI   C3A10709  15.757  14.354   7.268  0.1300 -0.0964 -0.2879
  754loPI   C4A10710  15.646  14.277   7.757  0.0814  0.0697 -0.0484
  754loPI   C5A10711  15.597  14.595   8.003  0.1882 -0.0477  0.1009
  754loPI   C6A10712  15.392  15.101   8.091  0.0772  0.2924  0.0926
  754loPI   C1B10713  16.045  14.784   6.336  0.0734 -0.0671  0.1219
  754loPI   C2B10714  16.240  14.656   6.737 -0.1243  0.0376 -0.0172
  754loPI   C3B10715  16.178  14.740   7.222  0.2367 -0.0919  0.1970
  754loPI   C4B10716  16.036  14.634   7.562 -0.0163 -0.4261 -0.2193
  755loPI    C110717   1.222  11.412   5.796 -0.2076  0.0180 -0.2214
  755loPI    C210718   1.245  11.052   5.622 -0.1065  0.0474 -0.2688
  755loPI    C310719   1.465  11.356   5.483 -0.0807  0.0898 -0.1363
  755loPI   PO410720   0.988  11.362   5.959 -0.0152  0.0198 -0.1389
  755loPI   GL110721   0.916  11.547   6.215  0.2034  0.1606 -0.5472
  755loPI   GL210722   0.869  11.199   6.419  0.0591  0.2472  0.2474
  755loPI   C1A10723   0.612  11.604   6.527 -0.1112 -0.0235 -0.0237
  755loPI   C2A10724   0.443  11.677   6.961  0.0174 -0.2001  0.4229
  755loPI   C3A10725   0.327  11.805   7.349  0.0897 -0.1905  0.3898
  755loPI   C4A10726   0.400  11.882   7.733 -0.1977  0.1595  0.1295
  755loPI   C5A10727   0.288  11.968   8.195  0.1566 -0.2278  0.0625
  755loPI   C6A10728   0.275  11.571   8.487 -0.0780  0.0522  0.0183
  755loPI   C1B10729   0.798  11.302   6.845 -0.0816 -0.1677 -0.1815
  755loPI   C2B10730   0.863  11.547   7.248 -0.1373  0.0982  0.2406
  755loPI   C3B10731   0.834  11.658   7.689 -0.1971  0.3466  0.1671
  755loPI   C4B10732   0.833  11.810   8.079  0.3697 -0.0035  0.2069
  756loPI    C110733  15.965   5.193   5.480  0.0441  0.0256 -0.0950
  756loPI    C210734  15.725   5.163   5.162  0.1680 -0.0122 -0.1854
  756loPI    C310735  16.041   5.409   5.152 -0.1475  0.4199  0.1130
  756loPI   PO410736  15.762   5.150   5.670  0.2585  0.1997  0.2523
  756loPI   GL110737  15.849   5.062   6.090 -0.1411 -0.0175  0.1630
  756loPI   GL210738  16.098   5.084   6.231 -0.0233  0.0128  0.0450
  756loPI   C1A10739  15.719   4.945   6.502  0.1348 -0.3260  0.2860
  756loPI   C2A10740  15.833   4.968   6.893  0.0425 -0.1190  0.0585
  756loPI   C3A10741  15.673   5.136   7.264  0.0846  0.2354  0.2367
  756loPI   C4A10742  15.923   5.349   7.589 -0.0644 -0.0813  0.1547
  756loPI   C5A10743  16.168   5.576   7.923 -0.0623  0.3561  0.0123
  756loPI   C6A10744  16.490   5.509   8.174 -0.0350 -0.0474 -0.3683
  756loPI   C1B10745  16.105   5.322   6.546 -0.3818  0.0285  0.4405
  756loPI   C2B10746  16.134   5.383   7.040  0.4860  0.1327  0.0822
  756loPI   C3B10747  16.382   5.274   7.351 -0.0112  0.2325  0.0128
  756loPI   C4B10748  16.551   5.124   7.783  0.0944 -0.2271 -0.1692
  757loPI    C110749   0.317   8.561   5.910  0.0883  0.0062 -0.1274
  757loPI    C210750   0.290   8.537   5.512  0.1037 -0.0622 -0.1245
  757loPI    C310751   0.360   8.890   5.687 -0.1276  0.0077 -0.1691
  757loPI   PO410752   0.495   8.413   5.935  0.2351  0.0890 -0.1920
  757loPI   GL110753   0.617   8.496   6.324 -0.1522  0.2613 -0.1326
  757loPI   GL210754   0.912   8.515   6.360 -0.0141  0.0824 -0.0235
  757loPI   C1A10755   0.485   8.276   6.683 -0.0234  0.1911 -0.0312
  757loPI   C2A10756   0.431   8.430   7.086  0.2651 -0.3132 -0.1269
  757loPI   C3A10757   0.240   8.482   7.491  0.0333  0.2967  0.1548
  757loPI   C4A10758   0.199   8.694   7.956  0.4012  0.2265  0.4021
  757loPI   C5A10759   0.234   8.822   8.313  0.0387  0.1159  0.0907
  757loPI   C6A10760   0.075   8.950   8.707  0.2323  0.0195  0.1260
  757loPI   C1B10761   0.934   8.567   6.854 -0.1401 -0.0116  0.1936
  757loPI   C2B10762   1.078   8.424   7.308 -0.1682 -0.2013  0.0271
  757loPI   C3B10763   0.961   8.275   7.773  0.0477 -0.1661 -0.1402
  757loPI   C4B10764   1.021   8.214   8.078 -0.0082 -0.0404 -0.0938
  758loPI    C110765   5.271   8.835   5.739  0.1235 -0.0138 -0.0251
  758loPI    C210766   5.404   9.023   5.412  0.2030  0.2037  0.1301
  758loPI    C310767   5.342   8.628   5.404 -0.0046  0.2389 -0.2123
  758loPI   PO410768   4.992   8.970   5.849 -0.0797 -0.1500 -0.1492
  758loPI   GL110769   4.715   8.904   5.998  0.1487  0.0248 -0.0175
  758loPI   GL210770   4.833   9.142   6.312 -0.0953  0.0935 -0.0594
  758loPI   C1A10771   4.698   8.569   6.313  0.0177 -0.2166  0.2650
  758loPI   C2A10772   4.633   8.503   6.756 -0.0858 -0.0956 -0.1860
  758loPI   C3A10773   4.615   8.523   7.123  0.0453  0.1080 -0.1213
  758loPI   C4A10774   4.608   8.396   7.495 -0.2146 -0.0974  0.2773
  758loPI   C5A10775   4.645   8.394   7.900  0.0589 -0.0124  0.0967
  758loPI   C6A10776   4.642   8.448   8.292  0.2088 -0.4161 -0.0482
  758loPI   C1B10777   4.831   8.997   6.753  0.0190 -0.0631  0.0526
  758loPI   C2B10778   4.730   9.024   7.194 -0.1475 -0.0217  0.0270
  758loPI   C3B10779   4.782   9.037   7.648 -0.0401 -0.0499 -0.1543
  758loPI   C4B10780   4.820   8.918   8.137  0.3362  0.0992 -0.2398
  759loPI    C110781   6.852   9.698   5.721  0.0864  0.1903  0.0150
  759loPI    C210782   7.038  10.048   5.671 -0.0436  0.2740  0.1127
  759loPI    C310783   6.980   9.806   5.358  0.1096  0.3073  0.0578
  759loPI   PO410784   6.902   9.619   5.956 -0.1687 -0.0240  0.0193
  759loPI   GL110785   6.741   9.839   6.229 -0.2484 -0.2510 -0.1807
  759loPI   GL210786   6.973  10.151   6.278  0.0101  0.3780  0.1045
  759loPI   C1A10787   6.670   9.876   6.636  0.1088  0.1561 -0.1339
  759loPI   C2A10788   6.555   9.961   7.040 -0.1268 -0.2575 -0.3375
  759loPI   C3A10789   6.421  10.107   7.467  0.2488 -0.0378  0.1131
  759loPI   C4A10790   6.266  10.200   7.868  0.0840  0.1514  0.0016
  759loPI   C5A10791   5.928  10.206   8.147  0.0420  0.2169 -0.3001
  759loPI   C6A10792   5.608  10.348   8.366 -0.0296 -0.1265  0.3817
  759loPI   C1B10793   7.029  10.195   6.722 -0.1312  0.0568  0.0737
  759loPI   C2B10794   7.102  10.205   7.164  0.1505 -0.1615  0.1518
  759loPI   C3B10795   6.958  10.166   7.612 -0.1378  0.2201 -0.0487
  759loPI   C4B10796   6.795  10.303   8.096 -0.1595  0.1066 -0.1008
  760loPI    C110797   5.909   6.262   5.590 -0.1779  0.1434 -0.0805
  760loPI    C210798   5.676   6.568   5.480 -0.3118  0.0339 -0.1024
  760loPI    C310799   5.609   6.202   5.332  0.0758  0.0628 -0.3631
  760loPI   PO410800   5.851   6.205   5.822 -0.2892 -0.0282  0.4286
  760loPI   GL110801   5.652   5.810   6.014  0.0634  0.3929  0.2340
  760loPI   GL210802   5.870   5.947   6.229 -0.2340  0.0868  0.3467
  760loPI   C1A10803   5.455   5.509   6.299 -0.0493 -0.2318 -0.3176
  760loPI   C2A10804   5.416   5.342   6.733 -0.2729  0.4843 -0.0100
  760loPI   C3A10805   5.674   5.380   7.187 -0.0013 -0.0099 -0.1843
  760loPI   C4A10806   5.752   5.266   7.589 -0.2167 -0.0122 -0.3313
  760loPI   C5A10807   5.616   5.378   8.029  0.0921 -0.1085  0.0366
  760loPI   C6A10808   5.795   5.463   8.513 -0.0195  0.0396 -0.0573
  760loPI   C1B10809   5.967   6.087   6.609  0.0878 -0.1511 -0.1571
  760loPI   C2B10810   6.102   6.087   6.990 -0.0759  0.3001  0.1504
  760loPI   C3B10811   6.535   5.942   7.202  0.1162 -0.2553  0.1379
  760loPI   C4B10812   6.557   5.706   7.455 -0.0746 -0.0793  0.0201
  761loPI    C110813  14.765  14.375   5.596 -0.0504 -0.2997 -0.0423
  761loPI    C210814  15.100  14.323   5.808 -0.0477 -0.0089  0.0292
  761loPI    C310815  15.102  14.263   5.412  0.1495  0.2154 -0.0063
  761loPI   PO410816  14.539  14.109   5.707  0.0095 -0.0578 -0.1380
  761loPI   GL110817  14.337  14.210   6.103 -0.4854 -0.1909 -0.0021
  761loPI   GL210818  14.287  13.904   6.222 -0.0553 -0.1046 -0.0097
  761loPI   C1A10819  14.689  14.406   6.396 -0.2057  0.1952 -0.4358
  761loPI   C2A10820  14.792  14.655   6.814 -0.2738 -0.2391  0.2059
  761loPI   C3A10821  14.631  14.993   7.214  0.2383 -0.1433 -0.0430
  761loPI   C4A10822  14.276  15.051   7.461 -0.1617  0.1225  0.3897
  761loPI   C5A10823  14.119  15.167   7.886 -0.2410 -0.2574  0.1379
  761loPI   C6A10824  14.496  15.312   8.199 -0.2590  0.2857  0.0659
  761loPI   C1B10825  14.418  13.923   6.641 -0.0444 -0.1243  0.2807
  761loPI   C2B10826  14.611  14.175   6.998  0.1585  0.0115 -0.1522
  761loPI   C3B10827  14.709  14.259   7.409  0.1712  0.1893 -0.2975
  761loPI   C4B10828  14.679  14.365   7.859  0.0845  0.0296 -0.0641
  762loPI    C110829   9.264   0.084   5.588  0.3735  0.1685  0.3413
  762loPI    C210830   9.363   0.176   5.212 -0.0253 -0.0176  0.1853
  762loPI    C310831   9.640   0.030   5.461  0.2071 -0.0429 -0.0820
  762loPI   PO410832   9.089   0.373   5.603 -0.0511 -0.2070  0.1130
  762loPI   GL110833   8.851   0.393   5.891 -0.0456 -0.1135  0.0964
  762loPI   GL210834   8.998   0.144   6.044 -0.1700 -0.0454 -0.3012
  762loPI   C1A10835   9.004   0.623   6.262 -0.0909  0.0857  0.0061
  762loPI   C2A10836   8.921   0.842   6.632 -0.2096 -0.1170  0.0544
  762loPI   C3A10837   8.897   1.071   6.964  0.0045 -0.0608  0.5131
  762loPI   C4A10838   8.928   1.035   7.389 -0.2095 -0.0114  0.2809
  762loPI   C5A10839   8.829   1.091   7.752 -0.0885 -0.0371 -0.4490
  762loPI   C6A10840   8.735   1.062   8.165  0.0524  0.0965  0.0706
  762loPI   C1B10841   8.877  -0.223   6.302  0.1991  0.1044  0.1720
  762loPI   C2B10842   8.835  -0.205   6.745  0.3043 -0.0522 -0.1062
  762loPI   C3B10843   8.774   0.060   7.181 -0.2906  0.0841  0.1791
  762loPI   C4B10844   8.777   0.074   7.679 -0.2195  0.1060 -0.0113
  763loPI    C110845   5.246   1.459   5.432  0.2261 -0.0161 -0.0196
  763loPI    C210846   5.316   1.138   5.204 -0.0130 -0.0668 -0.0240
  763loPI    C310847   4.975   1.166   5.411  0.0514  0.1381  0.0567
  763loPI   PO410848   5.443   1.430   5.639  0.0022 -0.1744 -0.0315
  763loPI   GL110849   5.542   1.546   6.077  0.0997 -0.1041 -0.0864
  763loPI   GL210850   5.379   1.286   6.154 -0.2141 -0.0645  0.2929
  763loPI   C1A10851   5.572   1.586   6.509 -0.1484  0.1993  0.1244
  763loPI   C2A10852   5.432   1.470   6.984 -0.0869 -0.2486  0.0415
  763loPI   C3A10853   5.572   1.414   7.426 -0.2937  0.1225  0.2004
  763loPI   C4A10854   5.847   1.529   7.714  0.3385 -0.0292 -0.0133
  763loPI   C5A10855   5.781   1.731   8.087 -0.3266  0.0636 -0.3444
  763loPI   C6A10856   5.436   1.911   8.190  0.0433  0.3036  0.0334
  763loPI   C1B10857   5.747   1.133   6.457  0.0770 -0.0455 -0.1248
  763loPI   C2B10858   5.834   1.073   6.912 -0.2395  0.1052 -0.0177
  763loPI   C3B10859   5.858   1.044   7.293  0.2456 -0.1189  0.0383
  763loPI   C4B10860   5.668   0.925   7.708  0.1408  0.0789  0.1160
  764loPI    C110861  12.451  15.126   5.395 -0.2005  0.0155 -0.2886
  764loPI    C210862  12.614  15.426   5.188  0.1849 -0.0336 -0.0658
  764loPI    C310863  12.693  15.047   5.086  0.1436 -0.0581 -0.0068
  764loPI   PO410864  12.520  15.191   5.695  0.0002  0.1649  0.0000
  764loPI   GL110865  12.476  15.331   6.115 -0.1727 -0.2027  0.3213
  764loPI   GL210866  12.159  15.292   6.154 -0.2368  0.1227  0.0936
  764loPI   C1A10867  12.385  15.393   6.614 -0.2010 -0.1143  0.1572
  764loPI   C2A10868  12.483  15.163   7.039  0.1401 -0.0608  0.0021
  764loPI   C3A10869  12.501  15.231   7.401 -0.4369  0.0796  0.1221
  764loPI   C4A10870  12.600  15.358   7.811  0.1620  0.0811  0.0361
  764loPI   C5A10871  12.442  15.303   8.283 -0.0848 -0.0121  0.2290
  764loPI   C6A10872  12.137  15.038   8.431  0.1734 -0.0232  0.2676
  764loPI   C1B10873  12.040  15.052   6.485  0.0199  0.0140 -0.2160
  764loPI   C2B10874  12.017  15.064   6.907  0.1253  0.1241  0.1276
  764loPI   C3B10875  11.967  15.161   7.309  0.1596  0.2943  0.1969
  764loPI   C4B10876  11.747  15.286   7.691  0.1298  0.1326  0.1425
  765loPI    C110877   4.651   1.867   5.894  0.1683  0.2574 -0.0005
  765loPI    C210878   4.777   1.697   5.555 -0.2673 -0.1614  0.0375
  765loPI    C310879   4.793   2.095   5.597  0.2070 -0.1373 -0.2918
  765loPI   PO410880   4.697   1.668   6.055  0.0718  0.2122  0.1581
  765loPI   GL110881   4.998   1.565   6.311 -0.1315  0.1323  0.1705
  765loPI   GL210882   5.029   1.792   6.389 -0.3481  0.0138 -0.0041
  765loPI   C1A10883   4.896   1.402   6.797  0.0864 -0.1986 -0.0728
  765loPI   C2A10884   4.977   1.346   7.156  0.0302 -0.1853  0.0965
  765loPI   C3A10885   4.863   1.420   7.531 -0.1171  0.1736  0.1910
  765loPI   C4A10886   4.684   1.163   7.944 -0.1593  0.0393  0.0455
  765loPI   C5A10887   4.945   0.978   8.344 -0.3933 -0.2104 -0.0115
  765loPI   C6A10888   5.204   0.532   8.312  0.1597 -0.2100 -0.1468
  765loPI   C1B10889   5.078   1.846   6.870 -0.3665  0.0966  0.0501
  765loPI   C2B10890   5.075   1.803   7.302  0.0156 -0.1413 -0.0410
  765loPI   C3B10891   5.330   1.774   7.676  0.2083 -0.0535 -0.0772
  765loPI   C4B10892   5.478   1.391   7.942  0.0842 -0.2580 -0.0563
  766loPI    C110893   4.894  13.751   5.902 -0.1985  0.0934  0.2086
  766loPI    C210894   5.113  13.421   5.959 -0.1774  0.1198  0.2821
  766loPI    C310895   4.720  13.391   5.890 -0.1014  0.0544 -0.1527
  766loPI   PO410896   5.030  13.948   6.095  0.3187  0.2414  0.1207
  766loPI   GL110897   4.964  14.077   6.482 -0.1662  0.1736 -0.0805
  766loPI   GL210898   5.240  14.246   6.599  0.0979  0.0522 -0.2292
  766loPI   C1A10899   4.703  13.920   6.857 -0.2149  0.1673  0.1276
  766loPI   C2A10900   4.684  13.953   7.322 -0.1666 -0.3760 -0.1728
  766loPI   C3A10901   4.489  13.908   7.674  0.2793  0.2035  0.0310
  766loPI   C4A10902   4.456  13.803   8.101  0.1816  0.0422  0.0583
  766loPI   C5A10903   4.081  13.631   8.459  0.0143 -0.1682 -0.1929
  766loPI   C6A10904   3.912  13.268   8.522 -0.0152 -0.0596 -0.2847
  766loPI   C1B10905   5.086  14.192   7.135 -0.3924 -0.3358  0.0712
  766loPI   C2B10906   5.031  14.239   7.569  0.0318  0.2749 -0.0436
  766loPI   C3B10907   4.887  14.111   7.945  0.1202 -0.0495  0.1258
  766loPI   C4B10908   4.709  14.133   8.348  0.0694  0.3236  0.0744
  767loPI    C110909   6.352   6.539   5.509 -0.1084  0.0454  0.0273
  767loPI    C210910   6.619   6.361   5.271 -0.0670 -0.0291  0.1287
  767loPI    C310911   6.259   6.460   5.128 -0.0480 -0.0874  0.0396
  767loPI   PO410912   6.373   6.381   5.727 -0.1230 -0.2277 -0.1113
  767loPI   GL110913   6.390   6.384   6.137  0.0882 -0.0448  0.0497
  767loPI   GL210914   6.169   6.387   6.165  0.0251  0.1090 -0.2154
  767loPI   C1A10915   6.439   6.311   6.671 -0.1663  0.3586  0.0384
  767loPI   C2A10916   6.370   6.474   7.070  0.0931  0.1679 -0.0585
  767loPI   C3A10917   6.380   6.408   7.438 -0.0282  0.2100  0.1356
  767loPI   C4A10918   6.455   6.072   7.735  0.0276  0.1392  0.0891
  767loPI   C5A10919   6.782   5.829   8.058 -0.1943 -0.4556  0.1749
  767loPI   C6A10920   7.177   5.581   8.251  0.2816  0.0426  0.2124
  767loPI   C1B10921   5.876   6.519   6.397  0.4050  0.1945 -0.2375
  767loPI   C2B10922   5.702   6.458   6.904  0.1137 -0.0213 -0.2317
  767loPI   C3B10923   5.868   6.445   7.278  0.2361 -0.1924 -0.1650
  767loPI   C4B10924   5.921   6.282   7.661 -0.1048 -0.0472 -0.1956
  768loPI    C110925   4.747   6.695   5.468 -0.3137  0.1673  0.0054
  768loPI    C210926   4.543   6.353   5.502  0.1322 -0.1052  0.0351
  768loPI    C310927   4.595   6.520   5.142  0.1573 -0.2236 -0.0166
  768loPI   PO410928   4.648   6.802   5.712  0.2264 -0.2236  0.1133
  768loPI   GL110929   4.404   7.035   6.049 -0.1670  0.0830 -0.1238
  768loPI   GL210930   4.118   6.915   6.184 -0.2245  0.0248  0.0072
  768loPI   C1A10931   4.799   7.036   6.320 -0.1862 -0.0732 -0.1345
  768loPI   C2A10932   5.031   7.071   6.724  0.2504 -0.1194  0.2040
  768loPI   C3A10933   4.988   7.092   7.195 -0.1577 -0.0561 -0.0470
  768loPI   C4A10934   5.054   7.083   7.614 -0.0803  0.0770 -0.1695
  768loPI   C5A10935   4.947   7.150   8.047  0.0208 -0.2775 -0.1256
  768loPI   C6A10936   5.126   7.230   8.436  0.1533 -0.1654 -0.3327
  768loPI   C1B10937   4.327   6.957   6.573  0.0615  0.3528 -0.1775
  768loPI   C2B10938   4.523   6.983   7.012  0.0989  0.1603 -0.4075
  768loPI   C3B10939   4.502   7.064   7.405 -0.1629  0.1895 -0.2220
  768loPI   C4B10940   4.559   7.291   7.811  0.0563 -0.2648 -0.0417
  769loPI    C110941   4.192   0.833   5.790  0.0316 -0.0619  0.1158
  769loPI    C210942   4.053   1.156   5.599  0.2839 -0.1404 -0.2085
  769loPI    C310943   3.819   0.835   5.644  0.1509 -0.0424 -0.1955
  769loPI   PO410944   4.321   0.797   6.013  0.1031 -0.1577  0.0681
  769loPI   GL110945   4.196   0.901   6.424 -0.1431 -0.1448 -0.3893
  769loPI   GL210946   4.157   0.589   6.560 -0.3922 -0.1686  0.2722
  769loPI   C1A10947   3.805   0.824   6.746  0.7630  0.1128 -0.0255
  769loPI   C2A10948   3.730   0.815   7.199  0.1145  0.1397 -0.0544
  769loPI   C3A10949   3.641   1.065   7.575 -0.0584 -0.0210  0.0633
  769loPI   C4A10950   3.786   1.280   7.997  0.2127 -0.0917 -0.0876
  769loPI   C5A10951   3.884   1.629   8.317 -0.1612 -0.0554  0.1364
  769loPI   C6A10952   3.650   1.896   8.578  0.2500  0.1049 -0.1793
  769loPI   C1B10953   4.228   0.773   6.959  0.1307  0.1539 -0.1121
  769loPI   C2B10954   4.242   0.802   7.313 -0.2083  0.2195  0.0711
  769loPI   C3B10955   4.195   0.552   7.806  0.2475  0.2301  0.0594
  769loPI   C4B10956   4.231   0.428   8.193 -0.1837 -0.0737  0.0013
  770loPI    C110957  15.425   6.724   5.495  0.1456  0.0693 -0.0751
  770loPI    C210958  15.325   6.993   5.217 -0.0601 -0.0139 -0.0831
  770loPI    C310959  15.302   6.603   5.134 -0.0094 -0.0374  0.0127
  770loPI   PO410960  15.324   6.805   5.664 -0.0359  0.1645 -0.0539
  770loPI   GL110961  15.323   6.952   6.005  0.2366  0.0106  0.0503
  770loPI   GL210962  15.500   6.713   6.126 -0.2553  0.1348  0.1205
  770loPI   C1A10963  15.063   6.809   6.397  0.0922  0.1356 -0.0393
  770loPI   C2A10964  15.023   6.912   6.889 -0.1005 -0.3229 -0.2251
  770loPI   C3A10965  14.788   6.912   7.210 -0.2950  0.1273 -0.2378
  770loPI   C4A10966  14.709   7.000   7.593 -0.2388  0.0725 -0.3645
  770loPI   C5A10967  14.481   7.298   7.883 -0.0221 -0.0291 -0.1567
  770loPI   C6A10968  14.397   7.747   8.079  0.2596 -0.2354  0.0982
  770loPI   C1B10969  15.626   6.521   6.563  0.0525 -0.0505 -0.0777
  770loPI   C2B10970  15.820   6.177   6.655  0.0436  0.1620 -0.0940
  770loPI   C3B10971  15.979   5.966   6.946  0.0775  0.0051  0.0008
  770loPI   C4B10972  16.097   5.759   7.342  0.0935  0.0410  0.0046
  771loPI    C110973  16.680  17.542   5.021  0.0830 -0.0311  0.0562
  771loPI    C210974  17.049  17.673   4.937  0.0469  0.0169 -0.0279
  771loPI    C310975  16.751  17.730   4.675  0.0084 -0.1417 -0.0198
  771loPI   PO410976  16.548  17.658   5.295 -0.0273  0.0689 -0.0946
  771loPI   GL110977  16.360  17.685   5.812  0.0814 -0.1205 -0.0539
  771loPI   GL210978  16.371  17.382   6.012  0.1312  0.0587 -0.1459
  771loPI   C1A10979  15.997  17.881   6.214 -0.2165 -0.3371  0.1732
  771loPI   C2A10980  15.845  18.079   6.475 -0.2323 -0.0004 -0.0706
  771loPI   C3A10981  15.717  18.204   6.893 -0.1849 -0.0285  0.0644
  771loPI   C4A10982  15.558  18.180   7.226  0.0564 -0.0236 -0.0021
  771loPI   C5A10983  15.524  18.308   7.637 -0.3362 -0.1093 -0.2659
  771loPI   C6A10984  15.386  18.522   7.969  0.1002  0.0189  0.0396
  771loPI   C1B10985  16.130  17.481   6.478 -0.2347  0.1443  0.0665
  771loPI   C2B10986  16.072  17.402   6.844 -0.2274 -0.0933  0.1094
  771loPI   C3B10987  16.115  17.516   7.279  0.1700 -0.0313  0.1443
  771loPI   C4B10988  16.251  17.599   7.666  0.0759 -0.0039 -0.0214
  772loPI    C110989  15.666   2.023   5.673 -0.1373 -0.0434  0.0903
  772loPI    C210990  15.833   2.376   5.585 -0.2262 -0.0074  0.0646
  772loPI    C310991  15.948   2.176   5.912 -0.4166  0.2076  0.2676
  772loPI   PO410992  15.400   2.110   5.694  0.1008 -0.0503  0.1340
  772loPI   GL110993  15.037   1.890   5.915  0.1866  0.0224  0.0306
  772loPI   GL210994  14.927   1.585   5.788 -0.0792  0.2324 -0.1543
  772loPI   C1A10995  14.940   2.024   6.366  0.3093  0.0420  0.0628
  772loPI   C2A10996  14.846   2.038   6.709 -0.0155  0.0197  0.1633
  772loPI   C3A10997  14.557   1.884   7.017  0.0902  0.0322  0.0031
  772loPI   C4A10998  14.379   1.906   7.432  0.0106  0.1556  0.0589
  772loPI   C5A10999  14.583   1.699   7.722 -0.2410  0.3492  0.0308
  772loPI   C6A11000  14.932   1.490   7.891 -0.0100  0.1459 -0.2151
  772loPI   C1B11001  14.609   1.758   6.111 -0.1621  0.0694 -0.0518
  772loPI   C2B11002  14.387   1.885   6.516  0.4888  0.1078  0.0377
  772loPI   C3B11003  13.938   1.831   6.752  0.2327  0.0638  0.0707
  772loPI   C4B11004  13.912   1.866   7.206 -0.1264  0.0248 -0.0536
  773loPI    C111005   8.853  15.603   5.867 -0.1910 -0.0393  0.2886
  773loPI    C211006   9.103  15.775   6.127  0.0137 -0.0352  0.0924
  773loPI    C311007   8.974  15.980   5.809 -0.2477 -0.0349  0.1963
  773loPI   PO411008   8.617  15.516   6.024 -0.1737 -0.0801  0.3674
  773loPI   GL111009   8.647  15.327   6.421  0.1504 -0.0475  0.0232
  773loPI   GL211010   8.460  15.405   6.731  0.1313  0.0928  0.0871
  773loPI   C1A11011   8.882  15.169   6.770  0.0494  0.0270  0.1831
  773loPI   C2A11012   9.002  15.134   7.219  0.1325 -0.2216  0.0396
  773loPI   C3A11013   8.959  15.242   7.599 -0.1311  0.2783 -0.0221
  773loPI   C4A11014   8.660  15.082   7.928 -0.0094 -0.3584 -0.0965
  773loPI   C5A11015   8.323  14.897   8.002  0.0116  0.0979  0.1489
  773loPI   C6A11016   7.972  14.645   7.772  0.1419 -0.2806 -0.3120
  773loPI   C1B11017   8.503  15.238   7.088 -0.0633  0.0153  0.0112
  773loPI   C2B11018   8.590  14.930   7.362  0.2441 -0.1048 -0.1183
  773loPI   C3B11019   8.768  14.721   7.636 -0.0161 -0.0264  0.0618
  773loPI   C4B11020   8.657  14.450   8.007  0.0519 -0.2123  0.1016
  774loPI    C111021   1.905   0.969   5.750  0.0283 -0.2267  0.0283
  774loPI    C211022   1.909   1.365   5.803  0.1192 -0.2320  0.0628
  774loPI    C311023   1.832   1.212   5.441  0.1238 -0.1820  0.0406
  774loPI   PO411024   1.684   0.903   5.910 -0.1532 -0.1762  0.1981
  774loPI   GL111025   1.682   1.256   6.295  0.2614 -0.0517 -0.2211
  774loPI   GL211026   1.933   1.518   6.302 -0.0549 -0.2305  0.1772
  774loPI   C1A11027   1.501   1.210   6.740 -0.0994  0.0224 -0.3001
  774loPI   C2A11028   1.289   1.130   7.037  0.1181 -0.0477 -0.0702
  774loPI   C3A11029   1.177   1.131   7.430 -0.1029 -0.3080 -0.1941
  774loPI   C4A11030   1.015   0.935   7.679  0.0265  0.0550  0.0826
  774loPI   C5A11031   0.862   0.856   8.043  0.0272  0.0336  0.1443
  774loPI   C6A11032   0.540   0.708   8.200 -0.0797 -0.0444  0.0397
  774loPI   C1B11033   1.967   1.545   6.710  0.2322 -0.0968 -0.0667
  774loPI   C2B11034   1.832   1.378   7.048  0.0811  0.1848  0.2281
  774loPI   C3B11035   1.582   1.351   7.358 -0.1997  0.0425 -0.0338
  774loPI   C4B11036   1.579   1.258   7.795 -0.0720 -0.2229  0.1538
  775loPI    C111037  12.323   3.828   5.349 -0.0246 -0.1891  0.1506
  775loPI    C211038  12.476   3.939   4.996 -0.2536 -0.1482  0.0623
  775loPI    C311039  12.719   3.871   5.307 -0.0622 -0.0284 -0.0588
  775loPI   PO411040  12.162   4.016   5.438  0.1523  0.0240  0.2361
  775loPI   GL111041  11.795   4.109   5.578 -0.0048 -0.2922 -0.1023
  775loPI   GL211042  11.927   3.810   5.814 -0.3448  0.0029  0.6776
  775loPI   C1A11043  11.634   4.289   5.933  0.3311  0.1222  0.2978
  775loPI   C2A11044  11.706   4.342   6.453  0.0946 -0.3024  0.2965
  775loPI   C3A11045  11.815   4.407   6.833  0.2174 -0.1005  0.0945
  775loPI   C4A11046  11.802   4.465   7.225 -0.1420  0.1003 -0.0457
  775loPI   C5A11047  12.013   4.427   7.653  0.1358  0.0002  0.1199
  775loPI   C6A11048  12.176   4.132   7.806 -0.0947 -0.0760  0.3066
  775loPI   C1B11049  11.855   3.862   6.214  0.0262  0.1323  0.2269
  775loPI   C2B11050  11.773   3.885   6.664  0.1151  0.1351  0.0743
  775loPI   C3B11051  11.742   3.951   7.094 -0.0808 -0.1429 -0.2996
  775loPI   C4B11052  11.726   3.989   7.565  0.2130 -0.0879 -0.1180
  776loPI    C111053  12.276   9.645   5.096 -0.2962  0.1082 -0.0995
  776loPI    C211054  12.447   9.448   4.793 -0.0798  0.1377  0.0014
  776loPI    C311055  12.048   9.477   4.813 -0.1107 -0.1895 -0.0764
  776loPI   PO411056  12.338   9.501   5.294 -0.0650  0.2807  0.2945
  776loPI   GL111057  12.510   9.699   5.661  0.1361 -0.1644  0.2140
  776loPI   GL211058  12.681   9.402   5.744  0.1942 -0.0064  0.1366
  776loPI   C1A11059  12.333   9.916   5.986  0.2902 -0.2386  0.0475
  776loPI   C2A11060  12.233   9.854   6.434 -0.0364 -0.1775 -0.3083
  776loPI   C3A11061  12.240   9.951   6.840  0.1703 -0.0149  0.0146
  776loPI   C4A11062  12.187   9.947   7.301 -0.1237  0.0150  0.1675
  776loPI   C5A11063  12.416   9.934   7.707  0.1099 -0.0132 -0.1257
  776loPI   C6A11064  12.421   9.665   8.183  0.2877  0.1261 -0.0285
  776loPI   C1B11065  12.537   9.424   6.169 -0.0970 -0.0261  0.0069
  776loPI   C2B11066  12.517   9.505   6.662  0.2599  0.1949 -0.0005
  776loPI   C3B11067  12.401   9.519   6.965 -0.1399 -0.3656  0.1792
  776loPI   C4B11068  12.464   9.528   7.431 -0.1216 -0.0203 -0.0927
  777loPI    C111069   0.906  16.339   5.820  0.0826  0.0187  0.0141
  777loPI    C211070   0.646  16.643   5.829  0.0098 -0.0470  0.1802
  777loPI    C311071   0.759  16.486   5.479  0.0086  0.1370  0.0961
  777loPI   PO411072   0.792  16.118   5.952 -0.2583 -0.1990  0.1839
  777loPI   GL111073   0.862  15.820   6.225  0.1447  0.0702 -0.0724
  777loPI   GL211074   0.726  15.532   6.248  0.0979 -0.1535 -0.1142
  777loPI   C1A11075   1.060  16.010   6.564  0.1223 -0.1440  0.2345
  777loPI   C2A11076   1.093  16.016   6.985 -0.0360 -0.0652  0.0249
  777loPI   C3A11077   0.908  15.888   7.347 -0.0299 -0.3280  0.1780
  777loPI   C4A11078   0.794  15.903   7.685 -0.3913 -0.0121 -0.0873
  777loPI   C5A11079   0.492  15.970   7.864  0.2842  0.0564  0.0286
  777loPI   C6A11080   0.295  15.841   8.256  0.0539 -0.2536  0.3176
  777loPI   C1B11081   0.744  15.448   6.709  0.1087  0.3758  0.0293
  777loPI   C2B11082   0.772  15.412   7.157 -0.0864 -0.1682 -0.2153
  777loPI   C3B11083   0.912  15.214   7.505  0.2209  0.1250  0.1652
  777loPI   C4B11084   0.796  15.425   7.939  0.0505 -0.0688  0.0496
  778loPI    C111085   7.823  17.230   5.369 -0.0180 -0.0436  0.0291
  778loPI    C211086   7.572  16.919   5.381 -0.1231  0.0299 -0.2000
  778loPI    C311087   7.762  17.009   5.041  0.1125  0.0565 -0.0636
  778loPI   PO411088   7.780  17.383   5.588  0.1116  0.0524 -0.1084
  778loPI   GL111089   7.830  17.411   5.937  0.0060 -0.0557 -0.1855
  778loPI   GL211090   7.627  17.232   6.063  0.1083 -0.1568  0.2697
  778loPI   C1A11091   8.061  17.393   6.326  0.2191  0.1738  0.3745
  778loPI   C2A11092   7.968  17.339   6.725  0.1147 -0.2010 -0.1473
  778loPI   C3A11093   7.538  17.429   7.014 -0.2231 -0.0433 -0.0558
  778loPI   C4A11094   7.318  17.785   7.245  0.1651 -0.2603 -0.0337
  778loPI   C5A11095   7.320  18.176   7.416 -0.2255 -0.1750 -0.5336
  778loPI   C6A11096   7.507  18.542   7.105 -0.0208 -0.0896  0.0879
  778loPI   C1B11097   7.601  17.526   6.390  0.2269 -0.2757  0.0804
  778loPI   C2B11098   7.287  17.771   6.610 -0.1236  0.2776 -0.1824
  778loPI   C3B11099   6.865  17.877   6.744 -0.0869 -0.1510 -0.1186
  778loPI   C4B11100   6.520  18.057   6.929  0.1407  0.0861  0.2416
  779loPI    C111101  15.548   8.618   5.232 -0.1102 -0.0065  0.1251
  779loPI    C211102  15.236   8.480   5.022 -0.0500  0.0928 -0.0312
  779loPI    C311103  15.577   8.272   5.032 -0.0913  0.0291  0.0659
  779loPI   PO411104  15.494   8.689   5.516  0.1286 -0.0018  0.1593
  779loPI   GL111105  15.304   8.659   5.835 -0.2388 -0.1054  0.0115
  779loPI   GL211106  15.464   8.991   6.028 -0.0954  0.0653 -0.0103
  779loPI   C1A11107  15.405   8.395   6.129 -0.4514  0.0802  0.1863
  779loPI   C2A11108  15.474   8.089   6.443 -0.0303 -0.0790 -0.2019
  779loPI   C3A11109  15.401   7.858   6.802 -0.0609  0.0218 -0.0362
  779loPI   C4A11110  15.362   7.701   7.170  0.2033 -0.2192 -0.1872
  779loPI   C5A11111  15.375   7.942   7.485  0.2359  0.0971 -0.1749
  779loPI   C6A11112  15.277   7.901   7.987  0.1911 -0.0473  0.1785
  779loPI   C1B11113  15.519   8.795   6.455 -0.0108  0.0104  0.1058
  779loPI   C2B11114  15.663   8.737   6.956 -0.3945 -0.0849  0.0618
  779loPI   C3B11115  15.888   8.913   7.291  0.0964  0.2103 -0.2083
  779loPI   C4B11116  15.729   9.156   7.480  0.2527  0.1811 -0.0691
  780loPI    C111117   7.713   5.144   5.095  0.0336 -0.0278 -0.0922
  780loPI    C211118   8.052   5.122   4.884 -0.0743 -0.2788 -0.2432
  780loPI    C311119   7.819   5.445   4.853  0.2071 -0.0509 -0.0467
  780loPI   PO411120   7.804   5.113   5.378 -0.1166  0.1095  0.2648
  780loPI   GL111121   7.865   5.364   5.730 -0.2064  0.3482 -0.1301
  780loPI   GL211122   7.950   5.693   5.818 -0.1089  0.2955  0.0046
  780loPI   C1A11123   8.053   5.313   6.193  0.2346  0.1376  0.1981
  780loPI   C2A11124   7.842   5.405   6.652  0.0886  0.2806 -0.0203
  780loPI   C3A11125   7.808   5.433   7.066 -0.2028  0.0390  0.1901
  780loPI   C4A11126   7.988   5.528   7.477  0.1491  0.0987 -0.1411
  780loPI   C5A11127   7.982   5.611   7.939  0.1959  0.0787 -0.0248
  780loPI   C6A11128   7.712   5.552   8.356 -0.0685  0.2304 -0.2608
  780loPI   C1B11129   8.103   5.793   6.289  0.3388 -0.0191 -0.0402
  780loPI   C2B11130   8.220   5.830   6.847 -0.0174  0.1569  0.0457
  780loPI   C3B11131   8.197   5.907   7.314 -0.4354  0.0690  0.0048
  780loPI   C4B11132   8.166   6.002   7.682  0.1066  0.3913 -0.0411
  781loPI    C111133   2.975  11.555   5.657  0.0153  0.0364  0.1906
  781loPI    C211134   2.719  11.412   5.386  0.2261  0.0057  0.0041
  781loPI    C311135   3.109  11.432   5.300  0.2925  0.0168  0.2987
  781loPI   PO411136   2.970  11.428   5.872 -0.1316  0.0468 -0.2744
  781loPI   GL111137   2.717  11.460   6.304  0.1008 -0.1692  0.2525
  781loPI   GL211138   2.979  11.453   6.457  0.2680  0.1322  0.0472
  781loPI   C1A11139   2.614  11.345   6.776  0.0805  0.0501  0.0761
  781loPI   C2A11140   2.607  11.232   7.070  0.0165  0.1890  0.1145
  781loPI   C3A11141   2.646  11.336   7.479 -0.0141 -0.0915  0.0159
  781loPI   C4A11142   2.674  11.307   7.891 -0.1256  0.0602 -0.2420
  781loPI   C5A11143   2.256  11.200   8.204  0.3361 -0.1226  0.1062
  781loPI   C6A11144   1.955  11.474   8.403  0.0570  0.0215  0.0530
  781loPI   C1B11145   3.055  11.670   6.816  0.2054  0.1184 -0.0527
  781loPI   C2B11146   2.967  11.537   7.198  0.0724  0.0856  0.0583
  781loPI   C3B11147   2.951  11.650   7.615  0.0515 -0.1389  0.3847
  781loPI   C4B11148   3.000  11.667   8.032  0.0427  0.1286  0.3607
  782loPI    C111149   3.552   1.391   5.716 -0.1249 -0.0769  0.1879
  782loPI    C211150   3.515   1.598   5.375  0.3462 -0.1669  0.0749
  782loPI    C311151   3.554   1.200   5.364  0.0427 -0.2052  0.2572
  782loPI   PO411152   3.711   1.525   5.853  0.2167  0.3095  0.0709
  782loPI   GL111153   3.967   1.583   6.242 -0.0176 -0.1220 -0.1738
  782loPI   GL211154   4.220   1.394   6.235  0.1725 -0.1278  0.1922
  782loPI   C1A11155   3.811   1.764   6.570  0.0499 -0.0060 -0.0157
  782loPI   C2A11156   3.820   1.761   7.003 -0.1778 -0.0926 -0.0746
  782loPI   C3A11157   3.627   1.955   7.312  0.0518  0.0026  0.1008
  782loPI   C4A11158   3.634   2.234   7.623  0.2176 -0.0056 -0.0964
  782loPI   C5A11159   3.629   2.739   7.794 -0.2376 -0.1160  0.1270
  782loPI   C6A11160   3.456   2.862   8.167  0.2096  0.1070 -0.0997
  782loPI   C1B11161   3.986   1.351   6.677 -0.3196 -0.0488  0.1995
  782loPI   C2B11162   3.913   1.274   7.144 -0.0024 -0.3484  0.1183
  782loPI   C3B11163   3.843   1.513   7.507  0.1002 -0.0882 -0.0674
  782loPI   C4B11164   3.885   1.734   7.874 -0.1614 -0.0537 -0.0660
  783loPI    C111165  13.620  14.849   5.373  0.0894 -0.2165 -0.0305
  783loPI    C211166  13.390  14.522   5.360  0.0912 -0.2202  0.0288
  783loPI    C311167  13.785  14.490   5.310  0.1400 -0.2782  0.4234
  783loPI   PO411168  13.442  15.023   5.663 -0.1336 -0.0633  0.1769
  783loPI   GL111169  13.400  15.198   6.075  0.0390 -0.0997 -0.0897
  783loPI   GL211170  13.834  15.164   6.074 -0.0481 -0.0345 -0.0168
  783loPI   C1A11171  13.354  15.445   6.528 -0.0923 -0.1438  0.1133
  783loPI   C2A11172  13.398  15.651   6.982  0.0332  0.1861 -0.3622
  783loPI   C3A11173  13.267  15.721   7.440  0.1418  0.0880 -0.2792
  783loPI   C4A11174  12.933  15.783   7.789  0.0177 -0.0121  0.1020
  783loPI   C5A11175  12.911  16.166   7.964 -0.0231 -0.3040  0.1429
  783loPI   C6A11176  13.149  16.267   8.137 -0.2624 -0.1244 -0.0448
  783loPI   C1B11177  13.993  14.836   6.297  0.0915  0.2483  0.1742
  783loPI   C2B11178  14.224  14.545   6.444  0.0866 -0.1216  0.1320
  783loPI   C3B11179  14.169  14.394   6.835 -0.1844 -0.2407  0.2302
  783loPI   C4B11180  14.254  14.468   7.285  0.2584 -0.0076  0.1198
  784loPI    C111181  11.940   0.062   5.155  0.2270  0.0726 -0.0776
  784loPI    C211182  11.588   0.079   4.966  0.0972  0.0804  0.1612
  784loPI    C311183  11.828   0.398   4.969  0.0204  0.1385  0.1605
  784loPI   PO411184  11.874   0.057   5.432 -0.1402 -0.0430  0.0110
  784loPI   GL111185  12.079  -0.057   5.785 -0.2674 -0.0859  0.1897
  784loPI   GL211186  11.700  -0.028   5.876 -0.0321  0.1300  0.1836
  784loPI   C1A11187  11.985  -0.067   6.255  0.0814 -0.0175 -0.1545
  784loPI   C2A11188  12.076  -0.087   6.657  0.1322  0.0571 -0.0477
  784loPI   C3A11189  11.983  -0.074   7.059 -0.2942 -0.2273 -0.0137
  784loPI   C4A11190  12.064   0.027   7.579 -0.6401 -0.1887 -0.0953
  784loPI   C5A11191  12.161   0.384   7.902  0.2019 -0.1588  0.0515
  784loPI   C6A11192  12.408   0.867   7.966 -0.1090  0.0905  0.2762
  784loPI   C1B11193  11.593   0.199   6.171  0.0671  0.2119  0.0417
  784loPI   C2B11194  11.757   0.325   6.437 -0.1430 -0.0626  0.1996
  784loPI   C3B11195  11.815   0.419   6.807  0.2656  0.1174 -0.1131
  784loPI   C4B11196  11.766   0.351   7.274  0.1258 -0.1712 -0.0501
  785loPI    C111197   9.850   8.565   5.396 -0.2169  0.0206 -0.0845
  785loPI    C211198   9.936   8.935   5.272 -0.0958  0.0151 -0.0188
  785loPI    C311199   9.810   8.661   5.010  0.3316 -0.0470 -0.1669
  785loPI   PO411200   9.985   8.507   5.692 -0.1977  0.0161 -0.0142
  785loPI   GL111201   9.782   8.698   6.076 -0.2035  0.1055  0.1721
  785loPI   GL211202   9.621   8.398   6.102  0.1431 -0.0272 -0.2369
  785loPI   C1A11203   9.926   8.606   6.412 -0.1877 -0.3622  0.1730
  785loPI   C2A11204   9.871   8.513   6.887 -0.0595  0.0502 -0.2748
  785loPI   C3A11205   9.703   8.625   7.238 -0.1229  0.0571 -0.0108
  785loPI   C4A11206   9.459   8.411   7.498  0.1745 -0.1799  0.1591
  785loPI   C5A11207   9.656   8.274   7.953 -0.0885  0.2605  0.1249
  785loPI   C6A11208   9.566   8.295   8.324 -0.1805  0.1649  0.2069
  785loPI   C1B11209   9.458   8.265   6.470 -0.5081 -0.0475 -0.0427
  785loPI   C2B11210   9.362   8.495   6.795 -0.0370 -0.3828 -0.3254
  785loPI   C3B11211   9.106   8.495   7.143  0.1523  0.0899  0.1579
  785loPI   C4B11212   8.917   8.408   7.496  0.0786  0.1422  0.1657
  786loPI    C111213   0.653   7.906   5.839  0.0291  0.0699  0.1030
  786loPI    C211214   0.507   7.735   5.508  0.1158 -0.0325  0.1171
  786loPI    C311215   0.662   8.103   5.491  0.1034 -0.0303  0.0476
  786loPI   PO411216   0.722   7.652   5.952 -0.0549 -0.0782  0.0010
  786loPI   GL111217   0.812   7.517   6.444  0.2185  0.0325  0.0183
  786loPI   GL211218   1.102   7.347   6.394 -0.0794 -0.2448  0.1267
  786loPI   C1A11219   0.884   7.479   6.810 -0.0993 -0.0150 -0.2337
  786loPI   C2A11220   0.958   7.492   7.211  0.1287 -0.0563 -0.1531
  786loPI   C3A11221   0.903   7.248   7.618 -0.0899  0.0121  0.0310
  786loPI   C4A11222   0.645   7.322   8.026 -0.1914 -0.2113 -0.1093
  786loPI   C5A11223   0.522   7.136   8.459 -0.0264 -0.3639  0.2190
  786loPI   C6A11224   0.140   7.054   8.656 -0.1179  0.1456  0.1058
  786loPI   C1B11225   1.379   7.307   6.790  0.2252  0.1595  0.0505
  786loPI   C2B11226   1.616   7.137   7.004  0.0767  0.0486  0.3694
  786loPI   C3B11227   1.858   7.045   7.404  0.0067  0.1531  0.0449
  786loPI   C4B11228   2.022   6.670   7.524 -0.4276  0.0008  0.1202
  787loPI    C111229   6.754  15.236   5.816 -0.0274 -0.0697 -0.1679
  787loPI    C211230   6.775  15.518   5.533 -0.0334 -0.0851 -0.1837
  787loPI    C311231   6.759  15.131   5.430 -0.0347 -0.0907 -0.1624
  787loPI   PO411232   6.942  15.343   6.062 -0.1656 -0.0652  0.1915
  787loPI   GL111233   6.784  15.417   6.423  0.1647  0.1345 -0.2109
  787loPI   GL211234   6.694  15.774   6.484  0.0737 -0.1994  0.0535
  787loPI   C1A11235   6.657  15.374   6.855 -0.2337 -0.1047 -0.2038
  787loPI   C2A11236   6.735  15.286   7.253 -0.4512  0.0893 -0.3432
  787loPI   C3A11237   6.928  15.520   7.596 -0.0513  0.1428  0.1548
  787loPI   C4A11238   6.963  15.396   8.031  0.2537  0.1481  0.1119
  787loPI   C5A11239   6.872  15.478   8.455 -0.1549 -0.1336 -0.0979
  787loPI   C6A11240   6.587  15.734   8.673  0.3220 -0.0197 -0.0700
  787loPI   C1B11241   6.681  15.892   6.869 -0.1084 -0.3073 -0.2561
  787loPI   C2B11242   6.685  15.900   7.286 -0.0955  0.1100  0.1349
  787loPI   C3B11243   6.757  15.957   7.818 -0.1177 -0.1449 -0.2263
  787loPI   C4B11244   6.662  15.853   8.192  0.0279 -0.1747 -0.2702
  788loPI    C111245  11.375  12.827   5.473 -0.0028 -0.2487 -0.1688
  788loPI    C211246  11.171  13.155   5.367  0.1102 -0.0797  0.1234
  788loPI    C311247  11.555  13.116   5.263  0.0777 -0.1531  0.0291
  788loPI   PO411248  11.369  12.815   5.746 -0.2119 -0.1229  0.4317
  788loPI   GL111249  11.569  12.990   6.145  0.0906  0.0578  0.1407
  788loPI   GL211250  11.925  12.777   6.196 -0.0678  0.4190 -0.0419
  788loPI   C1A11251  11.728  13.102   6.571  0.2240 -0.1637  0.1308
  788loPI   C2A11252  11.857  13.206   7.003 -0.0694  0.0888 -0.3352
  788loPI   C3A11253  12.008  13.282   7.481  0.0151 -0.0544 -0.2038
  788loPI   C4A11254  12.156  13.046   7.924 -0.1431  0.0851 -0.0843
  788loPI   C5A11255  12.177  12.723   8.322 -0.0732  0.0996  0.0256
  788loPI   C6A11256  12.538  12.545   8.510 -0.1616  0.5162  0.0619
  788loPI   C1B11257  12.099  12.753   6.739  0.0759  0.0175  0.0365
  788loPI   C2B11258  12.148  12.633   7.109 -0.2567 -0.0299  0.1034
  788loPI   C3B11259  12.336  12.545   7.530 -0.0823  0.2815  0.2980
  788loPI   C4B11260  12.606  12.551   7.873  0.2350  0.1837  0.2061
  789loPI    C111261  16.057   1.790   5.389  0.0754  0.0037 -0.0006
  789loPI    C211262  16.317   2.038   5.564  0.0229  0.0874 -0.0405
  789loPI    C311263  16.165   2.129   5.206 -0.0388  0.0245 -0.0304
  789loPI   PO411264  15.954   1.647   5.649 -0.2020  0.0654 -0.0204
  789loPI   GL111265  15.817   1.510   5.965 -0.3213 -0.2716  0.0551
  789loPI   GL211266  16.019   1.316   6.053 -0.0200 -0.0700 -0.0450
  789loPI   C1A11267  15.683   1.832   6.166 -0.2463  0.2505 -0.0459
  789loPI   C2A11268  15.498   2.062   6.378  0.1493  0.0400  0.1375
  789loPI   C3A11269  15.338   2.210   6.765 -0.0404  0.2265  0.0678
  789loPI   C4A11270  15.152   2.121   7.152 -0.0029  0.2527  0.1631
  789loPI   C5A11271  14.911   1.932   7.368 -0.0097 -0.2582  0.0671
  789loPI   C6A11272  15.035   1.966   7.854  0.0861  0.1896 -0.2143
  789loPI   C1B11273  15.774   1.352   6.440 -0.0220  0.3474 -0.1613
  789loPI   C2B11274  15.695   1.231   6.855  0.1364 -0.0510  0.0595
  789loPI   C3B11275  15.689   1.416   7.248  0.0571 -0.1660  0.0617
  789loPI   C4B11276  15.784   1.686   7.579  0.1246  0.0536  0.1470
  790loPI    C111277  10.181   2.641   5.459 -0.1887 -0.3702  0.0360
  790loPI    C211278   9.783   2.632   5.499 -0.2350  0.2377 -0.1868
  790loPI    C311279   9.948   2.762   5.158  0.1550  0.4467  0.0741
  790loPI   PO411280  10.291   2.789   5.730  0.2406  0.0119 -0.2215
  790loPI   GL111281  10.400   2.856   6.140 -0.0679 -0.1862 -0.1587
  790loPI   GL211282  10.149   2.764   6.418 -0.1883 -0.2749  0.0909
  790loPI   C1A11283  10.689   2.886   6.447  0.2163  0.1564 -0.1086
  790loPI   C2A11284  10.838   2.899   6.741  0.2334 -0.2298 -0.3111
  790loPI   C3A11285  10.917   2.914   7.204 -0.2973 -0.2929  0.4357
  790loPI   C4A11286  10.923   3.006   7.630  0.0194 -0.0929  0.0303
  790loPI   C5A11287  10.666   3.094   7.992  0.0325 -0.1304 -0.0530
  790loPI   C6A11288  10.378   2.961   8.279  0.0998  0.1889  0.2409
  790loPI   C1B11289  10.381   2.732   6.797 -0.1990 -0.0171  0.0913
  790loPI   C2B11290  10.431   2.798   7.252 -0.1663  0.1682  0.1113
  790loPI   C3B11291  10.452   2.767   7.715 -0.0371 -0.1773 -0.0044
  790loPI   C4B11292  10.661   2.508   8.059  0.2426  0.0276 -0.0374
  791loPI    C111293  14.858  10.103   5.039  0.2005 -0.2449  0.5195
  791loPI    C211294  15.130   9.833   4.925 -0.0217 -0.1247 -0.3724
  791loPI    C311295  15.150  10.207   4.786 -0.3275  0.0371  0.0019
  791loPI   PO411296  14.802  10.013   5.316  0.1634  0.1295 -0.2824
  791loPI   GL111297  14.782   9.862   5.725  0.2252 -0.1726  0.1732
  791loPI   GL211298  14.834   9.552   5.741  0.1016 -0.2146  0.0142
  791loPI   C1A11299  14.418  10.040   5.919  0.0101 -0.0482 -0.1165
  791loPI   C2A11300  14.350  10.081   6.289 -0.3792  0.3669 -0.2089
  791loPI   C3A11301  14.269  10.014   6.667  0.0054 -0.1876 -0.2070
  791loPI   C4A11302  14.254   9.984   7.101 -0.1589  0.1022 -0.3517
  791loPI   C5A11303  14.269   9.918   7.539  0.3339  0.0377  0.0855
  791loPI   C6A11304  14.164  10.164   7.926  0.0688 -0.3950  0.0927
  791loPI   C1B11305  14.657   9.643   6.185  0.1611  0.0376 -0.0274
  791loPI   C2B11306  14.615   9.621   6.650 -0.0071  0.1184  0.1403
  791loPI   C3B11307  14.628   9.656   7.069 -0.0783 -0.0780 -0.1361
  791loPI   C4B11308  14.494   9.559   7.361 -0.0622  0.0260 -0.0689
  792loPI    C111309  16.667   3.360   5.613  0.2656  0.0119 -0.0038
  792loPI    C211310  16.783   2.978   5.640  0.0901 -0.0322  0.1488
  792loPI    C311311  16.491   3.081   5.387  0.1896  0.0142  0.0520
  792loPI   PO411312  16.660   3.469   5.818 -0.1664 -0.1320  0.1098
  792loPI   GL111313  16.504   3.388   6.320  0.1222 -0.1494  0.0817
  792loPI   GL211314  16.295   3.545   6.175  0.3321 -0.1201 -0.2357
  792loPI   C1A11315  16.430   3.285   6.724  0.2539  0.0724 -0.3137
  792loPI   C2A11316  16.132   3.338   7.126 -0.2303  0.3370  0.2793
  792loPI   C3A11317  16.328   3.289   7.551 -0.1377  0.1272  0.2917
  792loPI   C4A11318  16.364   3.323   7.970  0.1591  0.0148  0.2429
  792loPI   C5A11319  15.988   3.480   8.174 -0.1166  0.0354  0.2338
  792loPI   C6A11320  15.588   3.464   8.008 -0.0771 -0.2573 -0.0531
  792loPI   C1B11321  16.090   3.644   6.529  0.0879 -0.0466  0.2779
  792loPI   C2B11322  15.801   3.586   6.880 -0.0781 -0.0097 -0.2752
  792loPI   C3B11323  15.753   3.655   7.268 -0.0639 -0.0512  0.0930
  792loPI   C4B11324  15.924   3.589   7.606  0.1417  0.2971 -0.1633
  793loPI    C111325   6.307  10.918   5.662 -0.2068  0.1637  0.1387
  793loPI    C211326   6.082  10.669   5.444 -0.1461 -0.0100  0.2723
  793loPI    C311327   6.370  10.884   5.268 -0.2528  0.0282  0.1426
  793loPI   PO411328   6.429  10.863   5.853 -0.0556 -0.1167 -0.0844
  793loPI   GL111329   6.195  10.940   6.294 -0.1705  0.0782 -0.2450
  793loPI   GL211330   6.506  10.833   6.456  0.0924  0.0444 -0.3830
  793loPI   C1A11331   6.258  11.264   6.611  0.2245  0.2592  0.1840
  793loPI   C2A11332   6.144  11.282   7.041  0.3278 -0.0188  0.2605
  793loPI   C3A11333   6.029  11.117   7.402  0.0885 -0.0706 -0.2739
  793loPI   C4A11334   5.871  11.132   7.779  0.1242  0.0499 -0.3252
  793loPI   C5A11335   5.690  11.211   8.092  0.0968  0.2244 -0.4325
  793loPI   C6A11336   5.376  11.291   8.177 -0.2498  0.0041  0.0220
  793loPI   C1B11337   6.466  10.888   6.862 -0.1159 -0.0977  0.1616
  793loPI   C2B11338   6.542  10.991   7.335 -0.0157 -0.0373 -0.1074
  793loPI   C3B11339   6.398  11.115   7.807 -0.0970 -0.3222  0.1431
  793loPI   C4B11340   6.188  11.112   8.265 -0.5383 -0.1947  0.1174
  794loPI    C111341  13.062   7.030   5.273 -0.1563  0.0076  0.0010
  794loPI    C211342  13.110   7.318   5.547  0.0374 -0.0089 -0.0135
  794loPI    C311343  13.302   7.341   5.197 -0.1276 -0.0405 -0.1077
  794loPI   PO411344  12.945   6.847   5.447  0.2810  0.0321  0.3371
  794loPI   GL111345  12.731   6.599   5.810  0.3452 -0.0064  0.0437
  794loPI   GL211346  12.803   6.283   5.924 -0.0304  0.0822  0.2745
  794loPI   C1A11347  12.817   6.787   6.225 -0.1611 -0.1447 -0.1110
  794loPI   C2A11348  12.817   6.703   6.665 -0.2163  0.2759 -0.1479
  794loPI   C3A11349  12.819   6.763   7.125 -0.2256  0.2070  0.2012
  794loPI   C4A11350  12.654   6.876   7.511 -0.1758 -0.1107  0.1240
  794loPI   C5A11351  12.401   6.882   7.849  0.0807 -0.0594 -0.2855
  794loPI   C6A11352  12.326   6.986   8.240  0.0729  0.1053 -0.0979
  794loPI   C1B11353  12.652   6.285   6.402  0.0055  0.2115  0.4154
  794loPI   C2B11354  12.676   6.230   6.849  0.0727  0.0429 -0.1007
  794loPI   C3B11355  12.710   6.304   7.364  0.2734 -0.0435 -0.0276
  794loPI   C4B11356  12.805   6.241   7.836 -0.1722 -0.0298 -0.0519
  795loPI    C111357   9.978  11.814   5.610  0.3310  0.0328 -0.0562
  795loPI    C211358  10.047  12.165   5.433  0.2018  0.0279 -0.1176
  795loPI    C311359  10.019  11.833   5.212 -0.0221  0.0312 -0.0960
  795loPI   PO411360  10.208  11.860   5.811  0.1517  0.0911 -0.0941
  795loPI   GL111361  10.242  12.125   6.194 -0.0823  0.1668 -0.1158
  795loPI   GL211362  10.182  12.463   6.312 -0.0075  0.0940  0.1682
  795loPI   C1A11363  10.202  11.983   6.556  0.0179 -0.2434 -0.1333
  795loPI   C2A11364  10.254  12.196   6.850  0.3626  0.1832 -0.2699
  795loPI   C3A11365  10.109  12.044   7.230 -0.0308 -0.2483 -0.0970
  795loPI   C4A11366  10.111  11.941   7.605 -0.0596 -0.0315 -0.3336
  795loPI   C5A11367   9.961  11.847   7.895  0.2918 -0.2370 -0.0076
  795loPI   C6A11368  10.098  11.524   8.193 -0.0833 -0.0523 -0.1161
  795loPI   C1B11369   9.941  12.598   6.644  0.2795  0.1710  0.1450
  795loPI   C2B11370  10.011  12.521   7.147 -0.0217  0.0229  0.0980
  795loPI   C3B11371   9.957  12.437   7.572  0.2355  0.1783  0.2029
  795loPI   C4B11372   9.969  12.465   8.005 -0.1944  0.3879 -0.1132
  796loPI    C111373  12.438   5.199   5.254 -0.0829  0.0597  0.0759
  796loPI    C211374  12.366   5.591   5.215  0.0274  0.0425 -0.3497
  796loPI    C311375  12.107   5.325   5.067  0.1675 -0.0386 -0.4520
  796loPI   PO411376  12.606   5.152   5.406  0.1574 -0.3032 -0.1143
  796loPI   GL111377  12.834   5.126   5.817  0.0747  0.0639  0.0113
  796loPI   GL211378  12.963   4.994   6.050 -0.0018  0.2080 -0.2587
  796loPI   C1A11379  12.617   5.321   6.226 -0.3473 -0.1255 -0.0549
  796loPI   C2A11380  12.834   5.297   6.675 -0.0101  0.0690 -0.2091
  796loPI   C3A11381  12.825   5.263   7.101  0.2937  0.0636  0.1994
  796loPI   C4A11382  12.991   5.189   7.464  0.2100 -0.0444  0.0373
  796loPI   C5A11383  12.744   4.876   7.740 -0.2454 -0.0789 -0.1826
  796loPI   C6A11384  12.371   4.567   7.893  0.4175  0.0153 -0.4042
  796loPI   C1B11385  13.444   5.145   6.219  0.2759 -0.4579  0.2243
  796loPI   C2B11386  13.619   5.440   6.522  0.1971  0.0245 -0.0524
  796loPI   C3B11387  13.564   5.541   6.982 -0.0989 -0.0914  0.1254
  796loPI   C4B11388  13.282   5.566   7.286  0.1003 -0.1675 -0.0079
  797loPI    C111389  11.227  12.300   5.596  0.1036 -0.1018  0.0014
  797loPI    C211390  10.919  12.130   5.406 -0.1004  0.0224  0.2162
  797loPI    C311391  11.005  12.515   5.342  0.2042 -0.0886 -0.0766
  797loPI   PO411392  11.176  12.162   5.864  0.1500  0.1327  0.3727
  797loPI   GL111393  11.176  11.833   6.171 -0.1698  0.2254 -0.1296
  797loPI   GL211394  11.058  11.474   6.202  0.2694  0.3074 -0.0221
  797loPI   C1A11395  11.166  11.972   6.617  0.3157 -0.0127  0.1379
  797loPI   C2A11396  11.209  12.243   7.007  0.0780 -0.2716 -0.0800
  797loPI   C3A11397  11.256  12.509   7.326 -0.1252  0.0557 -0.2225
  797loPI   C4A11398  11.167  12.979   7.529  0.1947 -0.0806  0.0005
  797loPI   C5A11399  11.232  13.103   7.984 -0.0298  0.0132  0.1896
  797loPI   C6A11400  11.411  13.247   8.432  0.1892 -0.2855  0.1042
  797loPI   C1B11401  11.043  11.488   6.662 -0.1718 -0.3287 -0.1257
  797loPI   C2B11402  11.020  11.478   7.129 -0.0247  0.1145  0.0291
  797loPI   C3B11403  10.661  11.680   7.425 -0.2607  0.0837 -0.2071
  797loPI   C4B11404  10.572  11.486   7.870  0.0794 -0.1208 -0.2609
  798loPI    C111405   1.278   2.413   6.040 -0.0854 -0.1079 -0.1861
  798loPI    C211406   0.978   2.212   5.868 -0.0198 -0.0233 -0.4023
  798loPI    C311407   1.352   2.071   5.848 -0.0375 -0.1064 -0.1705
  798loPI   PO411408   1.247   2.671   5.933  0.1447  0.4367  0.0124
  798loPI   GL111409   1.297   2.964   6.261 -0.2150 -0.0694 -0.1213
  798loPI   GL211410   1.594   2.788   6.276 -0.1798 -0.0110  0.0921
  798loPI   C1A11411   1.328   2.923   6.682 -0.1765 -0.0368 -0.1212
  798loPI   C2A11412   1.569   2.947   7.040 -0.3406 -0.0520  0.1045
  798loPI   C3A11413   1.540   2.761   7.369 -0.0994 -0.1458  0.1127
  798loPI   C4A11414   1.383   2.615   7.829 -0.0020 -0.0593 -0.2470
  798loPI   C5A11415   1.159   2.515   8.116 -0.3712  0.3453 -0.0142
  798loPI   C6A11416   0.727   2.454   8.244  0.2750 -0.1489 -0.1915
  798loPI   C1B11417   1.815   3.029   6.652  0.0599  0.3852 -0.0079
  798loPI   C2B11418   2.029   3.052   7.090 -0.1458  0.0374 -0.2504
  798loPI   C3B11419   2.033   3.031   7.540 -0.0476  0.0026 -0.0030
  798loPI   C4B11420   1.872   2.724   7.802  0.3520  0.0674  0.1004
  799loPI    C111421   9.048  17.271   5.557 -0.0694 -0.0773 -0.0900
  799loPI    C211422   9.043  17.296   5.158  0.2693  0.1630 -0.0838
  799loPI    C311423   9.021  17.629   5.380 -0.1104  0.0180  0.1049
  799loPI   PO411424   9.195  17.060   5.588 -0.2412  0.0330 -0.0538
  799loPI   GL111425   9.530  16.956   5.924 -0.0714 -0.0200 -0.1396
  799loPI   GL211426   9.510  17.206   6.120  0.0239 -0.0132  0.2534
  799loPI   C1A11427   9.953  16.871   6.098 -0.0129 -0.0475  0.0632
  799loPI   C2A11428  10.043  16.876   6.522 -0.3105  0.1534  0.1129
  799loPI   C3A11429  10.230  16.821   6.937  0.1341  0.0658  0.2900
  799loPI   C4A11430  10.346  17.118   7.210 -0.3021 -0.0294 -0.0180
  799loPI   C5A11431  10.440  17.112   7.621 -0.2382  0.2649  0.0583
  799loPI   C6A11432  10.617  17.262   8.037 -0.0930  0.1226 -0.0335
  799loPI   C1B11433   9.743  17.271   6.502 -0.1669  0.0821 -0.1233
  799loPI   C2B11434   9.891  17.301   6.955 -0.2299 -0.1759  0.0744
  799loPI   C3B11435   9.960  17.477   7.304 -0.0341 -0.0058 -0.2759
  799loPI   C4B11436  10.080  17.492   7.826 -0.5460  0.2144  0.2379
  800loPI    C111437  13.875   9.447   4.783  0.0088  0.2229 -0.0259
  800loPI    C211438  14.021   9.075   4.755  0.2402  0.3126 -0.0346
  800loPI    C311439  13.969   9.295   4.425  0.1019  0.2879 -0.0296
  800loPI   PO411440  13.805   9.430   5.086 -0.0177  0.1544  0.0850
  800loPI   GL111441  13.885   9.312   5.493 -0.0062 -0.0288 -0.0527
  800loPI   GL211442  13.615   9.354   5.625 -0.0884 -0.1814 -0.2936
  800loPI   C1A11443  14.099   9.389   5.864 -0.2982 -0.0544 -0.1664
  800loPI   C2A11444  14.179   9.608   6.345 -0.4050  0.1853 -0.0985
  800loPI   C3A11445  14.077   9.615   6.863 -0.2028 -0.3423 -0.0342
  800loPI   C4A11446  14.005   9.527   7.344  0.0585  0.2283 -0.1696
  800loPI   C5A11447  13.707   9.219   7.557  0.3418  0.1185 -0.0566
  800loPI   C6A11448  13.540   8.921   7.803 -0.3349 -0.1286 -0.1443
  800loPI   C1B11449  13.589   9.533   5.945  0.0465  0.1030  0.0441
  800loPI   C2B11450  13.548   9.542   6.360  0.2370 -0.1559 -0.2422
  800loPI   C3B11451  13.560   9.511   6.754  0.2123 -0.1265  0.1607
  800loPI   C4B11452  13.457   9.457   7.102  0.1095  0.0617  0.3240
  801loPI    C111453   3.959  10.555   5.605 -0.0708  0.2144  0.1568
  801loPI    C211454   3.575  10.478   5.523 -0.0326  0.1961 -0.0076
  801loPI    C311455   3.810  10.641   5.243  0.0119  0.4575  0.1787
  801loPI   PO411456   3.957  10.595   5.829  0.2325 -0.2611  0.0080
  801loPI   GL111457   3.834  10.695   6.265 -0.0302  0.0366  0.1223
  801loPI   GL211458   3.502  10.848   6.448  0.0275  0.0877 -0.0020
  801loPI   C1A11459   3.913  10.675   6.709  0.1983 -0.0678 -0.1120
  801loPI   C2A11460   3.915  10.601   7.155 -0.1872 -0.1811  0.1823
  801loPI   C3A11461   3.944  10.653   7.633  0.1213 -0.1748 -0.1867
  801loPI   C4A11462   3.459  10.541   7.810 -0.2072  0.1000 -0.1404
  801loPI   C5A11463   3.266  10.130   7.923 -0.0369  0.1866 -0.4024
  801loPI   C6A11464   3.403   9.832   8.021  0.0659 -0.0550 -0.2677
  801loPI   C1B11465   3.514  10.863   6.933  0.1457  0.0671  0.0446
  801loPI   C2B11466   3.516  10.877   7.377 -0.1131 -0.0228  0.1056
  801loPI   C3B11467   3.556  11.021   7.791  0.0733  0.0199 -0.0595
  801loPI   C4B11468   3.512  10.973   8.285 -0.1104 -0.1210  0.0231
  802loPI    C111469  17.278   8.943   5.530 -0.0642  0.2335 -0.2587
  802loPI    C211470  17.180   9.257   5.303 -0.2399  0.1378 -0.3170
  802loPI    C311471  17.393   8.956   5.147  0.1706  0.3526 -0.1864
  802loPI   PO411472  17.406   9.163   5.779  0.2717  0.0371 -0.0580
  802loPI   GL111473  17.194   9.250   6.066 -0.2401  0.0576  0.2012
  802loPI   GL211474  17.239   9.552   6.123 -0.1012 -0.1145 -0.1792
  802loPI   C1A11475  17.163   9.050   6.354  0.1728 -0.2557 -0.0074
  802loPI   C2A11476  17.000   8.982   6.687  0.1529 -0.0691 -0.0551
  802loPI   C3A11477  16.999   8.859   7.119 -0.0113 -0.2576 -0.2963
  802loPI   C4A11478  17.225   8.702   7.414 -0.4802  0.2445 -0.0081
  802loPI   C5A11479  17.357   8.496   7.648  0.1072  0.3597 -0.0777
  802loPI   C6A11480  17.391   8.609   8.055 -0.0179 -0.0156  0.2630
  802loPI   C1B11481  17.008   9.586   6.425  0.0369 -0.4090 -0.1064
  802loPI   C2B11482  16.709   9.374   6.764  0.3452  0.0952  0.4079
  802loPI   C3B11483  16.513   9.047   7.127  0.1255  0.0250  0.2333
  802loPI   C4B11484  16.258   9.057   7.576 -0.0773 -0.0124 -0.1736
  803loPI    C111485   2.209   8.221   5.776 -0.0840 -0.1916  0.2645
  803loPI    C211486   2.339   8.336   5.416  0.2759 -0.0216  0.4431
  803loPI    C311487   1.961   8.214   5.463  0.1936  0.0616  0.0330
  803loPI   PO411488   2.378   8.396   5.906 -0.1975 -0.0193  0.0015
  803loPI   GL111489   2.267   8.474   6.280  0.2469  0.3241 -0.1469
  803loPI   GL211490   2.535   8.658   6.334 -0.1742  0.1852 -0.3040
  803loPI   C1A11491   2.234   8.517   6.703 -0.0841 -0.2101  0.2551
  803loPI   C2A11492   1.941   8.828   6.948  0.0367  0.0008 -0.0654
  803loPI   C3A11493   1.919   9.076   7.268  0.1164  0.1954 -0.0080
  803loPI   C4A11494   1.999   9.196   7.645 -0.1424  0.0275  0.1645
  803loPI   C5A11495   2.027   9.145   8.128 -0.1649 -0.1477 -0.1520
  803loPI   C6A11496   2.256   9.316   8.509 -0.3279  0.0787  0.0520
  803loPI   C1B11497   2.811   8.708   6.643 -0.1053  0.2281  0.0767
  803loPI   C2B11498   2.831   8.716   7.114 -0.2382  0.2771  0.1712
  803loPI   C3B11499   2.687   8.750   7.543  0.2165  0.3441  0.2290
  803loPI   C4B11500   2.476   8.883   7.887  0.2795 -0.1421  0.2390
  804loPI    C111501   7.406   1.966   5.439  0.0001  0.0796 -0.2035
  804loPI    C211502   7.768   2.077   5.310  0.0406  0.0923 -0.0797
  804loPI    C311503   7.554   1.811   5.101  0.2619 -0.1686  0.0197
  804loPI   PO411504   7.392   2.070   5.645  0.0148  0.2787 -0.0103
  804loPI   GL111505   7.058   2.167   5.916  0.2649 -0.0226 -0.0509
  804loPI   GL211506   7.053   1.901   6.118 -0.0495 -0.1730 -0.2682
  804loPI   C1A11507   6.912   2.298   6.382 -0.1183 -0.1045 -0.1215
  804loPI   C2A11508   7.010   2.321   6.745 -0.0111 -0.0028 -0.2462
  804loPI   C3A11509   7.041   2.417   7.210 -0.1803 -0.1498  0.1056
  804loPI   C4A11510   7.028   2.414   7.595  0.1207 -0.2490 -0.0857
  804loPI   C5A11511   6.890   2.387   8.040 -0.1765 -0.4334  0.0904
  804loPI   C6A11512   7.072   2.162   8.260 -0.1522 -0.1303 -0.0945
  804loPI   C1B11513   7.039   1.786   6.506  0.1152 -0.0453 -0.2753
  804loPI   C2B11514   6.967   1.879   7.026 -0.0034 -0.0040  0.1332
  804loPI   C3B11515   7.177   1.971   7.381  0.1339  0.1530 -0.1211
  804loPI   C4B11516   7.252   2.007   7.778 -0.3173  0.1839  0.0507
  805loPI    C111517   6.406   5.441   5.370  0.0208 -0.2256 -0.0186
  805loPI    C211518   6.345   5.658   5.040  0.1199  0.0004  0.1096
  805loPI    C311519   6.207   5.284   5.062  0.0346  0.0151 -0.1524
  805loPI   PO411520   6.626   5.476   5.411  0.0884  0.1089  0.1540
  805loPI   GL111521   6.872   5.458   5.763 -0.1277 -0.0365  0.0968
  805loPI   GL211522   6.705   5.129   5.739  0.1295 -0.2742 -0.2771
  805loPI   C1A11523   7.033   5.324   6.135 -0.1827 -0.1711 -0.5378
  805loPI   C2A11524   7.221   5.099   6.518 -0.0219  0.0501  0.0787
  805loPI   C3A11525   7.479   5.018   6.980 -0.0084  0.1964  0.0526
  805loPI   C4A11526   7.394   4.815   7.453  0.2112  0.2779 -0.0661
  805loPI   C5A11527   7.594   4.473   7.662  0.3155  0.1042 -0.1275
  805loPI   C6A11528   8.001   4.616   7.759  0.2241  0.1417  0.3409
  805loPI   C1B11529   6.789   4.929   6.181 -0.0289 -0.1101  0.1903
  805loPI   C2B11530   6.937   4.677   6.568  0.1971 -0.0627  0.3167
  805loPI   C3B11531   7.056   4.273   6.792  0.0420  0.0854 -0.0507
  805loPI   C4B11532   7.067   3.727   6.801  0.2452 -0.0224 -0.0598
  806loPI    C111533   9.468   2.302   5.369  0.1390  0.0454 -0.0876
  806loPI    C211534   9.232   2.260   5.049  0.0969 -0.1253 -0.0353
  806loPI    C311535   9.497   2.559   5.064  0.1059 -0.1216 -0.2333
  806loPI   PO411536   9.342   2.387   5.565 -0.1050  0.1699  0.0949
  806loPI   GL111537   9.523   2.714   5.924  0.1193  0.1466  0.0076
  806loPI   GL211538   9.356   2.542   6.044 -0.0480 -0.2103  0.1069
  806loPI   C1A11539   9.562   2.935   6.320  0.1675  0.2870  0.0640
  806loPI   C2A11540   9.781   3.029   6.726  0.1167 -0.2206 -0.1953
  806loPI   C3A11541   9.919   3.179   7.124 -0.1077  0.1935 -0.0222
  806loPI   C4A11542  10.018   3.079   7.577  0.2494  0.0998  0.0157
  806loPI   C5A11543   9.960   2.855   7.945 -0.1491 -0.2281 -0.0000
  806loPI   C6A11544   9.718   2.371   8.018  0.0514  0.0723 -0.3887
  806loPI   C1B11545   9.715   2.481   6.350  0.3138  0.3033 -0.2410
  806loPI   C2B11546   9.891   2.517   6.782 -0.0642 -0.2191 -0.0546
  806loPI   C3B11547   9.983   2.634   7.087  0.1491  0.0628  0.2863
  806loPI   C4B11548   9.937   2.554   7.548 -0.0543  0.0537  0.0212
  807loPI    C111549   4.355   2.956   5.759  0.1524 -0.4325  0.2138
  807loPI    C211550   3.977   2.837   5.816 -0.1164  0.1059 -0.3237
  807loPI    C311551   4.127   2.855   5.446  0.3688  0.1128 -0.1340
  807loPI   PO411552   4.444   2.819   6.011  0.1206 -0.0417 -0.0418
  807loPI   GL111553   4.624   2.824   6.466  0.1949  0.1998  0.1055
  807loPI   GL211554   4.861   2.780   6.640  0.1160 -0.1993  0.1191
  807loPI   C1A11555   4.332   2.750   6.735  0.2966 -0.2536 -0.0041
  807loPI   C2A11556   4.383   2.565   7.086  0.1705 -0.0966 -0.0749
  807loPI   C3A11557   4.567   2.339   7.396  0.0611 -0.0532  0.1465
  807loPI   C4A11558   4.790   2.357   7.790  0.0787  0.0915  0.0899
  807loPI   C5A11559   5.133   2.360   8.126 -0.1869 -0.1273 -0.0792
  807loPI   C6A11560   5.219   2.672   8.464  0.1960  0.0881  0.1418
  807loPI   C1B11561   4.798   2.735   7.025  0.0962  0.0027  0.0409
  807loPI   C2B11562   4.999   2.615   7.388  0.0348  0.0311 -0.1079
  807loPI   C3B11563   5.257   2.649   7.775  0.0913  0.0542  0.0856
  807loPI   C4B11564   5.606   2.657   8.021 -0.0192  0.0400 -0.0710
  808loPI    C111565   1.658  14.514   5.539 -0.1405 -0.0713 -0.0834
  808loPI    C211566   1.751  14.177   5.345 -0.0617 -0.1484  0.0867
  808loPI    C311567   2.010  14.482   5.352 -0.1784 -0.0402 -0.1608
  808loPI   PO411568   1.547  14.358   5.766 -0.2371  0.1462  0.2186
  808loPI   GL111569   1.312  14.437   6.123  0.2474 -0.1889  0.3407
  808loPI   GL211570   1.603  14.445   6.239 -0.0617 -0.2024 -0.0164
  808loPI   C1A11571   1.338  14.385   6.659  0.3552 -0.0774  0.0726
  808loPI   C2A11572   1.280  14.343   7.027  0.3706 -0.0614  0.0790
  808loPI   C3A11573   1.252  14.248   7.394 -0.1426  0.1606  0.1200
  808loPI   C4A11574   1.166  14.361   7.769  0.1361 -0.0326 -0.1685
  808loPI   C5A11575   0.894  14.350   8.209  0.5797  0.0496 -0.3549
  808loPI   C6A11576   0.632  14.665   8.524  0.0465 -0.0862 -0.1571
  808loPI   C1B11577   1.827  14.678   6.507 -0.1026 -0.2951  0.0870
  808loPI   C2B11578   1.702  14.666   6.955  0.1093  0.1054  0.1270
  808loPI   C3B11579   1.564  14.656   7.377 -0.0689 -0.0004 -0.2066
  808loPI   C4B11580   1.518  14.682   7.790 -0.1686  0.0350 -0.0337
  809loPI    C111581   7.354  14.474   5.670  0.0633  0.2045  0.0736
  809loPI    C211582   7.072  14.735   5.560 -0.1609 -0.0509  0.0320
  809loPI    C311583   7.176  14.438   5.313 -0.0373 -0.1084  0.1524
  809loPI   PO411584   7.297  14.451   5.935  0.0587  0.2691 -0.0854
  809loPI   GL111585   7.403  14.515   6.397 -0.1794  0.2170  0.0711
  809loPI   GL211586   7.429  14.306   6.398 -0.1086  0.1648  0.3721
  809loPI   C1A11587   7.148  14.721   6.635  0.0013 -0.0418 -0.2499
  809loPI   C2A11588   7.104  15.066   6.923 -0.0896 -0.2045  0.0032
  809loPI   C3A11589   7.146  15.080   7.496 -0.0185 -0.1299  0.3399
  809loPI   C4A11590   7.243  14.937   7.919  0.0491  0.0271  0.1039
  809loPI   C5A11591   7.086  14.557   8.256 -0.0413 -0.1504  0.0989
  809loPI   C6A11592   7.181  14.140   8.279  0.0718 -0.0812 -0.1640
  809loPI   C1B11593   7.135  14.216   6.720  0.0509  0.0133  0.2166
  809loPI   C2B11594   6.996  14.102   7.155 -0.0780  0.2054 -0.0889
  809loPI   C3B11595   7.020  14.002   7.559  0.0286  0.1597 -0.0148
  809loPI   C4B11596   7.392  14.149   7.820  0.1318 -0.1921 -0.1970
  810loPI    C111597  12.883   8.324   5.226  0.1371 -0.1059  0.0156
  810loPI    C211598  12.863   8.708   5.338 -0.1284 -0.1201  0.0242
  810loPI    C311599  12.689   8.590   4.998  0.3049 -0.1580 -0.1908
  810loPI   PO411600  12.917   8.185   5.477  0.1510 -0.1496 -0.0561
  810loPI   GL111601  13.043   8.106   5.819  0.2121 -0.0209 -0.0869
  810loPI   GL211602  13.259   8.007   5.789 -0.2746 -0.0156 -0.2568
  810loPI   C1A11603  12.783   8.046   6.141 -0.0277  0.2492 -0.0884
  810loPI   C2A11604  12.837   8.190   6.516 -0.1228 -0.2295  0.0406
  810loPI   C3A11605  12.811   8.096   6.870  0.0374  0.1494 -0.1317
  810loPI   C4A11606  12.845   8.094   7.247 -0.0275 -0.0851 -0.2040
  810loPI   C5A11607  12.929   8.183   7.645 -0.0357  0.3692  0.0053
  810loPI   C6A11608  12.775   8.225   8.022  0.2078  0.0796 -0.0292
  810loPI   C1B11609  13.365   8.194   6.229  0.1088 -0.2584 -0.2862
  810loPI   C2B11610  13.412   8.263   6.666  0.0433  0.0710 -0.1778
  810loPI   C3B11611  13.391   8.137   7.123  0.1824 -0.1933 -0.0614
  810loPI   C4B11612  13.416   8.165   7.578  0.0911  0.1718 -0.0828
  811loPI    C111613  17.657   5.717   5.766  0.2942  0.1476 -0.0681
  811loPI    C211614  17.287   5.859   5.708  0.1840 -0.0656  0.0964
  811loPI    C311615  17.467   5.646   5.421 -0.0174 -0.3818  0.1999
  811loPI   PO411616  17.668   5.624   5.989  0.2273  0.0411 -0.2463
  811loPI   GL111617  17.523   5.329   6.239  0.0199  0.3637  0.1247
  811loPI   GL211618  17.668   5.182   6.405  0.1373  0.3648  0.0264
  811loPI   C1A11619  17.518   5.482   6.738 -0.1733 -0.1533  0.0117
  811loPI   C2A11620  17.545   5.433   7.183 -0.0024  0.0001 -0.0732
  811loPI   C3A11621  17.554   5.331   7.552 -0.0866 -0.0164  0.2190
  811loPI   C4A11622  17.709   5.249   7.971  0.1251  0.1971  0.0521
  811loPI   C5A11623  17.740   5.106   8.442  0.0538 -0.1540  0.1681
  811loPI   C6A11624  17.930   4.729   8.552  0.1634 -0.1128  0.0148
  811loPI   C1B11625  17.679   5.027   6.830 -0.1755 -0.0948 -0.4478
  811loPI   C2B11626  17.569   4.892   7.251 -0.1581 -0.2979  0.1552
  811loPI   C3B11627  17.499   4.861   7.754 -0.1129 -0.0236  0.0297
  811loPI   C4B11628  17.456   4.795   8.147 -0.2584 -0.0334  0.0643
  812loPI    C111629   5.918   1.642   5.671  0.1618 -0.1430  0.0949
  812loPI    C211630   6.282   1.486   5.732 -0.0012 -0.5662  0.0179
  812loPI    C311631   6.151   1.552   5.359  0.1418 -0.0455  0.0514
  812loPI   PO411632   6.019   1.985   5.869 -0.1534 -0.1313 -0.1770
  812loPI   GL111633   5.780   2.055   6.223 -0.1891 -0.0497 -0.4360
  812loPI   GL211634   5.457   2.080   6.156  0.3886  0.1407 -0.0510
  812loPI   C1A11635   6.052   2.090   6.706  0.0150  0.2559 -0.1289
  812loPI   C2A11636   6.354   2.054   7.048 -0.0508 -0.1375  0.0827
  812loPI   C3A11637   6.652   2.099   7.395 -0.1176 -0.0333  0.2004
  812loPI   C4A11638   6.659   2.002   7.823 -0.0696  0.0052  0.1307
  812loPI   C5A11639   6.702   1.894   8.108  0.4731 -0.2174  0.1947
  812loPI   C6A11640   6.707   1.550   8.367 -0.0426  0.0071  0.3473
  812loPI   C1B11641   5.530   2.067   6.619 -0.1623 -0.1284  0.2632
  812loPI   C2B11642   5.674   2.050   6.990 -0.0509  0.3062  0.1125
  812loPI   C3B11643   5.816   1.922   7.363 -0.4487  0.0161  0.3795
  812loPI   C4B11644   6.170   1.863   7.734 -0.0003 -0.0313 -0.1901
  813loPI    C111645   0.902   6.753   5.853  0.1255 -0.0088 -0.0944
  813loPI    C211646   0.536   6.751   5.691  0.1343 -0.0876 -0.1137
  813loPI    C311647   0.807   6.479   5.577  0.2066 -0.0144 -0.1172
  813loPI   PO411648   0.886   6.729   6.081 -0.0819  0.2205 -0.1997
  813loPI   GL111649   0.869   6.929   6.494  0.0443  0.1006 -0.0191
  813loPI   GL211650   0.815   6.633   6.598 -0.2129 -0.0689  0.1230
  813loPI   C1A11651   0.987   7.012   6.908  0.0950 -0.3103  0.0393
  813loPI   C2A11652   1.207   6.996   7.317 -0.0899  0.1450  0.4316
  813loPI   C3A11653   1.421   6.884   7.691 -0.2911 -0.2776  0.0308
  813loPI   C4A11654   1.811   6.935   7.961  0.1008 -0.1788 -0.0156
  813loPI   C5A11655   1.905   7.217   8.264 -0.0372  0.1010 -0.4848
  813loPI   C6A11656   1.779   7.159   8.671  0.0851 -0.3050  0.0520
  813loPI   C1B11657   0.711   6.631   6.993 -0.0521  0.0458  0.0488
  813loPI   C2B11658   0.799   6.759   7.358 -0.2743  0.1198  0.0703
  813loPI   C3B11659   0.883   6.769   7.734 -0.1413 -0.0770 -0.2380
  813loPI   C4B11660   0.933   6.965   8.112 -0.3267  0.0636  0.4878
  814loPI    C111661   1.076   5.586   5.551  0.2008 -0.1312 -0.1157
  814loPI    C211662   0.938   5.214   5.500  0.5145 -0.2648 -0.0100
  814loPI    C311663   1.212   5.362   5.249  0.3194 -0.0673 -0.1100
  814loPI   PO411664   1.132   5.588   5.780 -0.1716  0.3352  0.2272
  814loPI   GL111665   1.152   5.552   6.149 -0.0944 -0.0050 -0.0505
  814loPI   GL211666   0.913   5.725   6.216  0.1033 -0.0721  0.0786
  814loPI   C1A11667   1.111   5.240   6.541 -0.1008  0.0819  0.2285
  814loPI   C2A11668   0.995   5.120   6.949 -0.0086  0.1044  0.1297
  814loPI   C3A11669   0.992   5.274   7.333  0.0525  0.0264 -0.1623
  814loPI   C4A11670   0.782   5.492   7.723  0.0223  0.2583 -0.0987
  814loPI   C5A11671   0.777   5.602   8.231  0.4207  0.0593  0.0282
  814loPI   C6A11672   0.946   5.899   8.424  0.1768 -0.0707  0.1422
  814loPI   C1B11673   1.109   5.717   6.630 -0.1674 -0.1412  0.1473
  814loPI   C2B11674   1.078   5.614   6.997 -0.0195  0.1424  0.0211
  814loPI   C3B11675   1.065   5.792   7.396  0.2147 -0.0936  0.4138
  814loPI   C4B11676   0.764   6.020   7.648 -0.0916  0.0219  0.1003
  815loPI    C111677   5.361  13.154   5.555  0.1279 -0.1060  0.0081
  815loPI    C211678   5.275  13.111   5.167  0.1576  0.0171 -0.0126
  815loPI    C311679   4.988  13.217   5.425  0.1477 -0.0209 -0.0078
  815loPI   PO411680   5.511  12.876   5.793 -0.0099  0.0165  0.1621
  815loPI   GL111681   5.572  12.755   6.289 -0.1495 -0.0501  0.0920
  815loPI   GL211682   5.271  12.997   6.263  0.4689 -0.0288 -0.0158
  815loPI   C1A11683   5.497  12.592   6.558 -0.1862 -0.1894  0.1880
  815loPI   C2A11684   5.216  12.629   6.915 -0.0768 -0.3449 -0.2328
  815loPI   C3A11685   5.185  12.637   7.393 -0.1324  0.0146  0.1064
  815loPI   C4A11686   5.305  12.563   7.783 -0.1640  0.2300 -0.0218
  815loPI   C5A11687   5.326  12.620   8.174  0.2132 -0.1439 -0.1321
  815loPI   C6A11688   5.491  12.786   8.594  0.0794 -0.0498 -0.1002
  815loPI   C1B11689   5.256  13.065   6.665  0.1287 -0.3773 -0.1062
  815loPI   C2B11690   5.168  13.123   7.095 -0.0232  0.0469  0.0616
  815loPI   C3B11691   5.289  13.174   7.511  0.0245 -0.1759  0.1300
  815loPI   C4B11692   5.436  13.103   7.877 -0.0726  0.4130 -0.0871
  816loPI    C111693  10.117  17.262   5.443 -0.1578  0.1692 -0.1723
  816loPI    C211694   9.900  17.244   5.778  0.0301  0.0433 -0.0557
  816loPI    C311695   9.837  16.980   5.485  0.1996 -0.1585  0.0860
  816loPI   PO411696  10.369  17.351   5.492 -0.5872 -0.1492 -0.0539
  816loPI   GL111697  10.571  17.356   5.844 -0.5209  0.0914  0.1080
  816loPI   GL211698  10.451  17.630   5.918  0.1149 -0.0449 -0.1450
  816loPI   C1A11699  10.751  17.241   6.268 -0.1730 -0.1413  0.0016
  816loPI   C2A11700  10.954  17.458   6.552  0.0722 -0.0776  0.0562
  816loPI   C3A11701  11.016  17.523   6.925  0.2874  0.1528 -0.1453
  816loPI   C4A11702  11.190  17.564   7.274 -0.0008  0.0360 -0.2665
  816loPI   C5A11703  11.288  17.701   7.695  0.0795 -0.0029 -0.1259
  816loPI   C6A11704  11.374  17.919   8.116  0.0459  0.0295  0.2120
  816loPI   C1B11705  10.674  17.762   6.192 -0.3173  0.0211 -0.0910
  816loPI   C2B11706  10.815  17.898   6.556  0.1819 -0.3120 -0.0641
  816loPI   C3B11707  10.966  17.979   6.938  0.3941 -0.2268  0.0115
  816loPI   C4B11708  10.904  17.997   7.422  0.4460  0.1647 -0.2156
  817loPI    C111709   5.878   8.868   5.605 -0.2220 -0.0782  0.0064
  817loPI    C211710   5.844   8.478   5.525 -0.2623 -0.0597 -0.0668
  817loPI    C311711   5.872   8.742   5.226 -0.1130 -0.0174 -0.0158
  817loPI   PO411712   5.711   8.881   5.909 -0.1933  0.2126  0.2949
  817loPI   GL111713   5.812   8.820   6.328 -0.0533 -0.0350  0.2643
  817loPI   GL211714   5.772   8.522   6.449  0.1018 -0.0050  0.2384
  817loPI   C1A11715   5.557   8.961   6.615 -0.3050  0.0537 -0.0174
  817loPI   C2A11716   5.444   9.126   6.960 -0.2110  0.0783 -0.2967
  817loPI   C3A11717   5.366   9.145   7.360 -0.2366  0.0262 -0.1147
  817loPI   C4A11718   5.448   9.126   7.851 -0.0450 -0.1211 -0.0324
  817loPI   C5A11719   5.378   8.853   8.201  0.0524 -0.0075  0.0224
  817loPI   C6A11720   5.312   8.559   8.487  0.0041 -0.0591  0.2530
  817loPI   C1B11721   5.711   8.531   6.754  0.2064 -0.2751  0.0310
  817loPI   C2B11722   5.677   8.683   7.140 -0.1136  0.1525  0.0682
  817loPI   C3B11723   5.646   8.690   7.670 -0.0969  0.2012  0.0286
  817loPI   C4B11724   5.570   8.406   7.951 -0.0649  0.0250  0.2298
  818loPI    C111725   1.086  12.800   5.534  0.1086  0.0616 -0.0945
  818loPI    C211726   0.774  13.002   5.680  0.1152 -0.0022  0.0088
  818loPI    C311727   0.816  12.957   5.285  0.1475  0.2518 -0.0182
  818loPI   PO411728   1.263  12.852   5.686 -0.1358  0.2753  0.0077
  818loPI   GL111729   1.100  13.096   6.049 -0.2292  0.3075  0.2615
  818loPI   GL211730   0.898  13.291   6.235  0.0233 -0.1013  0.1415
  818loPI   C1A11731   1.029  12.942   6.518  0.1448 -0.0474  0.0701
  818loPI   C2A11732   0.995  12.979   6.914 -0.0678  0.0530  0.1318
  818loPI   C3A11733   1.050  12.942   7.358 -0.1112  0.0391  0.4000
  818loPI   C4A11734   1.128  12.963   7.797  0.0308  0.0332  0.1093
  818loPI   C5A11735   0.905  12.681   8.066  0.0932  0.0537  0.0243
  818loPI   C6A11736   0.888  12.789   8.503  0.0130 -0.0707 -0.0284
  818loPI   C1B11737   0.860  13.394   6.705 -0.0917  0.0230 -0.1903
  818loPI   C2B11738   0.908  13.501   7.156 -0.0015  0.0526 -0.0171
  818loPI   C3B11739   0.879  13.463   7.583 -0.0663 -0.3662 -0.0126
  818loPI   C4B11740   1.084  13.573   7.942  0.3755 -0.1126  0.0922
  819loPI    C111741   7.994   3.430   4.859  0.2341 -0.1514  0.2342
  819loPI    C211742   8.247   3.739   4.876 -0.0220  0.0816 -0.0668
  819loPI    C311743   8.316   3.438   4.622  0.1182 -0.0117  0.0795
  819loPI   PO411744   7.931   3.407   5.164 -0.3200 -0.1163 -0.1228
  819loPI   GL111745   7.765   3.521   5.608  0.0593 -0.1564 -0.1120
  819loPI   GL211746   7.820   3.254   5.824 -0.0579  0.0721 -0.0040
  819loPI   C1A11747   7.753   3.764   5.866 -0.1908 -0.0548  0.0116
  819loPI   C2A11748   7.899   3.898   6.267  0.1478 -0.0686  0.0052
  819loPI   C3A11749   8.019   3.951   6.627  0.2074  0.0244  0.2328
  819loPI   C4A11750   8.029   3.918   7.063  0.0116  0.1041 -0.0421
  819loPI   C5A11751   8.369   3.847   7.397  0.1494 -0.0694  0.0888
  819loPI   C6A11752   8.628   3.996   7.693 -0.4058  0.1546 -0.0288
  819loPI   C1B11753   7.985   3.421   6.191 -0.1463 -0.3328 -0.0904
  819loPI   C2B11754   8.167   3.465   6.533 -0.3070  0.1512 -0.0676
  819loPI   C3B11755   8.170   3.502   6.928 -0.0259  0.0985  0.0695
  819loPI   C4B11756   8.382   3.320   7.290  0.0876 -0.0286  0.2365
  820loPI    C111757   8.559  16.355   5.536  0.0296  0.1844  0.0624
  820loPI    C211758   8.578  16.542   5.184  0.0479  0.0411 -0.0134
  820loPI    C311759   8.398  16.186   5.212  0.1394  0.0030  0.1006
  820loPI   PO411760   8.488  16.500   5.689  0.3100 -0.1721  0.1527
  820loPI   GL111761   8.481  16.738   6.046 -0.0461  0.2959 -0.0249
  820loPI   GL211762   8.185  16.648   6.158 -0.0442  0.0938  0.2564
  820loPI   C1A11763   8.755  16.773   6.441  0.2825  0.0226  0.0362
  820loPI   C2A11764   9.118  16.694   6.711 -0.2170  0.2475  0.1490
  820loPI   C3A11765   9.139  16.674   7.157  0.0660 -0.0113  0.4006
  820loPI   C4A11766   9.348  16.838   7.544  0.0959  0.0294 -0.1015
  820loPI   C5A11767   9.495  17.102   7.874 -0.2797  0.1842 -0.0791
  820loPI   C6A11768   9.479  17.209   8.327  0.0349 -0.0453  0.1720
  820loPI   C1B11769   8.150  16.814   6.556  0.0562 -0.1797 -0.2684
  820loPI   C2B11770   8.143  17.019   7.041 -0.1361  0.1359  0.0262
  820loPI   C3B11771   8.123  17.372   7.238  0.1167  0.1006  0.0855
  820loPI   C4B11772   7.792  17.549   7.409  0.4272 -0.1455  0.0369
  821loPI    C111773   7.822  15.196   5.565  0.1221  0.0866  0.1114
  821loPI    C211774   8.000  15.323   5.230  0.0778  0.0543  0.0754
  821loPI    C311775   7.613  15.222   5.225  0.0816  0.0361  0.1323
  821loPI   PO411776   8.007  15.012   5.761  0.0636 -0.1053 -0.1091
  821loPI   GL111777   7.866  14.963   6.181  0.0668  0.1702 -0.4062
  821loPI   GL211778   8.130  14.978   6.445 -0.2580 -0.0280 -0.2079
  821loPI   C1A11779   7.601  14.892   6.643  0.1192  0.1166 -0.0763
  821loPI   C2A11780   7.519  15.045   7.137 -0.0631  0.0542  0.0171
  821loPI   C3A11781   7.648  15.017   7.577 -0.0499 -0.3050 -0.2140
  821loPI   C4A11782   7.787  15.146   7.946 -0.2787 -0.0333 -0.0250
  821loPI   C5A11783   8.159  15.335   8.132  0.3839 -0.1242  0.0287
  821loPI   C6A11784   8.744  15.573   7.995 -0.0211  0.0615  0.2274
  821loPI   C1B11785   8.087  14.921   6.852 -0.1272 -0.1000 -0.0345
  821loPI   C2B11786   8.106  14.921   7.252  0.0352  0.3030 -0.0547
  821loPI   C3B11787   8.228  15.160   7.605  0.0160 -0.0317 -0.3239
  821loPI   C4B11788   8.471  15.465   7.611  0.2404 -0.0771 -0.1422
  822loPI    C111789   6.062   0.244   5.652  0.1682  0.2504  0.0805
  822loPI    C211790   6.188   0.031   5.338 -0.0378  0.0828  0.1098
  822loPI    C311791   5.874   0.275   5.301 -0.0575  0.0690  0.1832
  822loPI   PO411792   6.210   0.392   5.675 -0.2090  0.2811  0.1239
  822loPI   GL111793   6.277   0.614   6.061  0.0778  0.0309 -0.1558
  822loPI   GL211794   5.960   0.611   6.109  0.2525  0.1339 -0.1523
  822loPI   C1A11795   6.227   0.906   6.314  0.1532 -0.1258  0.1094
  822loPI   C2A11796   6.249   1.214   6.633  0.1270  0.1185 -0.0013
  822loPI   C3A11797   6.264   1.173   7.022 -0.1095 -0.1909 -0.1048
  822loPI   C4A11798   6.330   1.073   7.513 -0.2217 -0.1064  0.2738
  822loPI   C5A11799   6.284   1.139   7.942 -0.1324 -0.1498  0.2636
  822loPI   C6A11800   6.238   1.510   8.214  0.2358 -0.0961 -0.3382
  822loPI   C1B11801   5.866   0.613   6.512 -0.2398 -0.1078 -0.0952
  822loPI   C2B11802   5.746   0.503   6.969  0.0627 -0.1356 -0.0629
  822loPI   C3B11803   5.823   0.525   7.358  0.2705  0.0338  0.1949
  822loPI   C4B11804   6.071   0.667   7.669  0.1365  0.2183  0.0883
  823loPI    C111805   9.269   3.437   5.314  0.2095 -0.1323  0.2229
  823loPI    C211806   9.091   3.558   4.977  0.3831 -0.0690  0.1526
  823loPI    C311807   9.163   3.169   5.037  0.0530 -0.1164  0.2661
  823loPI   PO411808   9.377   3.766   5.435  0.1414  0.1704 -0.1643
  823loPI   GL111809   9.413   3.896   5.840 -0.2077  0.0394 -0.1806
  823loPI   GL211810   9.208   4.158   5.927 -0.0437 -0.1672  0.2577
  823loPI   C1A11811   9.431   3.590   6.194  0.0822  0.0358  0.1907
  823loPI   C2A11812   9.530   3.381   6.476 -0.5217  0.0696 -0.4162
  823loPI   C3A11813   9.729   3.496   6.880  0.0674 -0.1936  0.0312
  823loPI   C4A11814   9.759   3.687   7.394  0.0547 -0.1641  0.0896
  823loPI   C5A11815   9.586   3.764   7.816  0.0451  0.3880  0.2547
  823loPI   C6A11816   9.247   3.946   8.129 -0.3253  0.2911 -0.1157
  823loPI   C1B11817   9.309   4.044   6.364  0.1110 -0.2812  0.2079
  823loPI   C2B11818   9.346   4.063   6.804  0.0254 -0.0242 -0.0223
  823loPI   C3B11819   9.378   4.303   7.124  0.1342  0.1500 -0.2838
  823loPI   C4B11820   9.492   4.447   7.544  0.4889 -0.1383  0.1279
  824loPI    C111821   4.946  15.911   5.945 -0.2137  0.0261 -0.2316
  824loPI    C211822   5.275  16.133   5.995 -0.3595  0.1725  0.1144
  824loPI    C311823   5.109  16.101   5.633  0.1738 -0.1090 -0.1176
  824loPI   PO411824   4.790  15.992   6.134  0.0667 -0.0727 -0.0182
  824loPI   GL111825   4.522  15.926   6.497 -0.5479 -0.0804 -0.1977
  824loPI   GL211826   4.806  15.832   6.619  0.3155 -0.1799 -0.0198
  824loPI   C1A11827   4.174  15.936   6.726 -0.1943  0.1750 -0.3337
  824loPI   C2A11828   4.054  15.799   7.061  0.0896  0.0332 -0.4344
  824loPI   C3A11829   3.973  15.732   7.454  0.1283  0.0838  0.2216
  824loPI   C4A11830   3.987  15.689   7.914 -0.2675  0.1045  0.1107
  824loPI   C5A11831   4.229  15.652   8.304  0.0127  0.0201 -0.1762
  824loPI   C6A11832   4.377  15.346   8.647 -0.2945 -0.1641  0.0526
  824loPI   C1B11833   4.562  15.832   7.010 -0.1905  0.3765 -0.0448
  824loPI   C2B11834   4.665  15.729   7.373 -0.0403 -0.0096  0.0201
  824loPI   C3B11835   4.975  15.869   7.711 -0.0250  0.0425  0.0020
  824loPI   C4B11836   5.200  15.905   8.039  0.0923 -0.0488 -0.1945
  825loPI    C111837  15.531  12.483   5.886  0.1103 -0.1040 -0.0497
  825loPI    C211838  15.438  12.298   5.544  0.1352 -0.0540 -0.0836
  825loPI    C311839  15.648  12.639   5.536 -0.0529  0.0646 -0.0307
  825loPI   PO411840  15.324  12.388   5.998 -0.2786  0.2672 -0.2458
  825loPI   GL111841  15.345  12.289   6.415  0.4674 -0.0439  0.0087
  825loPI   GL211842  15.589  12.590   6.397  0.0268  0.3013  0.1709
  825loPI   C1A11843  15.178  12.282   6.871 -0.0155 -0.1555 -0.0308
  825loPI   C2A11844  15.010  12.282   7.234  0.2176 -0.0530  0.0429
  825loPI   C3A11845  15.034  12.072   7.582 -0.2181  0.3061 -0.2164
  825loPI   C4A11846  15.364  12.102   7.872  0.1644 -0.2674  0.1036
  825loPI   C5A11847  15.737  12.123   8.134  0.0026 -0.1249 -0.1106
  825loPI   C6A11848  16.108  12.305   8.106  0.1642  0.1488  0.1885
  825loPI   C1B11849  15.837  12.383   6.707  0.0080  0.0991  0.0835
  825loPI   C2B11850  16.123  12.482   6.935  0.3097 -0.1919 -0.1076
  825loPI   C3B11851  16.269  12.384   7.381 -0.4019 -0.0193 -0.0284
  825loPI   C4B11852  16.254  12.593   7.745 -0.1868  0.3791 -0.0048
  826loPI    C111853  14.154  11.236   5.110  0.1176 -0.2288 -0.3167
  826loPI    C211854  14.542  11.295   5.030  0.1417  0.0893  0.0097
  826loPI    C311855  14.287  11.604   5.028 -0.0482 -0.0638  0.1232
  826loPI   PO411856  14.167  11.189   5.375  0.0882 -0.1268  0.1269
  826loPI   GL111857  14.154  10.960   5.782 -0.0996 -0.0826  0.0444
  826loPI   GL211858  14.351  10.904   5.917  0.0378 -0.0747  0.1253
  826loPI   C1A11859  13.904  10.864   6.195  0.0865 -0.1139  0.0157
  826loPI   C2A11860  13.983  10.904   6.665  0.0692 -0.1827  0.3819
  826loPI   C3A11861  14.063  10.817   7.107 -0.1210 -0.0621  0.1002
  826loPI   C4A11862  14.056  10.869   7.641 -0.0121 -0.1385  0.0337
  826loPI   C5A11863  14.074  10.786   8.039 -0.2153 -0.1764  0.3363
  826loPI   C6A11864  14.120  10.468   8.301 -0.1006 -0.1636  0.0695
  826loPI   C1B11865  14.329  11.071   6.364 -0.1138  0.1564  0.0158
  826loPI   C2B11866  13.904  11.417   6.453  0.0908  0.2280  0.1536
  826loPI   C3B11867  13.448  11.613   6.473 -0.1762 -0.0971  0.1254
  826loPI   C4B11868  13.127  11.779   6.805 -0.1060 -0.0782 -0.1003
  827loPI    C111869  11.740  12.480   5.647 -0.1843 -0.0014 -0.0977
  827loPI    C211870  11.898  12.845   5.601 -0.1834 -0.0096 -0.1615
  827loPI    C311871  12.042  12.537   5.391 -0.1394 -0.0602 -0.0582
  827loPI   PO411872  11.702  12.463   5.915  0.0618  0.3320  0.1402
  827loPI   GL111873  11.281  12.496   6.165 -0.1287  0.0117  0.3118
  827loPI   GL211874  11.463  12.227   6.276  0.2387  0.1648 -0.0012
  827loPI   C1A11875  11.554  12.657   6.506  0.0043 -0.0892 -0.2383
  827loPI   C2A11876  11.664  12.710   6.971  0.3284  0.1424 -0.0638
  827loPI   C3A11877  11.627  12.845   7.325 -0.2480  0.2266  0.1279
  827loPI   C4A11878  11.630  13.026   7.723  0.1164 -0.2674 -0.0401
  827loPI   C5A11879  11.590  13.400   7.901 -0.1579  0.2698 -0.1002
  827loPI   C6A11880  11.606  13.703   8.177  0.1996  0.2931 -0.1338
  827loPI   C1B11881  11.663  12.195   6.679 -0.2470 -0.0131  0.2309
  827loPI   C2B11882  11.726  12.222   7.107 -0.2656 -0.2670  0.1093
  827loPI   C3B11883  11.833  12.353   7.538  0.1252  0.0417  0.2858
  827loPI   C4B11884  11.996  12.575   7.861  0.1052  0.0706  0.1679
  828loPI    C111885   2.056  17.125   5.705  0.1084 -0.0982 -0.0234
  828loPI    C211886   1.783  17.314   5.484 -0.0231 -0.1903  0.0588
  828loPI    C311887   2.033  17.053   5.313  0.1424  0.0366 -0.0505
  828loPI   PO411888   1.973  17.050   5.883  0.1343  0.1354  0.2222
  828loPI   GL111889   1.894  16.918   6.227  0.2262  0.0753 -0.4270
  828loPI   GL211890   1.526  16.761   6.200  0.1153  0.2040  0.0403
  828loPI   C1A11891   1.966  17.047   6.678 -0.3033  0.0820 -0.0684
  828loPI   C2A11892   2.114  17.420   6.795  0.0959 -0.1050  0.0687
  828loPI   C3A11893   1.958  17.721   7.100  0.1590 -0.0185 -0.2619
  828loPI   C4A11894   2.168  17.821   7.500  0.0597 -0.0065 -0.1875
  828loPI   C5A11895   2.196  17.885   7.892  0.0052 -0.2007 -0.0562
  828loPI   C6A11896   2.244  17.991   8.329  0.2271 -0.1650  0.0026
  828loPI   C1B11897   1.494  16.968   6.567  0.2887 -0.4010 -0.1449
  828loPI   C2B11898   1.563  16.921   7.016  0.1358 -0.3330  0.0093
  828loPI   C3B11899   1.627  17.070   7.508  0.0910  0.0573 -0.1941
  828loPI   C4B11900   1.940  17.386   7.757  0.0378 -0.1317 -0.1138
  829loPI    C111901  16.883  15.937   5.436 -0.0016  0.2262  0.1431
  829loPI    C211902  16.827  15.545   5.379  0.1366  0.2449 -0.1370
  829loPI    C311903  16.587  15.809   5.199  0.1368  0.2927 -0.0678
  829loPI   PO411904  17.024  15.956   5.776  0.0919  0.0508 -0.1111
  829loPI   GL111905  16.979  15.961   6.186 -0.0758 -0.0398  0.0860
  829loPI   GL211906  16.690  16.093   6.231 -0.1608  0.2817  0.3105
  829loPI   C1A11907  16.882  15.830   6.615 -0.3948  0.1039  0.2916
  829loPI   C2A11908  16.683  15.874   7.035  0.0081  0.1486 -0.3414
  829loPI   C3A11909  16.704  16.123   7.408  0.2021  0.1817 -0.1665
  829loPI   C4A11910  16.695  16.385   7.762 -0.1244  0.2911  0.0391
  829loPI   C5A11911  17.008  16.563   8.070 -0.1032 -0.0808  0.4912
  829loPI   C6A11912  17.403  16.444   8.177 -0.2871  0.3024 -0.1310
  829loPI   C1B11913  16.551  16.216   6.656 -0.1125  0.0368 -0.0326
  829loPI   C2B11914  16.391  16.285   7.061 -0.1841  0.2256 -0.1092
  829loPI   C3B11915  16.197  16.117   7.402 -0.1479  0.1850 -0.1146
  829loPI   C4B11916  16.163  16.252   7.815  0.0975 -0.0660  0.2206
  830loPI    C111917   4.363   4.723   6.068  0.0661 -0.1442  0.0092
  830loPI    C211918   3.989   4.599   6.138  0.0759 -0.0583  0.2228
  830loPI    C311919   4.065   4.848   5.834 -0.0617  0.0299  0.2600
  830loPI   PO411920   4.487   4.547   6.032  0.1101  0.1537 -0.3016
  830loPI   GL111921   4.796   4.567   6.362  0.1787 -0.0404 -0.2758
  830loPI   GL211922   4.729   4.264   6.529  0.0240  0.2520 -0.0663
  830loPI   C1A11923   4.904   4.674   6.854  0.0813  0.0278 -0.0266
  830loPI   C2A11924   4.990   4.582   7.336  0.1459 -0.0278 -0.0455
  830loPI   C3A11925   4.728   4.512   7.798  0.3395 -0.2288 -0.1963
  830loPI   C4A11926   4.601   4.561   8.159 -0.0302 -0.1032  0.1840
  830loPI   C5A11927   4.353   4.583   8.341  0.0670  0.0535  0.0219
  830loPI   C6A11928   4.096   4.440   8.645 -0.0088  0.1711 -0.1192
  830loPI   C1B11929   4.874   4.226   6.982  0.0149  0.2747 -0.0128
  830loPI   C2B11930   4.716   4.195   7.403 -0.1692 -0.0315  0.1020
  830loPI   C3B11931   4.961   4.073   7.807  0.1340  0.0130  0.1258
  830loPI   C4B11932   5.414   3.876   7.957  0.3215 -0.0326 -0.0047
  831loPI    C111933  11.836  16.641   5.600  0.0394 -0.0970  0.1019
  831loPI    C211934  11.857  16.552   5.989 -0.1101 -0.0166  0.1292
  831loPI    C311935  11.554  16.413   5.768  0.0141 -0.1230  0.0244
  831loPI   PO411936  11.875  16.954   5.631 -0.0854 -0.1184 -0.0148
  831loPI   GL111937  11.788  17.176   5.866  0.2513  0.4861  0.2666
  831loPI   GL211938  11.643  17.460   5.944  0.0117 -0.0037  0.1070
  831loPI   C1A11939  11.863  16.986   6.305  0.2277 -0.0198 -0.0380
  831loPI   C2A11940  11.880  17.022   6.752 -0.1146 -0.1327  0.0734
  831loPI   C3A11941  12.007  17.015   7.162 -0.0744 -0.3825 -0.1218
  831loPI   C4A11942  11.974  17.130   7.513 -0.1714 -0.0414 -0.1951
  831loPI   C5A11943  12.180  17.399   7.826  0.2569  0.0067  0.2603
  831loPI   C6A11944  12.446  17.719   8.016 -0.3712  0.0445 -0.2171
  831loPI   C1B11945  11.809  17.429   6.440  0.3051 -0.3832 -0.1276
  831loPI   C2B11946  11.765  17.466   6.912 -0.0008 -0.0464 -0.1889
  831loPI   C3B11947  11.696  17.466   7.238 -0.1812 -0.2341 -0.0546
  831loPI   C4B11948  11.789  17.601   7.640  0.1268 -0.0164 -0.2242
  832loPI    C111949   0.057   1.576   5.366 -0.1683  0.1385  0.0267
  832loPI    C211950   0.250   1.925   5.405  0.1012  0.0106 -0.1262
  832loPI    C311951   0.050   1.844   5.069 -0.1706  0.1164  0.0069
  832loPI   PO411952  -0.041   1.527   5.639 -0.2383 -0.1722  0.1135
  832loPI   GL111953  -0.214   1.536   6.010  0.1145 -0.1531  0.0002
  832loPI   GL211954   0.038   1.700   6.143  0.1257 -0.0911 -0.2155
  832loPI   C1A11955  -0.417   1.682   6.384  0.1433 -0.0323 -0.1417
  832loPI   C2A11956  -0.446   1.706   6.841  0.1356  0.1382 -0.3887
  832loPI   C3A11957  -0.494   1.741   7.267  0.2499 -0.0333  0.3599
  832loPI   C4A11958  -0.371   1.595   7.705 -0.0952 -0.2638 -0.0849
  832loPI   C5A11959  -0.055   1.757   7.839 -0.1244 -0.1859  0.0643
  832loPI   C6A11960   0.099   2.151   8.043 -0.1488 -0.0169  0.0310
  832loPI   C1B11961   0.050   1.788   6.619 -0.0958  0.1983  0.2631
  832loPI   C2B11962   0.024   1.831   7.095 -0.1874 -0.0549  0.0652
  832loPI   C3B11963  -0.082   2.035   7.408 -0.0433 -0.0737  0.2719
  832loPI   C4B11964  -0.470   2.201   7.543 -0.1670  0.1446 -0.0622
  833loPI    C111965   6.388   2.862   5.597 -0.0430 -0.3737  0.1708
  833loPI    C211966   6.469   2.475   5.535 -0.1583 -0.3403 -0.2153
  833loPI    C311967   6.466   2.730   5.227  0.0064 -0.0122  0.0486
  833loPI   PO411968   6.516   2.953   5.757 -0.2642  0.0621  0.0697
  833loPI   GL111969   6.604   2.711   6.114  0.2270 -0.3934  0.1392
  833loPI   GL211970   6.880   2.718   6.069 -0.2971  0.0605  0.0561
  833loPI   C1A11971   6.770   2.804   6.581 -0.2433  0.2780  0.1376
  833loPI   C2A11972   6.956   2.915   6.991 -0.2284 -0.2902  0.2070
  833loPI   C3A11973   6.988   2.873   7.411  0.2932 -0.0128 -0.2207
  833loPI   C4A11974   7.057   2.838   7.859 -0.1218 -0.0824 -0.0458
  833loPI   C5A11975   7.369   2.423   7.975 -0.1424 -0.2546  0.1494
  833loPI   C6A11976   7.760   2.425   8.111  0.0466 -0.0066  0.0102
  833loPI   C1B11977   7.203   2.681   6.261  0.1729 -0.2180 -0.0437
  833loPI   C2B11978   7.389   2.734   6.673 -0.0084  0.4302  0.2695
  833loPI   C3B11979   7.511   2.679   7.080 -0.1347  0.0124  0.1376
  833loPI   C4B11980   7.541   2.639   7.536 -0.1010 -0.3850 -0.2602
  834loPI    C111981   0.197  16.875   5.697 -0.1276  0.1905  0.0215
  834loPI    C211982   0.327  17.110   5.400  0.2897 -0.1037 -0.0367
  834loPI    C311983   0.254  16.722   5.332  0.0414 -0.0948  0.1638
  834loPI   PO411984   0.317  16.978   5.902  0.5976 -0.0519 -0.0048
  834loPI   GL111985   0.357  16.868   6.313  0.0487  0.1020  0.2133
  834loPI   GL211986   0.106  17.098   6.361  0.0748  0.0382  0.0200
  834loPI   C1A11987   0.615  16.887   6.679  0.2824  0.3332 -0.0239
  834loPI   C2A11988   0.690  16.866   7.124  0.2287 -0.0781 -0.1388
  834loPI   C3A11989   0.724  16.899   7.529  0.1898  0.0105 -0.0835
  834loPI   C4A11990   0.763  17.139   7.916 -0.1493  0.0561 -0.1047
  834loPI   C5A11991   0.990  17.536   8.013 -0.1486  0.1608 -0.1097
  834loPI   C6A11992   1.287  17.910   8.085 -0.1731 -0.1459 -0.0161
  834loPI   C1B11993   0.107  17.050   6.808 -0.1264  0.2852  0.0797
  834loPI   C2B11994   0.248  17.144   7.250  0.1719  0.0534 -0.1079
  834loPI   C3B11995   0.301  17.168   7.676 -0.0184 -0.3056  0.1781
  834loPI   C4B11996   0.337  17.203   8.170  0.1001  0.1482 -0.2251
  835loPI    C111997   9.461  13.165   5.814  0.0223 -0.0806 -0.0199
  835loPI    C211998   9.745  13.384   5.639 -0.0578  0.1742  0.1633
  835loPI    C311999   9.629  13.039   5.474  0.1667  0.2001 -0.0553
  835loPI   PO412000   9.266  13.379   5.922 -0.0638 -0.1229 -0.2711
  835loPI   GL112001   9.418  13.710   6.157  0.0418  0.0291 -0.0838
  835loPI   GL212002   9.616  13.449   6.236  0.2839  0.1983 -0.0123
  835loPI   C1A12003   9.371  13.694   6.655  0.2814  0.1713  0.0122
  835loPI   C2A12004   9.576  13.707   7.142  0.2001 -0.1396 -0.1670
  835loPI   C3A12005   9.519  13.757   7.657 -0.0414 -0.2498  0.1302
  835loPI   C4A12006   9.287  13.648   7.960 -0.0829 -0.3231 -0.0978
  835loPI   C5A12007   9.100  13.396   8.222 -0.2711  0.0986  0.1579
  835loPI   C6A12008   8.763  13.168   8.246 -0.2067 -0.0952 -0.0407
  835loPI   C1B12009   9.813  13.516   6.643  0.3151 -0.1942  0.1766
  835loPI   C2B12010  10.054  13.523   6.912 -0.0545  0.0340 -0.1173
  835loPI   C3B12011   9.968  13.461   7.362  0.0120  0.1172  0.0865
  835loPI   C4B12012   9.987  13.327   7.705 -0.0731 -0.2972 -0.1229
  836loPI    C112013  10.819  11.790   5.711 -0.3700 -0.0740 -0.2026
  836loPI    C212014  10.728  11.402   5.741  0.0925 -0.1846 -0.1574
  836loPI    C312015  10.843  11.553   5.389 -0.0298 -0.1010 -0.1618
  836loPI   PO412016  10.718  11.879   5.952 -0.0481 -0.0961 -0.0323
  836loPI   GL112017  10.773  12.039   6.362 -0.0309 -0.1319  0.0717
  836loPI   GL212018  10.758  12.370   6.254 -0.2543  0.0334  0.1947
  836loPI   C1A12019  10.711  12.120   6.840 -0.0114 -0.2618 -0.0075
  836loPI   C2A12020  10.609  12.174   7.187 -0.2678 -0.1359  0.0482
  836loPI   C3A12021  10.468  12.293   7.504 -0.0375  0.1789  0.1241
  836loPI   C4A12022  10.559  12.014   7.892 -0.1672  0.0347  0.4525
  836loPI   C5A12023  10.899  11.751   8.171 -0.3322 -0.1587 -0.0392
  836loPI   C6A12024  11.059  11.285   8.152  0.0103  0.0946  0.0259
  836loPI   C1B12025  10.983  12.472   6.560  0.0989  0.1077 -0.0482
  836loPI   C2B12026  11.135  12.740   6.883 -0.3040  0.0247  0.1054
  836loPI   C3B12027  11.353  13.147   7.016 -0.1581  0.0682  0.1842
  836loPI   C4B12028  11.541  13.334   7.377 -0.2516 -0.0340  0.0072
  837loPI    C112029  10.830   6.975   5.151  0.2212 -0.0223 -0.1253
  837loPI    C212030  10.949   7.253   4.890  0.2261 -0.0089 -0.1088
  837loPI    C312031  10.992   6.865   4.803 -0.1649 -0.0108 -0.3137
  837loPI   PO412032  10.952   7.118   5.376  0.1555  0.2525 -0.0363
  837loPI   GL112033  11.040   7.006   5.826 -0.0081 -0.1452 -0.2021
  837loPI   GL212034  11.339   7.220   5.859 -0.0645  0.0845  0.1349
  837loPI   C1A12035  11.292   6.868   6.197  0.0154  0.0909  0.0227
  837loPI   C2A12036  11.323   7.073   6.583 -0.0110  0.0928 -0.1016
  837loPI   C3A12037  11.157   7.347   6.897 -0.3338 -0.0051 -0.0192
  837loPI   C4A12038  11.070   7.250   7.312 -0.1902  0.1538  0.3669
  837loPI   C5A12039  11.168   7.133   7.716  0.2676 -0.1363 -0.0117
  837loPI   C6A12040  10.934   6.735   7.951 -0.0611  0.2350 -0.1150
  837loPI   C1B12041  11.058   7.350   6.229  0.1088  0.1865  0.0856
  837loPI   C2B12042  10.736   7.324   6.569 -0.0745 -0.2873 -0.0851
  837loPI   C3B12043  10.656   7.235   7.028 -0.0064 -0.1810  0.1520
  837loPI   C4B12044  10.504   7.356   7.384  0.1931  0.2179  0.0340
  838loPI    C112045  16.092   7.838   5.465  0.1599  0.1511  0.0275
  838loPI    C212046  16.139   8.170   5.247  0.2099  0.1060 -0.0309
  838loPI    C312047  16.377   7.855   5.185  0.3309  0.1497  0.1992
  838loPI   PO412048  16.085   7.965   5.782  0.2102  0.2884 -0.4540
  838loPI   GL112049  16.039   7.781   6.169 -0.1561  0.1922 -0.0030
  838loPI   GL212050  16.252   7.632   6.188 -0.0640  0.4510  0.0047
  838loPI   C1A12051  15.965   7.849   6.611 -0.1174 -0.1236  0.2732
  838loPI   C2A12052  16.051   7.757   6.951  0.1251  0.3409  0.1039
  838loPI   C3A12053  15.918   7.757   7.395 -0.2924  0.0842 -0.2810
  838loPI   C4A12054  15.690   7.606   7.678  0.5311  0.2017  0.0008
  838loPI   C5A12055  15.593   7.310   7.954 -0.0979 -0.0975  0.0753
  838loPI   C6A12056  15.595   7.067   8.233  0.1674 -0.2218  0.0362
  838loPI   C1B12057  16.386   7.549   6.648  0.2698  0.1048 -0.2488
  838loPI   C2B12058  16.512   7.582   7.010 -0.2140 -0.3876  0.1428
  838loPI   C3B12059  16.383   7.589   7.328 -0.1727 -0.1099  0.0282
  838loPI   C4B12060  16.284   7.816   7.747  0.0476 -0.0135  0.1935
  839loPI    C112061   4.941  10.921   5.753  0.0169 -0.1501  0.0468
  839loPI    C212062   5.009  11.293   5.622 -0.1402 -0.0668  0.1956
  839loPI    C312063   4.656  11.118   5.553  0.0077 -0.2729 -0.0624
  839loPI   PO412064   5.046  10.950   5.982 -0.1135 -0.1515 -0.0800
  839loPI   GL112065   5.007  11.105   6.485 -0.3752 -0.0700  0.7051
  839loPI   GL212066   5.314  11.130   6.384 -0.1771 -0.0228  0.0345
  839loPI   C1A12067   4.787  10.846   6.753 -0.2799 -0.2699  0.2867
  839loPI   C2A12068   4.894  10.784   7.223 -0.0349  0.0144 -0.2149
  839loPI   C3A12069   4.872  10.862   7.665  0.1228  0.1157 -0.1043
  839loPI   C4A12070   4.982  11.132   7.936  0.0429  0.0429 -0.0131
  839loPI   C5A12071   4.825  11.293   8.277  0.0702  0.0640  0.1684
  839loPI   C6A12072   4.567  11.401   8.553 -0.1064 -0.0455  0.0510
  839loPI   C1B12073   5.302  10.870   6.744  0.2433 -0.1940  0.0957
  839loPI   C2B12074   5.447  10.728   7.142 -0.0184  0.0564  0.4244
  839loPI   C3B12075   5.670  10.646   7.472  0.1872  0.0888 -0.1619
  839loPI   C4B12076   5.601  10.400   7.848  0.0662 -0.2049 -0.3195
  840loPI    C112077  15.764  17.698   5.830 -0.1546  0.1240 -0.0537
  840loPI    C212078  15.597  17.891   5.522  0.1089  0.1650 -0.1739
  840loPI    C312079  15.852  18.083   5.764  0.1475  0.0462 -0.1197
  840loPI   PO412080  15.807  17.407   5.731  0.1019 -0.4066 -0.0033
  840loPI   GL112081  15.905  16.991   5.798 -0.2423 -0.1720  0.0547
  840loPI   GL212082  15.696  16.719   5.923  0.2178 -0.1779 -0.1493
  840loPI   C1A12083  15.911  17.050   6.295  0.0220  0.1839  0.0928
  840loPI   C2A12084  15.806  16.996   6.740  0.0717 -0.0576  0.0049
  840loPI   C3A12085  15.824  17.114   7.167 -0.0091 -0.1082 -0.0821
  840loPI   C4A12086  15.836  17.293   7.582 -0.1434  0.0987 -0.2493
  840loPI   C5A12087  15.538  17.517   7.891  0.2183  0.1069  0.3606
  840loPI   C6A12088  15.483  17.921   8.007  0.0354  0.0056  0.1448
  840loPI   C1B12089  15.658  16.484   6.245  0.0705  0.1013 -0.1294
  840loPI   C2B12090  15.684  16.523   6.672 -0.4825 -0.1013 -0.0138
  840loPI   C3B12091  15.551  16.644   7.105  0.0196  0.1224 -0.0717
  840loPI   C4B12092  15.534  16.876   7.514  0.0945  0.1148 -0.2184
  841loPI    C112093  13.986  10.230   4.879 -0.1220 -0.0553 -0.0080
  841loPI    C212094  14.198  10.518   4.699  0.1431 -0.2305  0.0187
  841loPI    C312095  13.852  10.394   4.540  0.0769  0.0317 -0.0457
  841loPI   PO412096  13.939  10.254   5.164 -0.1243  0.0658  0.0828
  841loPI   GL112097  13.857  10.337   5.565  0.1183 -0.0509  0.0330
  841loPI   GL212098  14.114  10.445   5.665  0.2134 -0.0744  0.0365
  841loPI   C1A12099  13.777   9.998   5.874 -0.1231 -0.2356 -0.0054
  841loPI   C2A12100  13.824   9.953   6.368  0.1963  0.1252 -0.0746
  841loPI   C3A12101  13.710   9.951   6.747 -0.0908 -0.2382 -0.1080
  841loPI   C4A12102  13.740   9.956   7.167 -0.0337 -0.0335 -0.2912
  841loPI   C5A12103  13.686  10.119   7.496 -0.2614 -0.3954 -0.0812
  841loPI   C6A12104  13.748  10.455   7.887  0.1365  0.2591 -0.2198
  841loPI   C1B12105  14.039  10.429   6.052 -0.0614 -0.0529 -0.1189
  841loPI   C2B12106  14.066  10.472   6.522 -0.0667  0.2530  0.1064
  841loPI   C3B12107  13.890  10.379   6.888  0.0429  0.0191  0.2091
  841loPI   C4B12108  14.079  10.371   7.316 -0.0288 -0.1127  0.3026
  842loPI    C112109   5.774  16.758   5.876  0.0309 -0.0235 -0.0108
  842loPI    C212110   5.863  16.754   5.486  0.2420  0.0822  0.0350
  842loPI    C312111   6.089  16.550   5.746  0.1953  0.1398  0.1213
  842loPI   PO412112   5.651  16.913   5.956 -0.1132 -0.0596 -0.0417
  842loPI   GL112113   5.586  17.167   6.383  0.0462 -0.4852  0.3536
  842loPI   GL212114   5.845  17.237   6.374  0.1540  0.1122  0.0371
  842loPI   C1A12115   5.421  17.137   6.770  0.2761  0.1137 -0.0519
  842loPI   C2A12116   5.345  17.173   7.150 -0.0392 -0.1795  0.2264
  842loPI   C3A12117   5.363  17.300   7.501  0.0675  0.4222 -0.0399
  842loPI   C4A12118   5.513  17.255   7.931 -0.0467  0.1558  0.2788
  842loPI   C5A12119   5.634  17.083   8.437  0.0739  0.1737  0.1210
  842loPI   C6A12120   5.944  16.987   8.853 -0.1246 -0.1064  0.0819
  842loPI   C1B12121   5.887  16.973   6.811 -0.0888  0.0039  0.0522
  842loPI   C2B12122   5.821  16.884   7.124  0.3243 -0.0278 -0.0209
  842loPI   C3B12123   5.789  17.002   7.555 -0.0077 -0.0524 -0.3769
  842loPI   C4B12124   5.685  16.769   8.021 -0.0139  0.1067 -0.1404
  843loPI    C112125  10.191   6.451   5.458  0.1519 -0.0520  0.2697
  843loPI    C212126  10.323   6.763   5.245  0.3062 -0.1091  0.2803
  843loPI    C312127  10.227   6.421   5.061  0.1452 -0.0587  0.2696
  843loPI   PO412128  10.277   6.554   5.692 -0.0566  0.3796  0.1658
  843loPI   GL112129  10.570   6.220   5.838  0.0097  0.4311  0.1201
  843loPI   GL212130  10.293   6.027   5.994 -0.0517 -0.1192  0.1316
  843loPI   C1A12131  10.767   6.102   6.301  0.0403  0.1014  0.0310
  843loPI   C2A12132  10.873   6.155   6.661  0.1423  0.0241  0.1248
  843loPI   C3A12133  10.987   6.286   7.107  0.1367  0.2113 -0.0220
  843loPI   C4A12134  11.120   6.627   7.429  0.0397  0.2663 -0.2597
  843loPI   C5A12135  11.452   6.715   7.801 -0.0846  0.0636 -0.1136
  843loPI   C6A12136  11.301   6.912   8.215 -0.1080  0.0607  0.0450
  843loPI   C1B12137  10.234   5.865   6.359  0.0689  0.0251 -0.3234
  843loPI   C2B12138  10.267   5.698   6.719 -0.0014  0.3883  0.1867
  843loPI   C3B12139  10.238   5.544   7.086 -0.0248 -0.2257  0.0572
  843loPI   C4B12140  10.268   5.591   7.467 -0.3354 -0.0299  0.1712
  844loPI    C112141  10.714   6.573   5.485  0.0162 -0.0502 -0.2162
  844loPI    C212142  10.639   6.207   5.344  0.0602 -0.0125 -0.3388
  844loPI    C312143  10.709   6.508   5.091  0.1341  0.0574 -0.2361
  844loPI   PO412144  10.992   6.544   5.662  0.0063 -0.2222 -0.0315
  844loPI   GL112145  11.059   6.352   5.995 -0.1756 -0.0273  0.0350
  844loPI   GL212146  11.163   6.028   6.026  0.3847  0.0891 -0.0255
  844loPI   C1A12147  11.209   6.497   6.462  0.0612  0.1189 -0.1167
  844loPI   C2A12148  11.303   6.573   6.828 -0.1753 -0.1490 -0.0466
  844loPI   C3A12149  11.444   6.947   7.032  0.0988  0.0808 -0.0471
  844loPI   C4A12150  11.597   6.993   7.436  0.0137 -0.2234 -0.0355
  844loPI   C5A12151  11.850   7.252   7.703  0.0275 -0.1461 -0.0655
  844loPI   C6A12152  12.079   7.684   7.669 -0.3312  0.1246 -0.3065
  844loPI   C1B12153  11.191   5.684   6.328  0.1756 -0.2442 -0.0100
  844loPI   C2B12154  11.213   5.710   6.839 -0.1130  0.1825 -0.2562
  844loPI   C3B12155  11.195   5.801   7.319 -0.0375 -0.2156 -0.1819
  844loPI   C4B12156  11.085   6.162   7.619 -0.1246 -0.0751 -0.1238
  845loPI    C112157  14.439  10.782   5.420 -0.0902 -0.1652  0.0441
  845loPI    C212158  14.355  10.462   5.195 -0.2052 -0.0931 -0.0165
  845loPI    C312159  14.454  10.809   5.021  0.3390 -0.2047  0.0530
  845loPI   PO412160  14.624  10.644   5.575  0.0751 -0.2618  0.0828
  845loPI   GL112161  14.805  10.658   6.014  0.3189 -0.0613  0.1363
  845loPI   GL212162  14.787  10.999   6.194  0.1597  0.1575  0.0806
  845loPI   C1A12163  14.555  10.587   6.357  0.1792  0.1685 -0.3479
  845loPI   C2A12164  14.432  10.643   6.845 -0.1254 -0.0460 -0.1205
  845loPI   C3A12165  14.555  10.626   7.289 -0.0828 -0.0861 -0.1559
  845loPI   C4A12166  14.917  10.598   7.530  0.2648 -0.1313  0.0761
  845loPI   C5A12167  15.360  10.774   7.583  0.0153 -0.0506  0.0785
  845loPI   C6A12168  15.725  10.759   7.752 -0.1764 -0.1311  0.2048
  845loPI   C1B12169  14.805  11.047   6.611  0.4983 -0.0572  0.0215
  845loPI   C2B12170  14.635  11.109   7.024  0.0972  0.0194  0.0637
  845loPI   C3B12171  14.450  11.077   7.428  0.1791 -0.0082 -0.0625
  845loPI   C4B12172  14.523  10.736   7.819  0.2777  0.2531  0.0197
  846loPI    C112173   2.747   9.439   5.672 -0.1531  0.0082 -0.2399
  846loPI    C212174   2.464   9.675   5.827 -0.0171 -0.1417  0.2589
  846loPI    C312175   2.363   9.325   5.662 -0.1638  0.0169  0.0032
  846loPI   PO412176   2.960   9.471   5.861  0.1149  0.3626 -0.1293
  846loPI   GL112177   2.972   9.638   6.268  0.2465  0.1611  0.0132
  846loPI   GL212178   2.660   9.769   6.359  0.0664  0.0247  0.0380
  846loPI   C1A12179   3.000   9.645   6.744  0.5715  0.0641 -0.1115
  846loPI   C2A12180   3.101   9.588   7.170  0.0020  0.2175 -0.2035
  846loPI   C3A12181   2.884   9.650   7.586  0.0914 -0.1912  0.0875
  846loPI   C4A12182   2.760   9.994   7.886 -0.2574 -0.3027  0.2130
  846loPI   C5A12183   2.603   9.980   8.332 -0.2958  0.2889 -0.0569
  846loPI   C6A12184   2.562  10.318   8.620 -0.1873  0.0815  0.1185
  846loPI   C1B12185   2.787  10.163   6.558  0.2012  0.2622  0.2027
  846loPI   C2B12186   2.918  10.167   6.947  0.1319 -0.0753  0.0592
  846loPI   C3B12187   2.708   9.898   7.070  0.0780  0.0115 -0.0168
  846loPI   C4B12188   2.529   9.523   6.819 -0.0411  0.1370  0.1399
  847loPI    C112189  14.651   7.483   5.445  0.0156 -0.1055  0.1515
  847loPI    C212190  14.421   7.386   5.133  0.1000  0.5754 -0.1396
  847loPI    C312191  14.810   7.293   5.131 -0.0411 -0.0678  0.0997
  847loPI   PO412192  14.444   7.643   5.600 -0.0669  0.2357  0.0389
  847loPI   GL112193  14.236   7.610   5.918  0.2711 -0.1341 -0.1694
  847loPI   GL212194  13.912   7.663   5.766 -0.0590  0.2269 -0.0355
  847loPI   C1A12195  14.223   7.685   6.364  0.0072  0.1528 -0.1986
  847loPI   C2A12196  14.180   7.774   6.798  0.3499 -0.0730  0.0061
  847loPI   C3A12197  14.276   7.967   7.180 -0.0902  0.0423 -0.3079
  847loPI   C4A12198  14.286   8.033   7.611 -0.0170  0.0599 -0.0013
  847loPI   C5A12199  14.317   8.380   7.596  0.2100  0.2864  0.0866
  847loPI   C6A12200  14.392   8.736   7.882 -0.0355  0.1398  0.1777
  847loPI   C1B12201  13.700   7.734   6.157 -0.0271  0.0308  0.3713
  847loPI   C2B12202  13.687   7.768   6.559  0.1384  0.0636  0.0548
  847loPI   C3B12203  13.692   7.769   6.925 -0.2173 -0.2241 -0.0486
  847loPI   C4B12204  13.687   7.836   7.303  0.0716 -0.0884 -0.2630
  848loPI    C112205   7.929  12.664   5.981 -0.1190 -0.1991  0.0618
  848loPI    C212206   7.685  12.522   5.698 -0.1883 -0.2360  0.1395
  848loPI    C312207   7.892  12.858   5.634 -0.3054 -0.1716  0.0958
  848loPI   PO412208   7.789  12.576   6.228  0.1549 -0.2268 -0.2331
  848loPI   GL112209   7.919  12.413   6.470 -0.1428 -0.0524  0.0696
  848loPI   GL212210   8.169  12.209   6.493  0.1780 -0.1991 -0.3727
  848loPI   C1A12211   7.950  12.594   6.891 -0.0627 -0.2484  0.1556
  848loPI   C2A12212   7.938  12.619   7.292 -0.0194 -0.0005 -0.0300
  848loPI   C3A12213   7.949  12.746   7.737  0.1360 -0.2900  0.3332
  848loPI   C4A12214   8.131  12.733   8.049  0.0158  0.1474 -0.2624
  848loPI   C5A12215   8.461  12.759   8.378 -0.1078 -0.0888 -0.0147
  848loPI   C6A12216   8.526  13.108   8.700 -0.0405  0.0788  0.1803
  848loPI   C1B12217   8.212  12.150   6.924  0.0192  0.0010 -0.0708
  848loPI   C2B12218   8.170  12.147   7.358  0.1232  0.2548  0.0401
  848loPI   C3B12219   8.183  12.289   7.751  0.2212 -0.2947  0.1660
  848loPI   C4B12220   8.508  12.318   8.029 -0.0558  0.0958 -0.2525
  849loPI    C112221   7.351   7.128   5.435 -0.0526 -0.1712 -0.2057
  849loPI    C212222   7.620   7.397   5.312 -0.1055 -0.0525 -0.0649
  849loPI    C312223   7.404   7.193   5.044 -0.1166  0.0975 -0.1713
  849loPI   PO412224   7.223   7.226   5.641  0.1360 -0.0368  0.1588
  849loPI   GL112225   7.087   7.350   6.081 -0.1499  0.1447 -0.0435
  849loPI   GL212226   7.302   7.609   6.223 -0.2040  0.1453  0.3315
  849loPI   C1A12227   6.935   7.188   6.475  0.0417 -0.0877 -0.1465
  849loPI   C2A12228   7.008   7.288   6.934  0.0124  0.0769 -0.1974
  849loPI   C3A12229   7.023   7.214   7.291  0.0632 -0.1899  0.0986
  849loPI   C4A12230   6.931   7.109   7.716 -0.0376 -0.1012  0.3297
  849loPI   C5A12231   6.561   7.218   8.031  0.0806  0.0465  0.1554
  849loPI   C6A12232   6.382   7.558   8.307 -0.4302 -0.0802  0.0598
  849loPI   C1B12233   7.381   7.598   6.716  0.1555  0.1276 -0.1459
  849loPI   C2B12234   7.352   7.683   7.065 -0.0289  0.0437 -0.0363
  849loPI   C3B12235   7.256   7.613   7.531 -0.1425 -0.3022  0.1718
  849loPI   C4B12236   7.147   7.523   7.904 -0.1301  0.1263  0.1312
  850loPI    C112237   0.978   3.785   5.435  0.0051  0.1365 -0.0280
  850loPI    C212238   0.654   3.737   5.206 -0.0298 -0.0300  0.0543
  850loPI    C312239   0.984   3.904   5.054 -0.1021 -0.0031 -0.0743
  850loPI   PO412240   0.944   3.743   5.648  0.0026  0.0749  0.2884
  850loPI   GL112241   1.054   3.791   6.101  0.0648  0.1390 -0.2686
  850loPI   GL212242   1.166   3.494   6.169 -0.2144  0.2532 -0.1756
  850loPI   C1A12243   1.103   3.845   6.474 -0.2189  0.1434 -0.1142
  850loPI   C2A12244   1.317   3.847   6.888 -0.3485 -0.1914 -0.3223
  850loPI   C3A12245   1.287   3.786   7.341 -0.3529 -0.0765  0.2747
  850loPI   C4A12246   1.220   3.561   7.737  0.1601 -0.0744  0.0300
  850loPI   C5A12247   1.131   3.766   8.157 -0.3479 -0.1225 -0.1973
  850loPI   C6A12248   1.192   3.994   8.527  0.2521 -0.0598  0.0374
  850loPI   C1B12249   1.491   3.418   6.541  0.3200  0.1608  0.2030
  850loPI   C2B12250   1.678   3.438   6.916 -0.1014  0.2365 -0.3267
  850loPI   C3B12251   1.747   3.361   7.366  0.0767  0.0163  0.1765
  850loPI   C4B12252   1.563   3.153   7.669  0.0035  0.1792  0.1009
  851loPI    C112253  16.342   1.326   5.690 -0.2200  0.2497  0.0857
  851loPI    C212254  16.272   1.303   5.297 -0.1104  0.1499  0.0715
  851loPI    C312255  16.010   1.148   5.556 -0.0137 -0.0971  0.0240
  851loPI   PO412256  16.453   1.557   5.683 -0.1271 -0.2066 -0.1079
  851loPI   GL112257  16.311   1.782   6.034  0.0856 -0.1085  0.0417
  851loPI   GL212258  16.533   1.537   6.178 -0.0825 -0.0236  0.1280
  851loPI   C1A12259  16.156   1.723   6.368 -0.0560 -0.2248  0.0580
  851loPI   C2A12260  15.846   1.787   6.708  0.2815 -0.0253 -0.1564
  851loPI   C3A12261  15.600   1.905   7.014 -0.0059 -0.0144  0.0688
  851loPI   C4A12262  15.599   2.211   7.292  0.0445  0.1318  0.1999
  851loPI   C5A12263  15.356   2.335   7.670  0.1214 -0.0729  0.0057
  851loPI   C6A12264  15.052   2.513   7.959  0.1862 -0.1019 -0.0864
  851loPI   C1B12265  16.252   1.235   6.461  0.4052 -0.2010 -0.1532
  851loPI   C2B12266  16.135   1.021   6.842  0.0298  0.1176 -0.1497
  851loPI   C3B12267  16.075   1.020   7.336  0.1765  0.0710 -0.0222
  851loPI   C4B12268  15.887   1.181   7.737 -0.1093 -0.1560 -0.1971
  852loPI    C112269  13.886  17.611   5.693 -0.1746 -0.0126  0.1395
  852loPI    C212270  14.090  17.624   5.349 -0.1937  0.0198  0.1294
  852loPI    C312271  13.705  17.515   5.349 -0.1794 -0.0309  0.1471
  852loPI   PO412272  13.925  17.768   5.888  0.0975  0.5052 -0.0822
  852loPI   GL112273  14.291  17.854   6.135  0.0313 -0.0221  0.5608
  852loPI   GL212274  14.562  18.060   6.099 -0.0098 -0.0031 -0.0856
  852loPI   C1A12275  14.218  17.975   6.527 -0.0148 -0.1740 -0.0702
  852loPI   C2A12276  14.371  17.931   6.902  0.0296  0.0066 -0.0621
  852loPI   C3A12277  14.209  17.880   7.320  0.1203  0.0198  0.2042
  852loPI   C4A12278  13.907  17.999   7.637 -0.0578  0.1020 -0.0631
  852loPI   C5A12279  13.557  17.875   7.850  0.1851  0.1949  0.1077
  852loPI   C6A12280  13.520  17.500   8.054  0.0104 -0.1663  0.2192
  852loPI   C1B12281  14.437  18.371   6.432 -0.2165  0.0023 -0.0890
  852loPI   C2B12282  14.259  18.537   6.799 -0.2183  0.0483 -0.0657
  852loPI   C3B12283  14.208  18.972   7.081  0.1688 -0.0813  0.1591
  852loPI   C4B12284  14.073  19.048   7.454  0.1949  0.2879  0.1409
  853loPI    C112285  15.947   4.221   5.531 -0.0797 -0.0342  0.0854
  853loPI    C212286  16.034   3.899   5.311  0.1273  0.0831 -0.0078
  853loPI    C312287  15.812   4.194   5.156  0.0797  0.0621  0.0200
  853loPI   PO412288  15.892   4.185   5.751  0.0711  0.1124  0.0091
  853loPI   GL112289  15.838   3.974   6.083 -0.1237 -0.2762  0.0007
  853loPI   GL212290  16.181   4.037   6.171 -0.1800 -0.1914 -0.0858
  853loPI   C1A12291  15.627   3.892   6.499 -0.1757 -0.0955  0.2149
  853loPI   C2A12292  15.466   4.030   6.902 -0.3926  0.0950  0.0809
  853loPI   C3A12293  15.369   4.026   7.358  0.2883 -0.1733 -0.1627
  853loPI   C4A12294  15.390   3.816   7.664  0.2300  0.0761  0.1365
  853loPI   C5A12295  15.704   3.997   8.004  0.1758  0.3414  0.0395
  853loPI   C6A12296  15.836   3.942   8.387 -0.0702  0.2386  0.2125
  853loPI   C1B12297  16.201   4.182   6.578 -0.0582  0.1570  0.2039
  853loPI   C2B12298  16.018   4.136   7.034 -0.1754 -0.3859 -0.3129
  853loPI   C3B12299  16.226   4.325   7.421  0.4648 -0.1439  0.0664
  853loPI   C4B12300  16.480   4.272   7.749  0.1322 -0.0287  0.0701
  854loPI    C112301   3.706  14.997   5.817  0.1322 -0.1494 -0.1198
  854loPI    C212302   3.822  14.640   5.679  0.1447 -0.1282 -0.1647
  854loPI    C312303   3.752  14.940   5.424  0.1822 -0.0842 -0.1236
  854loPI   PO412304   3.519  14.855   6.026 -0.1845  0.0563 -0.0829
  854loPI   GL112305   3.214  14.990   6.300  0.0976  0.0603  0.0329
  854loPI   GL212306   2.898  15.033   6.187  0.1073  0.2368  0.1371
  854loPI   C1A12307   3.174  14.825   6.747  0.1967  0.0043  0.0459
  854loPI   C2A12308   3.128  14.586   7.051 -0.1153  0.0318 -0.2625
  854loPI   C3A12309   3.123  14.537   7.445  0.2721 -0.1321 -0.3143
  854loPI   C4A12310   3.209  14.562   7.815 -0.1141  0.2693  0.3585
  854loPI   C5A12311   3.407  14.648   8.204  0.0089  0.2232  0.1454
  854loPI   C6A12312   3.839  14.710   8.309 -0.1571 -0.0648 -0.3123
  854loPI   C1B12313   2.638  14.804   6.468  0.1092  0.1186 -0.0254
  854loPI   C2B12314   2.587  14.866   6.805  0.2241  0.2235 -0.1177
  854loPI   C3B12315   2.791  14.885   7.218  0.2307 -0.1152  0.3887
  854loPI   C4B12316   3.079  15.057   7.520  0.1312  0.0444 -0.0803
  855loPI    C112317  16.648   9.976   5.415  0.1016  0.2361  0.0396
  855loPI    C212318  16.723  10.203   5.095  0.1832 -0.1206 -0.2001
  855loPI    C312319  16.526   9.858   5.053  0.0646 -0.1002  0.1582
  855loPI   PO412320  16.591  10.108   5.682  0.0827 -0.4873  0.1994
  855loPI   GL112321  16.827  10.119   6.093  0.2006  0.1610  0.3079
  855loPI   GL212322  16.751  10.486   6.080 -0.0145  0.2345 -0.0715
  855loPI   C1A12323  16.982  10.240   6.506 -0.1102  0.0946 -0.0313
  855loPI   C2A12324  17.047  10.266   6.971  0.1192  0.1980  0.2033
  855loPI   C3A12325  17.108  10.502   7.300 -0.0855 -0.0109 -0.0984
  855loPI   C4A12326  17.067  10.747   7.661 -0.0691 -0.1397  0.0699
  855loPI   C5A12327  16.700  10.853   7.972  0.1054  0.1490  0.0342
  855loPI   C6A12328  16.290  10.828   7.850  0.0310  0.2503 -0.1029
  855loPI   C1B12329  16.452  10.293   6.442 -0.2015 -0.0900  0.0534
  855loPI   C2B12330  16.563  10.162   6.918  0.2687 -0.1938 -0.4928
  855loPI   C3B12331  16.683  10.114   7.290  0.1526 -0.3477  0.0655
  855loPI   C4B12332  16.858  10.244   7.708  0.3002  0.2613 -0.0993
  856loPI    C112333   9.098  16.438   5.611 -0.0469 -0.1872 -0.2061
  856loPI    C212334   9.027  16.659   5.285 -0.3163 -0.1273 -0.1104
  856loPI    C312335   8.976  16.262   5.273 -0.3187 -0.1262 -0.1426
  856loPI   PO412336   9.170  16.611   5.789 -0.2355  0.0488  0.0258
  856loPI   GL112337   9.177  16.719   6.209  0.1387 -0.0376 -0.3284
  856loPI   GL212338   9.017  17.003   6.047  0.0228 -0.3181 -0.2084
  856loPI   C1A12339   9.518  16.846   6.441  0.0176  0.1265  0.0451
  856loPI   C2A12340   9.480  17.028   6.840  0.1727 -0.1076 -0.1177
  856loPI   C3A12341   9.401  17.284   7.232  0.1744  0.1616 -0.0585
  856loPI   C4A12342   9.185  17.383   7.596 -0.1520 -0.0643 -0.0382
  856loPI   C5A12343   8.966  17.486   7.944 -0.0275  0.3296 -0.0530
  856loPI   C6A12344   9.004  17.435   8.360  0.0045  0.0877 -0.1167
  856loPI   C1B12345   9.054  17.177   6.437  0.0455 -0.0819  0.3116
  856loPI   C2B12346   8.952  17.174   6.776  0.2166 -0.0467 -0.0149
  856loPI   C3B12347   8.939  17.119   7.231 -0.0833  0.1261 -0.0937
  856loPI   C4B12348   8.871  16.966   7.673  0.1219 -0.1138  0.1597
  857loPI    C112349  12.414   0.813   5.413 -0.0366  0.3269  0.0057
  857loPI    C212350  12.027   0.714   5.405  0.0215  0.0950 -0.0107
  857loPI    C312351  12.266   0.613   5.100  0.1735 -0.0978  0.1698
  857loPI   PO412352  12.459   0.837   5.583 -0.0490 -0.0389 -0.1345
  857loPI   GL112353  12.639   1.049   5.976  0.1340  0.0526  0.1860
  857loPI   GL212354  12.805   1.157   5.844 -0.1638  0.1671  0.1272
  857loPI   C1A12355  12.551   1.061   6.362  0.0744  0.0921  0.2555
  857loPI   C2A12356  12.450   1.242   6.787 -0.0130 -0.1374  0.0495
  857loPI   C3A12357  12.462   1.320   7.138 -0.1983  0.2419 -0.0280
  857loPI   C4A12358  12.405   1.233   7.581 -0.1746  0.3647 -0.0137
  857loPI   C5A12359  12.330   1.379   7.968  0.1796  0.2137  0.0395
  857loPI   C6A12360  12.594   1.605   8.149 -0.0003 -0.1258  0.0485
  857loPI   C1B12361  12.966   1.302   6.277 -0.3086  0.2886 -0.1616
  857loPI   C2B12362  12.923   1.427   6.674  0.1263  0.1447  0.1137
  857loPI   C3B12363  12.926   1.486   7.065  0.2741 -0.0444  0.0290
  857loPI   C4B12364  13.096   1.429   7.418 -0.1877  0.4281 -0.0029
  858loPI    C112365   6.414  14.854   5.703  0.2974  0.2848  0.0668
  858loPI    C212366   6.598  14.642   5.417 -0.0495  0.1478 -0.0599
  858loPI    C312367   6.319  14.912   5.318 -0.1722  0.0996  0.1478
  858loPI   PO412368   6.586  14.731   5.947  0.0144  0.0057  0.3137
  858loPI   GL112369   6.562  14.789   6.310 -0.1698  0.3098 -0.0211
  858loPI   GL212370   6.473  14.516   6.437 -0.1569  0.0761 -0.1561
  858loPI   C1A12371   6.695  14.845   6.754 -0.0977 -0.1684 -0.2301
  858loPI   C2A12372   6.755  14.767   7.108  0.0092  0.2728  0.0535
  858loPI   C3A12373   6.680  14.776   7.496  0.0973  0.1266  0.1735
  858loPI   C4A12374   6.587  14.597   7.898  0.1556  0.0637 -0.4872
  858loPI   C5A12375   6.439  14.663   8.351  0.4048  0.3486 -0.0045
  858loPI   C6A12376   6.553  14.624   8.737  0.1484 -0.0725 -0.1841
  858loPI   C1B12377   6.227  14.581   6.733  0.2814 -0.0943  0.0592
  858loPI   C2B12378   6.181  14.514   7.166  0.0418  0.0336 -0.1836
  858loPI   C3B12379   6.163  14.553   7.543  0.3373 -0.0487  0.1146
  858loPI   C4B12380   5.825  14.379   7.716 -0.1813  0.0941 -0.0343
  859loPI    C112381  15.133   1.263   5.227  0.0458 -0.0090 -0.2149
  859loPI    C212382  15.018   0.980   4.969  0.0338 -0.0746 -0.1379
  859loPI    C312383  15.385   1.137   4.944 -0.0574  0.1086 -0.3608
  859loPI   PO412384  15.143   1.205   5.476  0.4098  0.0140 -0.0319
  859loPI   GL112385  14.914   1.048   5.758  0.0019  0.0759  0.0584
  859loPI   GL212386  15.173   0.814   5.926 -0.0380  0.0479 -0.0623
  859loPI   C1A12387  14.767   1.260   6.150 -0.1699  0.1055  0.0298
  859loPI   C2A12388  14.762   1.418   6.495  0.1400 -0.0015 -0.2908
  859loPI   C3A12389  14.790   1.475   6.850  0.1318 -0.0171  0.0487
  859loPI   C4A12390  14.853   1.336   7.305  0.0989  0.1780  0.2137
  859loPI   C5A12391  14.951   0.977   7.724  0.0732 -0.2167  0.3006
  859loPI   C6A12392  14.999   0.844   8.105 -0.0136  0.3821 -0.0000
  859loPI   C1B12393  14.867   0.560   6.150  0.0625 -0.0069 -0.2160
  859loPI   C2B12394  14.898   0.328   6.552 -0.3594  0.2320 -0.2203
  859loPI   C3B12395  14.766   0.468   6.918  0.3689  0.0751  0.3426
  859loPI   C4B12396  14.515   0.380   7.236  0.2038  0.3664  0.1013
  860loPI    C112397   6.125  14.475   5.908  0.2736  0.3143 -0.0762
  860loPI    C212398   6.313  14.274   5.618  0.1759 -0.0885  0.1315
  860loPI    C312399   6.040  14.551   5.525  0.1092 -0.2479 -0.1605
  860loPI   PO412400   6.011  14.379   6.127 -0.0341  0.1035  0.0748
  860loPI   GL112401   6.089  14.213   6.406  0.0340 -0.1356  0.0185
  860loPI   GL212402   5.934  13.939   6.377  0.0784  0.2738  0.0575
  860loPI   C1A12403   6.241  13.986   6.798  0.0560 -0.0427  0.0255
  860loPI   C2A12404   6.200  13.979   7.269 -0.1029 -0.2628  0.0892
  860loPI   C3A12405   6.042  13.880   7.724  0.3871  0.3274 -0.0866
  860loPI   C4A12406   5.880  13.943   8.050  0.1260 -0.0671 -0.3070
  860loPI   C5A12407   5.670  13.790   8.301 -0.0526 -0.1708  0.1075
  860loPI   C6A12408   5.219  13.899   8.354  0.1251 -0.0141 -0.1394
  860loPI   C1B12409   5.754  13.871   6.749  0.1076  0.1684 -0.0363
  860loPI   C2B12410   5.796  13.700   7.182 -0.0847 -0.1440 -0.0654
  860loPI   C3B12411   5.665  13.517   7.553 -0.1192 -0.0286 -0.1207
  860loPI   C4B12412   5.778  13.441   7.990  0.3639  0.0059  0.2719
  861loPI    C112413  10.741  16.059   5.495 -0.0354  0.0900  0.0648
  861loPI    C212414  10.812  15.670   5.435 -0.0585  0.0785  0.1124
  861loPI    C312415  10.447  15.819   5.367  0.0081  0.1369 -0.1258
  861loPI   PO412416  10.813  16.075   5.742  0.3537 -0.0578  0.4690
  861loPI   GL112417  10.553  16.240   6.096  0.1306  0.1867  0.1284
  861loPI   GL212418  10.235  16.436   6.122 -0.1671 -0.2632  0.2787
  861loPI   C1A12419  10.796  16.351   6.485  0.1387 -0.1765 -0.0026
  861loPI   C2A12420  10.649  16.549   6.825  0.0739 -0.3302 -0.0913
  861loPI   C3A12421  10.670  16.685   7.344  0.0528  0.0078  0.1664
  861loPI   C4A12422  10.952  16.817   7.730  0.1601 -0.0524  0.0517
  861loPI   C5A12423  11.098  17.105   8.059 -0.1797  0.4573  0.0652
  861loPI   C6A12424  11.384  17.388   8.008 -0.0973  0.0608 -0.2089
  861loPI   C1B12425  10.273  16.360   6.622  0.2204  0.0771  0.2724
  861loPI   C2B12426  10.229  16.321   7.108 -0.0125 -0.1326 -0.1543
  861loPI   C3B12427  10.169  16.600   7.431 -0.0213 -0.0331 -0.1721
  861loPI   C4B12428  10.194  16.729   7.919  0.0339  0.0022 -0.1555
  862loPI    C112429   8.290  13.237   5.720 -0.0381  0.0033  0.0421
  862loPI    C212430   8.455  13.593   5.799 -0.3378  0.1471  0.0329
  862loPI    C312431   8.366  13.493   5.422  0.1660 -0.1284 -0.0205
  862loPI   PO412432   8.178  13.158   5.991 -0.1431  0.1828 -0.1487
  862loPI   GL112433   8.249  12.822   6.374  0.1182 -0.4309  0.3682
  862loPI   GL212434   8.537  12.801   6.325 -0.1697 -0.2535  0.3959
  862loPI   C1A12435   8.396  12.631   6.757  0.0255  0.0280  0.4066
  862loPI   C2A12436   8.429  12.560   7.154 -0.1425 -0.0852  0.0204
  862loPI   C3A12437   8.517  12.636   7.590  0.0909 -0.1122 -0.1065
  862loPI   C4A12438   8.684  12.774   7.887 -0.1400  0.2798  0.0392
  862loPI   C5A12439   9.042  12.788   8.121  0.0816 -0.0626  0.0627
  862loPI   C6A12440   9.374  13.002   8.328  0.0262 -0.0168  0.0458
  862loPI   C1B12441   8.601  13.020   6.636  0.1266 -0.2323  0.0409
  862loPI   C2B12442   8.633  13.425   6.684  0.0172 -0.0676  0.0427
  862loPI   C3B12443   8.917  13.680   6.986 -0.4059 -0.2523  0.1481
  862loPI   C4B12444   9.095  13.574   7.376 -0.2148 -0.2078 -0.1344
  863loPI    C112445   0.575  11.655   5.476 -0.0117  0.2426  0.0122
  863loPI    C212446   0.876  11.397   5.427 -0.3134 -0.0888 -0.1387
  863loPI    C312447   0.836  11.707   5.178  0.1459  0.2093  0.1432
  863loPI   PO412448   0.567  11.719   5.777  0.0883 -0.0470  0.0915
  863loPI   GL112449   0.500  11.873   6.137 -0.1856  0.1079 -0.2230
  863loPI   GL212450   0.741  11.996   6.237 -0.0041  0.0913 -0.1231
  863loPI   C1A12451   0.314  12.036   6.632 -0.2066  0.0797 -0.0164
  863loPI   C2A12452   0.266  12.258   7.071  0.2212  0.3214  0.1263
  863loPI   C3A12453   0.266  12.331   7.478 -0.1112 -0.3912 -0.1144
  863loPI   C4A12454  -0.009  12.253   7.791 -0.1784 -0.0109  0.0061
  863loPI   C5A12455  -0.174  12.105   8.196 -0.0655  0.0925  0.1968
  863loPI   C6A12456  -0.262  12.288   8.561  0.2558 -0.5256 -0.1041
  863loPI   C1B12457   0.813  12.039   6.678 -0.0347  0.0425 -0.1544
  863loPI   C2B12458   0.711  12.074   7.026  0.0105  0.2087 -0.1290
  863loPI   C3B12459   0.815  12.053   7.368 -0.3720  0.1490  0.1299
  863loPI   C4B12460   0.731  12.240   7.781  0.0141 -0.2413  0.0355
  864loPI    C112461   3.856  12.967   5.180  0.0680 -0.0329 -0.1954
  864loPI    C212462   3.472  12.862   5.135 -0.0342  0.1358  0.2338
  864loPI    C312463   3.763  12.608   5.030 -0.2593  0.0183 -0.1233
  864loPI   PO412464   3.913  13.011   5.414  0.2086 -0.3506 -0.2589
  864loPI   GL112465   3.950  13.005   5.824 -0.1404  0.0707 -0.0830
  864loPI   GL212466   3.956  12.791   6.000 -0.0765 -0.1980  0.1311
  864loPI   C1A12467   4.093  13.128   6.332 -0.3606  0.0545  0.0670
  864loPI   C2A12468   4.405  13.106   6.578 -0.0429  0.1321  0.1923
  864loPI   C3A12469   4.398  13.110   7.103  0.0455  0.2352 -0.0371
  864loPI   C4A12470   4.211  13.067   7.459 -0.2151  0.3956 -0.1353
  864loPI   C5A12471   4.395  12.775   7.812 -0.0709 -0.0204 -0.0235
  864loPI   C6A12472   4.601  12.640   8.170  0.1823  0.0657 -0.0308
  864loPI   C1B12473   3.929  12.686   6.475 -0.0815 -0.0389 -0.2710
  864loPI   C2B12474   3.835  12.820   6.943 -0.0914 -0.2931 -0.0219
  864loPI   C3B12475   3.815  12.753   7.352 -0.1310 -0.1481  0.0551
  864loPI   C4B12476   3.908  12.618   7.732 -0.2734 -0.0800  0.0014
  865loPI    C112477   2.666  13.435   5.690 -0.0223  0.1250  0.1165
  865loPI    C212478   2.632  13.214   5.358  0.0305 -0.0716  0.2405
  865loPI    C312479   2.400  13.536   5.408 -0.0105 -0.0678  0.0349
  865loPI   PO412480   2.709  13.318   5.860  0.1394  0.1830  0.1293
  865loPI   GL112481   2.817  13.419   6.390 -0.4852  0.1293  0.0145
  865loPI   GL212482   2.617  13.563   6.239 -0.0927  0.0176  0.1591
  865loPI   C1A12483   2.840  13.228   6.863 -0.0447  0.0200  0.0646
  865loPI   C2A12484   2.767  13.192   7.293 -0.1385  0.1897  0.0058
  865loPI   C3A12485   2.967  13.148   7.736  0.1099 -0.0132  0.0600
  865loPI   C4A12486   3.200  13.261   8.176  0.1924  0.3945  0.2549
  865loPI   C5A12487   3.405  13.456   8.480 -0.0010 -0.0073 -0.1768
  865loPI   C6A12488   3.570  13.599   8.858  0.3621 -0.1575  0.1928
  865loPI   C1B12489   2.423  13.516   6.663  0.0374 -0.0584  0.0712
  865loPI   C2B12490   2.392  13.447   7.109 -0.1246 -0.0766 -0.0914
  865loPI   C3B12491   2.345  13.454   7.507 -0.1219  0.0524  0.2292
  865loPI   C4B12492   2.229  13.439   7.976 -0.2446  0.2693 -0.2063
  866loPI    C112493  10.382  10.690   5.546  0.0916  0.1698  0.0504
  866loPI    C212494  10.099  10.696   5.263 -0.0124 -0.0570  0.1465
  866loPI    C312495  10.478  10.615   5.165 -0.0664 -0.2400  0.0853
  866loPI   PO412496  10.337  10.920   5.697  0.2227  0.0943 -0.0532
  866loPI   GL112497  10.551  11.117   6.111 -0.1023 -0.0262 -0.0910
  866loPI   GL212498  10.778  10.929   6.031  0.0555  0.3902 -0.0852
  866loPI   C1A12499  10.404  10.974   6.593  0.1740 -0.2526 -0.1567
  866loPI   C2A12500  10.319  10.948   7.092  0.0096  0.1487 -0.1575
  866loPI   C3A12501  10.333  10.906   7.573  0.1103  0.0480 -0.0376
  866loPI   C4A12502  10.398  10.790   7.963 -0.0814  0.0525 -0.0245
  866loPI   C5A12503  10.494  11.114   8.243 -0.2398  0.1089 -0.0945
  866loPI   C6A12504  10.555  11.524   8.446 -0.1524 -0.3349 -0.1992
  866loPI   C1B12505  10.926  11.006   6.465  0.2664  0.2267 -0.1298
  866loPI   C2B12506  10.881  11.080   6.900  0.1391  0.1154  0.1421
  866loPI   C3B12507  10.737  11.139   7.333  0.0313 -0.1267  0.1642
  866loPI   C4B12508  10.813  11.057   7.724  0.2560 -0.0748  0.0808
  867loPI    C112509  13.521   1.456   5.156 -0.0595  0.0539 -0.0463
  867loPI    C212510  13.503   1.435   4.757  0.0735 -0.0860 -0.0460
  867loPI    C312511  13.836   1.322   4.948 -0.0173 -0.0927  0.1099
  867loPI   PO412512  13.301   1.691   5.166  0.4060  0.1213  0.1426
  867loPI   GL112513  13.374   2.005   5.493 -0.3213  0.0120  0.1954
  867loPI   GL212514  13.716   2.103   5.664  0.1706  0.0950 -0.2559
  867loPI   C1A12515  13.096   1.923   5.835 -0.0575  0.3000  0.3433
  867loPI   C2A12516  13.087   1.803   6.211  0.0804  0.2845  0.2991
  867loPI   C3A12517  13.023   1.920   6.629  0.3856 -0.0614  0.4460
  867loPI   C4A12518  13.030   1.953   7.005  0.2069  0.0870 -0.1128
  867loPI   C5A12519  13.087   1.972   7.471 -0.0943  0.1287  0.0894
  867loPI   C6A12520  13.106   1.763   7.864 -0.0280  0.0826  0.0749
  867loPI   C1B12521  13.586   2.047   6.092 -0.2671  0.1109  0.2347
  867loPI   C2B12522  13.493   1.999   6.498  0.0995 -0.1467  0.0601
  867loPI   C3B12523  13.526   2.072   6.913 -0.0391 -0.2707  0.0842
  867loPI   C4B12524  13.527   2.175   7.333 -0.2233  0.0554 -0.1904
  868loPI    C112525  16.101   6.515   5.573  0.0596 -0.0303  0.0424
  868loPI    C212526  15.876   6.822   5.696  0.0484  0.0392 -0.1478
  868loPI    C312527  15.746   6.447   5.744 -0.0970  0.0778 -0.2326
  868loPI   PO412528  16.322   6.579   5.767  0.2898 -0.1998 -0.3215
  868loPI   GL112529  16.390   6.359   6.201  0.0916  0.3161 -0.2440
  868loPI   GL212530  16.031   6.435   6.155 -0.0573  0.1751  0.1853
  868loPI   C1A12531  16.336   6.170   6.689  0.2591  0.0065  0.2321
  868loPI   C2A12532  16.489   6.101   7.039  0.1443  0.2808  0.1622
  868loPI   C3A12533  16.630   5.994   7.368  0.1852  0.3236  0.1963
  868loPI   C4A12534  16.566   5.660   7.629  0.3875  0.0221 -0.1211
  868loPI   C5A12535  16.949   5.460   7.829  0.1589 -0.0884 -0.2350
  868loPI   C6A12536  17.220   5.271   8.116  0.0059  0.1288 -0.1963
  868loPI   C1B12537  16.134   6.652   6.487  0.2148 -0.0374  0.1225
  868loPI   C2B12538  16.006   6.485   6.977  0.1443 -0.0298  0.0424
  868loPI   C3B12539  16.121   6.263   7.327  0.1320 -0.0043  0.1067
  868loPI   C4B12540  16.190   6.127   7.730  0.0255 -0.1281 -0.2357
  869loPI    C112541  11.247  11.556   5.625  0.2448 -0.0307 -0.1232
  869loPI    C212542  11.345  11.868   5.395  0.0882  0.0224 -0.1192
  869loPI    C312543  11.377  11.496   5.251  0.1445  0.0470 -0.1711
  869loPI   PO412544  11.370  11.599   5.775  0.0218  0.2495 -0.1399
  869loPI   GL112545  11.557  11.467   6.074  0.0927  0.0978 -0.0613
  869loPI   GL212546  11.663  11.747   6.245 -0.0485  0.1407  0.0608
  869loPI   C1A12547  11.395  11.121   6.359  0.1578  0.1354 -0.0153
  869loPI   C2A12548  11.334  11.123   6.803 -0.0702 -0.0725  0.1622
  869loPI   C3A12549  11.211  11.015   7.323 -0.1551  0.0233  0.1688
  869loPI   C4A12550  11.317  11.084   7.765  0.1537 -0.0520  0.1911
  869loPI   C5A12551  11.638  11.123   7.932 -0.2854  0.1680 -0.1382
  869loPI   C6A12552  11.820  10.936   8.299 -0.0808 -0.3162  0.1388
  869loPI   C1B12553  11.500  11.570   6.564 -0.0284  0.0610  0.1553
  869loPI   C2B12554  11.460  11.797   6.988  0.0216  0.1033  0.1783
  869loPI   C3B12555  11.291  11.798   7.419 -0.1974 -0.2887 -0.0757
  869loPI   C4B12556  11.014  11.577   7.737 -0.2082  0.3288 -0.0187
  870loPI    C112557  11.707   4.036   5.101 -0.3890 -0.1113  0.1199
  870loPI    C212558  11.480   4.240   4.842  0.0961 -0.1119 -0.3227
  870loPI    C312559  11.720   4.436   5.094 -0.1567 -0.1204 -0.0693
  870loPI   PO412560  11.591   3.803   5.228 -0.3065  0.0302  0.2084
  870loPI   GL112561  11.683   3.477   5.549  0.1410 -0.0523 -0.1141
  870loPI   GL212562  11.948   3.329   5.705 -0.0235  0.1974 -0.0790
  870loPI   C1A12563  11.577   3.446   5.998 -0.3126 -0.1175  0.1241
  870loPI   C2A12564  11.643   3.440   6.373 -0.0232 -0.0609  0.0293
  870loPI   C3A12565  11.705   3.435   6.903  0.1776  0.0950 -0.1031
  870loPI   C4A12566  11.661   3.486   7.401  0.0856  0.0959  0.0197
  870loPI   C5A12567  11.954   3.232   7.573  0.0734  0.3026 -0.0416
  870loPI   C6A12568  11.909   2.812   7.832  0.1233 -0.2664  0.1138
  870loPI   C1B12569  12.046   3.391   6.108 -0.4818  0.0956 -0.2367
  870loPI   C2B12570  12.114   3.494   6.534  0.1044  0.1523 -0.2342
  870loPI   C3B12571  12.134   3.681   6.951  0.1744 -0.0365 -0.0625
  870loPI   C4B12572  12.291   3.737   7.418  0.1814 -0.0213  0.1785
  871loPI    C112573  17.231   2.774   5.658 -0.0289  0.1469  0.1677
  871loPI    C212574  17.375   2.589   5.335  0.0405 -0.0326  0.2996
  871loPI    C312575  17.442   2.980   5.388 -0.3164  0.0911 -0.1043
  871loPI   PO412576  17.294   2.783   5.945 -0.0631 -0.0223 -0.0421
  871loPI   GL112577  17.088   2.556   6.307  0.2165 -0.0624  0.0940
  871loPI   GL212578  17.131   2.272   6.268 -0.0882  0.2234  0.1326
  871loPI   C1A12579  17.221   2.516   6.686  0.0065  0.0704  0.0896
  871loPI   C2A12580  17.364   2.599   7.225  0.1770 -0.0544 -0.0286
  871loPI   C3A12581  17.086   2.654   7.639 -0.1143 -0.0525  0.1423
  871loPI   C4A12582  16.790   2.764   7.954  0.0406  0.1769  0.4227
  871loPI   C5A12583  16.391   2.829   7.925 -0.0114 -0.1932  0.0275
  871loPI   C6A12584  16.076   2.592   7.686 -0.1872  0.0818 -0.0278
  871loPI   C1B12585  17.179   1.972   6.613 -0.0168  0.0256 -0.1647
  871loPI   C2B12586  17.051   1.638   6.915 -0.0144 -0.1634  0.0622
  871loPI   C3B12587  16.976   1.700   7.422 -0.3072 -0.2075 -0.2251
  871loPI   C4B12588  17.092   1.919   7.746 -0.0846  0.0724 -0.3389
  872loPI    C112589   6.735  10.357   5.901 -0.0750 -0.0379 -0.3012
  872loPI    C212590   6.674  10.525   5.543  0.0876  0.0869 -0.2710
  872loPI    C312591   7.024  10.574   5.731  0.0952 -0.1892 -0.2086
  872loPI   PO412592   6.526  10.412   6.056 -0.0221 -0.2407  0.1161
  872loPI   GL112593   6.427  10.349   6.362 -0.1762  0.1304  0.1468
  872loPI   GL212594   6.165  10.379   6.489  0.2638 -0.2198 -0.0493
  872loPI   C1A12595   6.617  10.411   6.790  0.3830 -0.1445 -0.0276
  872loPI   C2A12596   6.689  10.464   7.187  0.2136  0.0815  0.1492
  872loPI   C3A12597   6.611  10.582   7.667  0.1179 -0.0745  0.1708
  872loPI   C4A12598   6.820  10.775   8.097  0.2424  0.3202  0.1232
  872loPI   C5A12599   7.181  10.999   8.342 -0.0845  0.1890  0.2260
  872loPI   C6A12600   7.410  11.384   8.261 -0.0869  0.0708 -0.0460
  872loPI   C1B12601   6.149  10.196   6.816  0.0384  0.2419  0.1903
  872loPI   C2B12602   6.007  10.112   7.126  0.1597 -0.0019  0.0430
  872loPI   C3B12603   5.911  10.177   7.527 -0.1367  0.0088  0.1527
  872loPI   C4B12604   5.783   9.874   7.837  0.1904  0.2426 -0.1179
  873loPI    C112605   9.640   1.834   5.331  0.1116 -0.1529 -0.0462
  873loPI    C212606   9.331   1.755   5.089 -0.0797 -0.0724  0.1678
  873loPI    C312607   9.701   1.646   4.983 -0.1762 -0.1436 -0.1045
  873loPI   PO412608   9.530   1.763   5.566 -0.0902  0.1989 -0.0095
  873loPI   GL112609   9.548   1.453   5.840  0.0485 -0.1173 -0.1422
  873loPI   GL212610   9.488   1.652   6.045  0.1097  0.0418  0.1015
  873loPI   C1A12611   9.880   1.393   6.200 -0.0885 -0.1145 -0.2624
  873loPI   C2A12612   9.914   1.515   6.584  0.1667 -0.1781 -0.1494
  873loPI   C3A12613   9.896   1.565   7.047  0.0262  0.0316 -0.1004
  873loPI   C4A12614   9.943   1.695   7.441 -0.0587 -0.0097 -0.2322
  873loPI   C5A12615  10.055   1.600   7.844  0.1326  0.1801  0.0050
  873loPI   C6A12616  10.265   1.569   8.286  0.0097  0.3296 -0.2576
  873loPI   C1B12617   9.497   1.762   6.495  0.1617  0.0719 -0.1364
  873loPI   C2B12618   9.403   1.903   6.925  0.1658  0.1045 -0.1038
  873loPI   C3B12619   9.503   1.823   7.458 -0.2209  0.2048  0.0896
  873loPI   C4B12620   9.562   1.659   7.873 -0.3480  0.0969 -0.0243
  874loPI    C112621  11.188  15.958   5.310 -0.2945  0.0227 -0.0374
  874loPI    C212622  11.180  16.327   5.154 -0.5072  0.0919  0.1326
  874loPI    C312623  11.323  16.022   4.938  0.0159  0.3325  0.1222
  874loPI   PO412624  11.283  16.016   5.604 -0.2748 -0.2617  0.0746
  874loPI   GL112625  11.218  16.126   6.021 -0.3043 -0.1300 -0.0105
  874loPI   GL212626  10.959  15.909   6.292  0.0394 -0.0595 -0.1943
  874loPI   C1A12627  11.330  16.257   6.414  0.1648 -0.0213  0.0398
  874loPI   C2A12628  11.419  16.303   6.952  0.1794 -0.0648  0.3651
  874loPI   C3A12629  11.579  16.259   7.439 -0.1005  0.0397 -0.2384
  874loPI   C4A12630  11.602  16.240   7.870 -0.2128 -0.2304  0.0695
  874loPI   C5A12631  11.592  16.365   8.306  0.1925  0.1258  0.1449
  874loPI   C6A12632  11.317  16.592   8.625 -0.1676  0.0677  0.1517
  874loPI   C1B12633  10.989  16.051   6.816 -0.0523  0.2345  0.1143
  874loPI   C2B12634  10.992  16.257   7.234 -0.0070  0.2791 -0.0168
  874loPI   C3B12635  11.082  16.348   7.759  0.1098 -0.0302 -0.1143
  874loPI   C4B12636  11.024  16.422   8.133  0.1808 -0.4724 -0.2689
  875loPI    C112637   6.838   3.545   5.353  0.1483 -0.1114  0.0446
  875loPI    C212638   6.659   3.204   5.244  0.2435 -0.1717  0.0754
  875loPI    C312639   6.923   3.378   4.999 -0.0446  0.0535 -0.0822
  875loPI   PO412640   6.904   3.612   5.564  0.0701 -0.4760 -0.2948
  875loPI   GL112641   6.666   3.665   5.901  0.0711  0.1199  0.0488
  875loPI   GL212642   6.766   3.368   5.946  0.0877 -0.1020 -0.0671
  875loPI   C1A12643   6.344   3.728   6.234 -0.1372  0.3024 -0.0204
  875loPI   C2A12644   6.270   3.457   6.676  0.2404 -0.5630 -0.3439
  875loPI   C3A12645   6.205   3.434   7.118 -0.5308  0.5139 -0.0825
  875loPI   C4A12646   6.269   3.472   7.501  0.2803  0.1469  0.0795
  875loPI   C5A12647   6.156   3.239   7.870  0.1521 -0.1057 -0.0991
  875loPI   C6A12648   5.908   3.071   8.275 -0.1958  0.0951  0.3650
  875loPI   C1B12649   6.752   3.223   6.305 -0.3825 -0.1942  0.1320
  875loPI   C2B12650   6.713   3.310   6.658  0.0166 -0.2870 -0.3518
  875loPI   C3B12651   6.903   3.397   7.144  0.0306  0.0476  0.0457
  875loPI   C4B12652   7.190   3.635   7.269  0.0877 -0.1257 -0.1516
  876loPI    C112653  14.857   1.991   5.491 -0.1161  0.2568 -0.1087
  876loPI    C212654  15.133   2.084   5.217 -0.0096 -0.0028 -0.0924
  876loPI    C312655  14.948   1.730   5.202 -0.0860  0.0277  0.1050
  876loPI   PO412656  14.701   2.252   5.504 -0.1293  0.0838  0.1372
  876loPI   GL112657  14.536   2.524   5.843  0.1740  0.0212  0.0209
  876loPI   GL212658  14.750   2.323   6.005 -0.2798 -0.3567  0.1156
  876loPI   C1A12659  14.533   2.787   6.164 -0.0202 -0.1362  0.1862
  876loPI   C2A12660  14.663   2.853   6.650  0.3497  0.2235 -0.0589
  876loPI   C3A12661  14.618   2.857   7.068  0.0011  0.0882  0.1529
  876loPI   C4A12662  14.542   2.807   7.508 -0.0194 -0.0690 -0.0024
  876loPI   C5A12663  14.206   2.440   7.707 -0.1409 -0.2135  0.2094
  876loPI   C6A12664  13.917   2.058   7.795 -0.1653  0.1299 -0.0036
  876loPI   C1B12665  14.487   2.325   6.364  0.0176  0.2631  0.2364
  876loPI   C2B12666  14.437   2.375   6.772  0.3021 -0.2197 -0.1782
  876loPI   C3B12667  14.512   2.357   7.229 -0.0919 -0.0355  0.0544
  876loPI   C4B12668  14.671   2.357   7.676 -0.0507  0.3232  0.0922
  877loPI    C112669   7.799   4.523   5.106  0.0410 -0.0466 -0.0933
  877loPI    C212670   7.837   4.680   4.740 -0.1444 -0.0886 -0.1315
  877loPI    C312671   7.477   4.665   4.915 -0.0749 -0.1727  0.0058
  877loPI   PO412672   7.969   4.615   5.280 -0.0985 -0.1383  0.0272
  877loPI   GL112673   8.014   4.663   5.666 -0.4111 -0.2279 -0.3746
  877loPI   GL212674   7.682   4.728   5.858 -0.2149  0.0511 -0.1516
  877loPI   C1A12675   8.094   4.782   6.082  0.0326  0.2224  0.1469
  877loPI   C2A12676   8.279   4.730   6.512  0.2576  0.0648  0.1334
  877loPI   C3A12677   8.389   4.772   6.895 -0.1786 -0.2252 -0.1644
  877loPI   C4A12678   8.354   4.871   7.399  0.1458 -0.3487 -0.1499
  877loPI   C5A12679   8.223   5.061   7.755  0.0113  0.3228  0.0132
  877loPI   C6A12680   8.095   5.084   8.160 -0.2991  0.1744  0.1071
  877loPI   C1B12681   7.389   4.638   6.275  0.1862  0.2186 -0.0919
  877loPI   C2B12682   7.424   4.605   6.671 -0.3986 -0.1192  0.0140
  877loPI   C3B12683   7.483   4.453   7.037 -0.0100  0.0421  0.0978
  877loPI   C4B12684   7.141   4.134   7.283  0.1073  0.2006  0.0539
  878loPI    C112685  16.349   0.802   5.382 -0.0932  0.1021  0.0346
  878loPI    C212686  16.065   0.596   5.574 -0.0669 -0.0083 -0.0435
  878loPI    C312687  15.978   0.788   5.234 -0.1032  0.1507  0.0544
  878loPI   PO412688  16.563   0.902   5.635  0.2446  0.0228 -0.0093
  878loPI   GL112689  16.511   0.981   6.030 -0.2851 -0.1725  0.1433
  878loPI   GL212690  16.198   0.851   5.965  0.0357 -0.1485  0.0599
  878loPI   C1A12691  16.475   0.789   6.457 -0.0122  0.1795  0.0062
  878loPI   C2A12692  16.544   0.645   6.914  0.1259 -0.4395  0.2514
  878loPI   C3A12693  16.492   0.777   7.404  0.2787  0.1496 -0.1093
  878loPI   C4A12694  16.355   0.643   7.833 -0.1301 -0.0122  0.1211
  878loPI   C5A12695  16.376   0.390   8.110  0.1098  0.0703  0.1885
  878loPI   C6A12696  16.659   0.193   8.369  0.1427 -0.1285  0.3797
  878loPI   C1B12697  15.953   0.814   6.340  0.1575 -0.2842  0.0459
  878loPI   C2B12698  15.673   0.732   6.726  0.1788 -0.1268 -0.1114
  878loPI   C3B12699  15.611   0.817   7.111 -0.1568  0.0692  0.0874
  878loPI   C4B12700  15.545   0.809   7.548 -0.1007 -0.0134  0.2194
  879loPI    C112701  14.359  13.076   5.750  0.0329  0.2231  0.0171
  879loPI    C212702  14.461  13.162   5.372 -0.0268  0.2405  0.0049
  879loPI    C312703  14.097  13.017   5.454  0.0627  0.0252  0.0289
  879loPI   PO412704  14.615  13.007   5.799 -0.1013 -0.0629  0.3149
  879loPI   GL112705  14.769  12.923   6.111 -0.0324 -0.0918 -0.0218
  879loPI   GL212706  15.033  12.753   6.181  0.1446 -0.1174  0.0844
  879loPI   C1A12707  14.747  13.084   6.529  0.0675 -0.0652 -0.0823
  879loPI   C2A12708  14.702  13.003   6.992 -0.0823 -0.0407  0.1105
  879loPI   C3A12709  14.757  12.830   7.306 -0.0884 -0.1589 -0.0063
  879loPI   C4A12710  14.788  12.507   7.628  0.0252  0.0742  0.0398
  879loPI   C5A12711  14.900  12.417   8.019 -0.1698 -0.0095 -0.0599
  879loPI   C6A12712  14.973  12.622   8.447  0.1066  0.0032 -0.1041
  879loPI   C1B12713  15.081  12.701   6.643 -0.1084 -0.0067  0.0487
  879loPI   C2B12714  15.226  12.685   7.158 -0.1810 -0.0164  0.1477
  879loPI   C3B12715  15.326  12.538   7.555  0.0495  0.2649 -0.1013
  879loPI   C4B12716  15.485  12.612   7.983 -0.2155 -0.0728 -0.0576
  880loPI    C112717   4.117   4.219   5.814 -0.0304  0.3279  0.1495
  880loPI    C212718   4.450   4.219   5.592  0.0676  0.1275  0.2932
  880loPI    C312719   4.165   4.493   5.527 -0.0168 -0.0768 -0.2452
  880loPI   PO412720   4.164   4.101   6.021  0.0695  0.0593 -0.3197
  880loPI   GL112721   4.231   4.282   6.395 -0.0660 -0.2805  0.3868
  880loPI   GL212722   4.294   4.518   6.614  0.2467 -0.2317  0.0461
  880loPI   C1A12723   4.294   4.035   6.807  0.1159  0.3456  0.2821
  880loPI   C2A12724   4.287   3.985   7.210  0.1789  0.2106 -0.0420
  880loPI   C3A12725   4.277   3.950   7.624 -0.0460  0.0884 -0.1645
  880loPI   C4A12726   4.282   4.205   7.987 -0.3396 -0.2363 -0.2869
  880loPI   C5A12727   4.574   4.127   8.318 -0.1378  0.4230 -0.2987
  880loPI   C6A12728   5.053   4.160   8.296 -0.1811 -0.1158  0.0130
  880loPI   C1B12729   4.457   4.477   7.086  0.2052  0.0236 -0.0807
  880loPI   C2B12730   4.173   4.503   7.452  0.4249 -0.2678 -0.0165
  880loPI   C3B12731   3.979   4.565   7.841  0.2984  0.0094 -0.4314
  880loPI   C4B12732   3.792   4.751   8.135 -0.0326  0.0958  0.1678
  881loPI    C112733  17.775   2.010   5.690 -0.2566  0.1138  0.0175
  881loPI    C212734  17.746   2.179   5.329  0.1181  0.1606  0.0053
  881loPI    C312735  17.548   1.841   5.408 -0.0774  0.2254 -0.1973
  881loPI   PO412736  17.779   2.137   5.815 -0.0648  0.4058  0.1593
  881loPI   GL112737  17.665   2.229   6.179  0.0925 -0.2657  0.1018
  881loPI   GL212738  17.593   2.568   6.325  0.3608  0.2107 -0.3298
  881loPI   C1A12739  17.725   2.157   6.632  0.2054 -0.0108 -0.3786
  881loPI   C2A12740  17.525   2.167   6.999 -0.0804 -0.0478  0.2055
  881loPI   C3A12741  17.188   2.129   7.123  0.0593 -0.1576  0.0192
  881loPI   C4A12742  16.882   2.262   7.447  0.1011 -0.0869  0.1045
  881loPI   C5A12743  16.585   2.344   7.867  0.3895  0.1894  0.0048
  881loPI   C6A12744  16.495   2.121   8.283  0.0925 -0.1003 -0.0972
  881loPI   C1B12745  17.735   2.642   6.715  0.1734 -0.0528  0.3323
  881loPI   C2B12746  17.889   2.554   7.103 -0.3037 -0.0403 -0.0383
  881loPI   C3B12747  17.921   2.520   7.615  0.0833  0.3846  0.3488
  881loPI   C4B12748  18.297   2.453   7.762  0.0251  0.0250 -0.1282
  882loPI    C112749   0.452   0.878   5.534  0.2304  0.2426 -0.0656
  882loPI    C212750   0.274   0.767   5.194  0.2492 -0.0419  0.0149
  882loPI    C312751   0.670   0.733   5.232  0.2320 -0.1391  0.1130
  882loPI   PO412752   0.284   1.122   5.559 -0.0038  0.1184 -0.2479
  882loPI   GL112753   0.303   1.300   5.932 -0.3530 -0.0844 -0.2350
  882loPI   GL212754   0.246   1.064   6.154 -0.1093  0.0527  0.0651
  882loPI   C1A12755   0.427   1.448   6.370 -0.0369  0.2758  0.0298
  882loPI   C2A12756   0.401   1.359   6.773 -0.0766 -0.4343  0.1396
  882loPI   C3A12757   0.280   1.424   7.155  0.0940 -0.2495 -0.0096
  882loPI   C4A12758   0.254   1.425   7.593 -0.0112  0.2031 -0.1119
  882loPI   C5A12759   0.014   1.271   7.890 -0.2113  0.1513  0.2863
  882loPI   C6A12760  -0.156   1.432   8.313  0.1048 -0.0188  0.1790
  882loPI   C1B12761  -0.051   1.170   6.399  0.0821  0.0216  0.0841
  882loPI   C2B12762  -0.143   1.266   6.807 -0.0922  0.1155  0.1701
  882loPI   C3B12763  -0.207   1.386   7.148  0.1208 -0.0522  0.1486
  882loPI   C4B12764  -0.184   1.158   7.467 -0.0497  0.0743 -0.0424
  883loPI    C112765  17.409   1.392   5.403 -0.2044  0.0468 -0.1452
  883loPI    C212766  17.396   1.128   5.103  0.0100  0.2344 -0.3240
  883loPI    C312767  17.612   1.462   5.066  0.2898  0.1175  0.1572
  883loPI   PO412768  17.373   1.288   5.653  0.2236  0.0419  0.0005
  883loPI   GL112769  17.276   1.386   6.100 -0.1009  0.2092  0.1004
  883loPI   GL212770  17.400   1.100   6.155 -0.2166  0.3242  0.0757
  883loPI   C1A12771  17.005   1.582   6.315 -0.0535  0.3127 -0.2502
  883loPI   C2A12772  16.717   1.837   6.471  0.1265 -0.3849  0.1062
  883loPI   C3A12773  16.460   1.610   6.721 -0.2910  0.1712  0.1015
  883loPI   C4A12774  16.147   1.489   7.012  0.2074 -0.1402 -0.2167
  883loPI   C5A12775  16.256   1.466   7.481  0.0476 -0.1423 -0.0635
  883loPI   C6A12776  16.338   1.165   7.889 -0.1491  0.2038  0.1223
  883loPI   C1B12777  17.369   1.216   6.583 -0.0845  0.0785  0.2288
  883loPI   C2B12778  17.313   1.232   7.089 -0.0803  0.1237 -0.1756
  883loPI   C3B12779  17.274   1.297   7.488 -0.3423 -0.1200 -0.4219
  883loPI   C4B12780  17.051   1.427   7.800  0.0935  0.3176 -0.3115
  884loPI    C112781  15.846  15.507   5.560 -0.0562  0.1199  0.0968
  884loPI    C212782  16.108  15.730   5.356  0.0063 -0.0579 -0.0205
  884loPI    C312783  15.809  15.548   5.164 -0.0936 -0.0082  0.0866
  884loPI   PO412784  15.792  15.672   5.802  0.1988  0.0348  0.0367
  884loPI   GL112785  16.077  15.917   6.120  0.3117  0.2037 -0.0065
  884loPI   GL212786  16.298  15.666   6.228  0.0678 -0.0719 -0.1012
  884loPI   C1A12787  15.899  16.128   6.504  0.1818  0.1702  0.0737
  884loPI   C2A12788  15.938  16.184   6.942  0.2630 -0.0002 -0.0412
  884loPI   C3A12789  15.764  16.333   7.457 -0.0822  0.1238 -0.0572
  884loPI   C4A12790  15.594  16.466   7.849  0.0026 -0.0235 -0.1584
  884loPI   C5A12791  15.372  16.426   8.312 -0.0815 -0.0441 -0.2634
  884loPI   C6A12792  15.166  16.476   8.725 -0.3344  0.2424 -0.1069
  884loPI   C1B12793  16.345  15.635   6.679  0.0126 -0.2354 -0.1362
  884loPI   C2B12794  16.186  15.787   7.066  0.2284 -0.1080 -0.0760
  884loPI   C3B12795  16.454  15.627   7.412  0.2576  0.2473  0.0994
  884loPI   C4B12796  16.421  15.887   7.794  0.0121  0.1245 -0.0391
  885loPI    C112797  12.300   7.536   4.702 -0.0353  0.0169  0.0443
  885loPI    C212798  12.595   7.406   4.466 -0.0838  0.0311 -0.0245
  885loPI    C312799  12.215   7.379   4.344 -0.1050  0.0912  0.0280
  885loPI   PO412800  12.316   7.375   4.934  0.1344  0.2996 -0.1095
  885loPI   GL112801  12.256   7.204   5.438 -0.1072  0.2824  0.1652
  885loPI   GL212802  12.607   7.170   5.638  0.0824 -0.2286  0.2359
  885loPI   C1A12803  12.235   6.841   5.799 -0.4004  0.2512 -0.2694
  885loPI   C2A12804  12.310   6.637   6.179  0.1346 -0.0098  0.2205
  885loPI   C3A12805  12.318   6.639   6.637  0.0679  0.0748 -0.0312
  885loPI   C4A12806  12.329   6.653   7.019 -0.0463  0.3153 -0.1447
  885loPI   C5A12807  12.274   6.521   7.450  0.0436 -0.2231  0.1147
  885loPI   C6A12808  11.909   6.585   7.709 -0.2720 -0.1245  0.3104
  885loPI   C1B12809  12.869   7.326   5.996  0.0803  0.2354  0.2726
  885loPI   C2B12810  13.010   7.302   6.417 -0.1180  0.1713  0.1320
  885loPI   C3B12811  12.966   7.202   6.900 -0.0580 -0.1741 -0.4548
  885loPI   C4B12812  12.944   7.286   7.305 -0.1052 -0.3522 -0.1225
  886loPI    C112813   8.269  16.009   5.850  0.1199 -0.0064 -0.1696
  886loPI    C212814   8.058  16.261   5.622 -0.0527 -0.1879 -0.2124
  886loPI    C312815   8.051  15.868   5.547  0.0788 -0.2245 -0.0405
  886loPI   PO412816   8.301  16.176   6.053 -0.1293 -0.2835  0.1580
  886loPI   GL112817   8.439  15.920   6.336 -0.0823  0.1004  0.1544
  886loPI   GL212818   8.172  15.792   6.605  0.1895 -0.1489  0.3239
  886loPI   C1A12819   8.558  16.220   6.654  0.2383  0.0607 -0.1902
  886loPI   C2A12820   8.651  16.640   6.929 -0.2059  0.2220 -0.1349
  886loPI   C3A12821   8.569  16.752   7.326 -0.2009 -0.2037 -0.1612
  886loPI   C4A12822   8.443  17.096   7.472 -0.0778 -0.2488  0.1074
  886loPI   C5A12823   8.268  17.394   7.744  0.0084 -0.0876  0.4838
  886loPI   C6A12824   8.137  17.284   8.074 -0.2374  0.1554 -0.0766
  886loPI   C1B12825   8.267  15.822   7.051 -0.1866 -0.1680  0.0319
  886loPI   C2B12826   8.272  15.949   7.462  0.3150  0.2795  0.1217
  886loPI   C3B12827   8.269  15.787   7.925  0.0477 -0.0521 -0.0604
  886loPI   C4B12828   8.190  15.808   8.311  0.0996 -0.2065  0.1021
  887loPI    C112829   2.998   6.823   5.502 -0.3116  0.0093  0.1210
  887loPI    C212830   3.188   7.029   5.788 -0.0932 -0.0350  0.0101
  887loPI    C312831   3.051   7.218   5.463 -0.0852 -0.0300  0.0096
  887loPI   PO412832   2.824   6.635   5.753 -0.0976  0.0523 -0.0416
  887loPI   GL112833   2.840   6.407   6.225 -0.0227  0.1017 -0.0502
  887loPI   GL212834   2.816   6.247   6.526  0.0302 -0.0343  0.2361
  887loPI   C1A12835   2.645   6.725   6.437  0.1525 -0.1186 -0.3998
  887loPI   C2A12836   2.656   7.178   6.557 -0.0181  0.0389 -0.1368
  887loPI   C3A12837   2.617   7.370   6.872 -0.1249 -0.0084 -0.2964
  887loPI   C4A12838   2.610   7.362   7.295 -0.1567  0.2099  0.0371
  887loPI   C5A12839   2.683   7.430   7.673  0.1342 -0.0626  0.3071
  887loPI   C6A12840   2.877   7.354   8.086  0.1665 -0.0973  0.2159
  887loPI   C1B12841   2.774   6.223   6.891  0.0516 -0.3001  0.0035
  887loPI   C2B12842   2.866   6.208   7.272 -0.3092  0.2625  0.0097
  887loPI   C3B12843   3.010   6.095   7.609  0.4615  0.0344 -0.1097
  887loPI   C4B12844   2.826   5.982   8.090 -0.0881 -0.1502  0.3733
  888loPI    C112845   1.754  10.488   5.880 -0.0298 -0.0560  0.1361
  888loPI    C212846   1.983  10.507   5.553  0.1683 -0.0274  0.2745
  888loPI    C312847   1.606  10.374   5.526  0.1918 -0.0512  0.0407
  888loPI   PO412848   1.743  10.765   6.000  0.0702  0.3385  0.0641
  888loPI   GL112849   1.719  10.996   6.429 -0.0801 -0.0486  0.0705
  888loPI   GL212850   1.810  10.815   6.651  0.0330 -0.0164  0.0284
  888loPI   C1A12851   1.688  11.370   6.669 -0.1469 -0.1361 -0.2234
  888loPI   C2A12852   1.660  11.562   7.138  0.0711  0.1715 -0.0903
  888loPI   C3A12853   1.691  11.710   7.599 -0.1086 -0.0964 -0.1789
  888loPI   C4A12854   1.648  11.518   8.004  0.1587  0.3073  0.3110
  888loPI   C5A12855   1.358  11.800   8.183  0.1385  0.0390 -0.1370
  888loPI   C6A12856   1.102  12.209   8.142  0.0081 -0.1814  0.1418
  888loPI   C1B12857   1.737  11.011   6.992  0.0250  0.0894 -0.3492
  888loPI   C2B12858   1.621  10.983   7.429  0.3018  0.1185  0.0532
  888loPI   C3B12859   1.596  11.042   7.865 -0.2748 -0.0316  0.2401
  888loPI   C4B12860   1.618  10.993   8.270 -0.1289  0.1550  0.0571
  889loPI    C112861   1.915  13.643   5.477  0.1443 -0.0599  0.3033
  889loPI    C212862   1.988  13.288   5.307  0.0312  0.0259  0.0715
  889loPI    C312863   1.692  13.519   5.168  0.1001  0.2087  0.2249
  889loPI   PO412864   1.886  13.595   5.706 -0.3306  0.1174 -0.0306
  889loPI   GL112865   2.021  13.495   6.025 -0.0681 -0.2371 -0.2957
  889loPI   GL212866   2.200  13.293   6.237 -0.1655  0.2550 -0.1017
  889loPI   C1A12867   1.853  13.571   6.456 -0.0091 -0.1259  0.4336
  889loPI   C2A12868   1.973  13.700   6.871 -0.3108 -0.0989 -0.1366
  889loPI   C3A12869   1.895  13.636   7.310 -0.3313  0.2784 -0.3313
  889loPI   C4A12870   1.803  13.677   7.721  0.2429 -0.1410 -0.2559
  889loPI   C5A12871   1.517  13.954   7.915 -0.3245 -0.2448 -0.1374
  889loPI   C6A12872   1.398  14.282   8.250  0.0808 -0.1561 -0.1047
  889loPI   C1B12873   2.014  13.125   6.650  0.1787 -0.1818  0.0669
  889loPI   C2B12874   1.951  13.184   7.067  0.1153 -0.0930 -0.0932
  889loPI   C3B12875   1.960  13.136   7.430  0.2219 -0.1268 -0.0619
  889loPI   C4B12876   1.966  13.001   7.824  0.0841 -0.1909 -0.1098
  890loPI    C112877   2.982   5.634   5.811  0.1843 -0.0989  0.0378
  890loPI    C212878   3.188   5.334   5.646  0.0659 -0.0915 -0.1262
  890loPI    C312879   2.812   5.405   5.531 -0.0314 -0.1072  0.1729
  890loPI   PO412880   2.950   5.505   6.082  0.4234 -0.1233  0.2723
  890loPI   GL112881   2.987   5.294   6.419 -0.1959 -0.0132 -0.0689
  890loPI   GL212882   2.949   5.663   6.537  0.2946  0.0771  0.1365
  890loPI   C1A12883   3.271   5.357   6.821  0.0020  0.0001  0.3436
  890loPI   C2A12884   3.239   5.252   7.237 -0.0117  0.5744 -0.1430
  890loPI   C3A12885   3.368   5.358   7.650  0.3019  0.3022 -0.0316
  890loPI   C4A12886   3.305   5.397   8.045 -0.1162 -0.1494  0.0942
  890loPI   C5A12887   3.046   5.166   8.249  0.0740 -0.2724 -0.0460
  890loPI   C6A12888   2.783   4.845   8.076 -0.1765  0.1598 -0.0673
  890loPI   C1B12889   2.993   5.686   6.976  0.0346  0.4077 -0.0539
  890loPI   C2B12890   3.029   5.645   7.426  0.2877 -0.0558  0.2264
  890loPI   C3B12891   2.895   5.560   7.873  0.2160  0.1728 -0.1459
  890loPI   C4B12892   2.669   5.455   8.270  0.2000 -0.0748 -0.0188
  891loPI    C112893  17.757  14.540   5.189  0.2941 -0.0304 -0.1653
  891loPI    C212894  17.420  14.362   5.067  0.2720 -0.3029  0.2704
  891loPI    C312895  17.709  14.146   5.239  0.4520  0.0110  0.3710
  891loPI   PO412896  17.633  14.778   5.342  0.3204  0.2201  0.0668
  891loPI   GL112897  17.418  14.857   5.740 -0.0580  0.0206 -0.0940
  891loPI   GL212898  17.532  14.639   5.993  0.1158  0.1990  0.2081
  891loPI   C1A12899  17.169  14.953   6.143 -0.0978 -0.1408  0.1884
  891loPI   C2A12900  17.204  15.012   6.554 -0.0074 -0.1304 -0.3970
  891loPI   C3A12901  17.108  15.044   7.008 -0.2841  0.0508 -0.0471
  891loPI   C4A12902  17.014  14.812   7.379  0.0162  0.2451  0.1121
  891loPI   C5A12903  17.013  14.451   7.688  0.2998 -0.0556 -0.0854
  891loPI   C6A12904  17.342  14.266   7.968  0.2357  0.1163 -0.1921
  891loPI   C1B12905  17.614  14.747   6.410 -0.0023 -0.0970  0.2567
  891loPI   C2B12906  17.563  14.707   6.713 -0.2347 -0.0366  0.0824
  891loPI   C3B12907  17.552  14.825   7.096 -0.1621 -0.0484 -0.2609
  891loPI   C4B12908  17.610  14.738   7.435 -0.0818 -0.0610  0.2046
  892loPI    C112909   4.234  14.316   5.616 -0.2781  0.0863  0.0314
  892loPI    C212910   4.487  14.491   5.360  0.0322 -0.3261  0.0450
  892loPI    C312911   4.093  14.501   5.290  0.0291  0.4256  0.0842
  892loPI   PO412912   4.268  14.403   5.829 -0.0002 -0.0595 -0.1542
  892loPI   GL112913   4.116  14.698   6.129  0.1710 -0.0193  0.1057
  892loPI   GL212914   4.414  14.749   6.186 -0.1979 -0.3747 -0.0540
  892loPI   C1A12915   4.182  14.591   6.565  0.3913  0.2111  0.0696
  892loPI   C2A12916   4.355  14.507   7.014  0.2503 -0.1336  0.1196
  892loPI   C3A12917   4.480  14.415   7.441 -0.0270  0.1681 -0.0017
  892loPI   C4A12918   4.549  14.402   7.791  0.2052 -0.1409  0.3416
  892loPI   C5A12919   4.429  14.527   8.255 -0.0897 -0.0913 -0.2686
  892loPI   C6A12920   4.261  14.930   8.353  0.0018 -0.3903  0.0794
  892loPI   C1B12921   4.522  14.946   6.545  0.1619  0.1659 -0.4066
  892loPI   C2B12922   4.490  15.039   6.945 -0.0594  0.0328  0.0301
  892loPI   C3B12923   4.434  14.945   7.425 -0.1119 -0.1777  0.0364
  892loPI   C4B12924   4.277  14.876   7.869  0.1605 -0.1616  0.1089
  893loPI    C112925  12.124   8.568   5.386  0.1641  0.0045 -0.0976
  893loPI    C212926  12.178   8.589   4.990  0.0243  0.1233 -0.1115
  893loPI    C312927  11.915   8.329   5.142  0.2409 -0.0809 -0.0801
  893loPI   PO412928  12.424   8.585   5.448  0.1777  0.1075 -0.1948
  893loPI   GL112929  12.613   8.604   5.821  0.1728  0.1414  0.1601
  893loPI   GL212930  12.735   8.849   5.836  0.1090 -0.0091  0.0266
  893loPI   C1A12931  12.553   8.575   6.277  0.1178 -0.0282 -0.2432
  893loPI   C2A12932  12.611   8.607   6.731 -0.1863 -0.0659 -0.1184
  893loPI   C3A12933  12.482   8.529   7.126  0.0355 -0.2310  0.0526
  893loPI   C4A12934  12.499   8.482   7.571  0.0776 -0.4501 -0.2634
  893loPI   C5A12935  12.660   8.712   7.911 -0.1566 -0.1399 -0.0876
  893loPI   C6A12936  12.726   8.752   8.325 -0.0281 -0.2113  0.0000
  893loPI   C1B12937  12.815   8.986   6.240 -0.5571 -0.2806 -0.2132
  893loPI   C2B12938  12.827   9.066   6.706  0.0345  0.1514  0.0777
  893loPI   C3B12939  12.763   9.057   7.153 -0.0708  0.2692  0.1525
  893loPI   C4B12940  12.763   9.120   7.636 -0.0798  0.3059 -0.0638
  894loPI    C112941   3.976  15.837   5.656 -0.1416  0.1487 -0.2346
  894loPI    C212942   4.317  16.001   5.526  0.0156  0.0209  0.0104
  894loPI    C312943   4.021  15.927   5.268  0.1335  0.2247 -0.1873
  894loPI   PO412944   3.900  15.946   5.891 -0.1460  0.4071  0.1664
  894loPI   GL112945   3.826  15.968   6.371 -0.0686  0.0471 -0.0061
  894loPI   GL212946   4.114  15.677   6.254  0.0023  0.0892 -0.0426
  894loPI   C1A12947   3.507  15.948   6.682  0.0928  0.2119  0.1290
  894loPI   C2A12948   3.538  15.765   7.070 -0.1806 -0.0646 -0.3587
  894loPI   C3A12949   3.481  15.520   7.451  0.1622 -0.0722 -0.2492
  894loPI   C4A12950   3.519  15.488   7.848  0.2015  0.0640  0.1208
  894loPI   C5A12951   3.433  15.682   8.246 -0.0438  0.1140  0.0522
  894loPI   C6A12952   3.359  15.694   8.631  0.0932  0.0720 -0.1997
  894loPI   C1B12953   3.876  15.524   6.676 -0.0521 -0.1509  0.1205
  894loPI   C2B12954   3.852  15.348   7.043  0.0491  0.1802  0.2315
  894loPI   C3B12955   3.908  15.258   7.548 -0.2220  0.0602 -0.1270
  894loPI   C4B12956   3.992  15.226   8.019  0.1409  0.0651 -0.1216
  895loPI    C112957  13.542   0.109   5.509  0.1529 -0.2416 -0.0527
  895loPI    C212958  13.941   0.133   5.511  0.1383  0.0491  0.1892
  895loPI    C312959  13.723   0.420   5.685 -0.1807 -0.0500 -0.0383
  895loPI   PO412960  13.462  -0.122   5.637  0.0276  0.0940 -0.3261
  895loPI   GL112961  13.487  -0.185   6.152  0.2686 -0.2174  0.1877
  895loPI   GL212962  13.623   0.111   6.158 -0.2374 -0.1092 -0.1379
  895loPI   C1A12963  13.425  -0.140   6.567 -0.1009  0.1576 -0.0203
  895loPI   C2A12964  13.416   0.064   6.931 -0.3505  0.0130  0.0023
  895loPI   C3A12965  13.427   0.108   7.343 -0.1147  0.0393  0.0168
  895loPI   C4A12966  13.582   0.432   7.592 -0.3243 -0.2105 -0.1279
  895loPI   C5A12967  13.727   0.810   7.673 -0.0177  0.0420 -0.0428
  895loPI   C6A12968  13.728   1.239   7.945  0.1142 -0.0698  0.1002
  895loPI   C1B12969  13.488   0.509   6.224 -0.1862  0.1475 -0.1199
  895loPI   C2B12970  13.443   0.559   6.532 -0.1213  0.0574 -0.1255
  895loPI   C3B12971  13.371   0.640   7.031  0.0411 -0.0203  0.1684
  895loPI   C4B12972  13.257   0.773   7.410  0.0484 -0.1392 -0.0072
  896loPI    C112973   8.541  14.087   6.098 -0.1402 -0.3211  0.0624
  896loPI    C212974   8.244  14.126   6.362 -0.0304 -0.1509  0.1628
  896loPI    C312975   8.164  14.128   5.970 -0.1428  0.0818  0.1851
  896loPI   PO412976   8.773  14.259   6.152 -0.0635  0.3757  0.0727
  896loPI   GL112977   9.140  14.260   6.430  0.1752  0.1455  0.3521
  896loPI   GL212978   9.402  14.388   6.479 -0.0366 -0.0744 -0.0240
  896loPI   C1A12979   9.007  14.133   6.857  0.1993 -0.1342  0.1211
  896loPI   C2A12980   9.136  14.092   7.287  0.1299  0.0666 -0.0098
  896loPI   C3A12981   9.074  14.155   7.680 -0.0064 -0.2486  0.2055
  896loPI   C4A12982   9.018  14.021   8.136  0.1569 -0.2696  0.0566
  896loPI   C5A12983   9.407  13.806   8.438 -0.1430 -0.0331 -0.1414
  896loPI   C6A12984   9.548  13.449   8.402  0.0900  0.2870  0.2409
  896loPI   C1B12985   9.450  14.116   6.885 -0.2239  0.0282 -0.0130
  896loPI   C2B12986   9.693  14.224   7.247 -0.2243 -0.2026  0.1985
  896loPI   C3B12987   9.691  14.354   7.714  0.2592  0.0995 -0.4006
  896loPI   C4B12988   9.509  14.154   8.100  0.0318 -0.2354  0.0320
  897loPI    C112989  13.226  17.500   5.357 -0.1905  0.1087  0.3272
  897loPI    C212990  13.278  17.848   5.168  0.5446  0.1145  0.5103
  897loPI    C312991  13.336  17.503   4.973  0.2082  0.0968  0.4365
  897loPI   PO412992  12.948  17.530   5.451  0.3204 -0.1815  0.0335
  897loPI   GL112993  12.752  17.614   5.795  0.1217  0.1615  0.0667
  897loPI   GL212994  13.073  17.608   5.923  0.0833  0.1743  0.0753
  897loPI   C1A12995  12.634  17.882   6.088  0.0039 -0.0592  0.2735
  897loPI   C2A12996  12.581  17.880   6.483 -0.0819 -0.4338 -0.0505
  897loPI   C3A12997  12.499  17.899   6.937 -0.1564 -0.0797  0.0541
  897loPI   C4A12998  12.530  17.878   7.360 -0.0646  0.0116  0.0739
  897loPI   C5A12999  12.815  17.960   7.663 -0.1232  0.0171  0.1944
  897loPI   C6A13000  13.176  18.270   7.854 -0.0976 -0.2601 -0.1000
  897loPI   C1B13001  12.978  17.559   6.301 -0.0232  0.3072  0.1607
  897loPI   C2B13002  12.915  17.594   6.785 -0.1274 -0.1564 -0.0288
  897loPI   C3B13003  12.732  17.475   7.177  0.0183  0.3229  0.0073
  897loPI   C4B13004  12.707  17.459   7.611 -0.1327 -0.3481 -0.0184
  898loPI    C113005   8.850   6.266   5.045  0.0056  0.0401 -0.1278
  898loPI    C213006   9.203   6.146   4.900  0.0447 -0.0009 -0.0010
  898loPI    C313007   8.905   5.883   4.943  0.1144 -0.0443  0.2303
  898loPI   PO413008   8.875   6.422   5.299  0.1049  0.0025 -0.0284
  898loPI   GL113009   8.764   6.307   5.736 -0.2123  0.0178  0.0856
  898loPI   GL213010   8.773   6.701   5.759  0.0637 -0.1848  0.0187
  898loPI   C1A13011   8.851   6.052   6.054  0.1417 -0.2177 -0.0258
  898loPI   C2A13012   8.910   6.187   6.416  0.0300  0.1278 -0.1511
  898loPI   C3A13013   8.944   6.168   6.843  0.1077 -0.1002  0.4690
  898loPI   C4A13014   9.034   6.208   7.296 -0.1398 -0.0217  0.1225
  898loPI   C5A13015   9.005   6.219   7.794 -0.1034 -0.0571 -0.1336
  898loPI   C6A13016   9.027   5.932   8.062 -0.0845 -0.1904 -0.0725
  898loPI   C1B13017   8.727   6.581   6.187 -0.1302 -0.2054 -0.1216
  898loPI   C2B13018   8.791   6.632   6.637  0.0234 -0.0540 -0.2197
  898loPI   C3B13019   8.829   6.683   7.157 -0.1814  0.2855 -0.1150
  898loPI   C4B13020   8.904   6.703   7.616  0.1927 -0.2511  0.1099
  899loPI    C113021   1.658   4.213   5.493 -0.1962  0.1448  0.0122
  899loPI    C213022   1.876   3.878   5.484 -0.3075  0.0720  0.0138
  899loPI    C313023   1.972   4.185   5.246 -0.1433  0.0781  0.0867
  899loPI   PO413024   1.625   4.223   5.742 -0.3080 -0.0346 -0.0689
  899loPI   GL113025   1.535   3.987   6.165  0.1686 -0.0413  0.1461
  899loPI   GL213026   1.674   3.727   6.237 -0.1703  0.3519  0.3234
  899loPI   C1A13027   1.695   4.110   6.629 -0.1813  0.1027 -0.1572
  899loPI   C2A13028   1.796   4.043   7.019 -0.1711 -0.2805  0.0125
  899loPI   C3A13029   1.817   3.923   7.485  0.1056 -0.0857  0.1973
  899loPI   C4A13030   2.228   3.908   7.822  0.0598 -0.2951 -0.1930
  899loPI   C5A13031   2.426   3.735   8.190 -0.1402 -0.0949 -0.3442
  899loPI   C6A13032   2.728   3.874   8.456  0.5289  0.3360  0.1763
  899loPI   C1B13033   2.040   3.727   6.591 -0.0443  0.0447 -0.0352
  899loPI   C2B13034   2.166   3.687   6.963 -0.0419  0.3504 -0.2360
  899loPI   C3B13035   2.306   3.498   7.388  0.0109 -0.2762  0.0906
  899loPI   C4B13036   2.530   3.491   7.804 -0.1908 -0.1358  0.1127
  900loPI    C113037   3.772  13.462   5.625  0.1130  0.1174 -0.0191
  900loPI    C213038   3.447  13.681   5.544  0.0209  0.0213  0.0855
  900loPI    C313039   3.550  13.379   5.303 -0.1526 -0.1529  0.2265
  900loPI   PO413040   3.690  13.461   5.878 -0.1907 -0.2145 -0.0359
  900loPI   GL113041   3.826  13.619   6.310 -0.3115  0.1124 -0.0359
  900loPI   GL213042   3.609  13.865   6.126  0.1524 -0.1018  0.1899
  900loPI   C1A13043   4.002  13.591   6.556  0.0627  0.0804  0.0197
  900loPI   C2A13044   4.375  13.536   6.780  0.0069  0.0254 -0.0651
  900loPI   C3A13045   4.341  13.600   7.190 -0.0903 -0.0142 -0.0214
  900loPI   C4A13046   4.171  13.521   7.560 -0.1903 -0.1753 -0.0048
  900loPI   C5A13047   4.088  13.233   7.958 -0.1921 -0.0500 -0.1457
  900loPI   C6A13048   4.373  13.051   8.312 -0.1043 -0.0766  0.0659
  900loPI   C1B13049   3.705  14.091   6.465  0.2602  0.3546 -0.5735
  900loPI   C2B13050   3.779  13.919   6.818 -0.0210  0.2670  0.0142
  900loPI   C3B13051   3.727  13.829   7.182 -0.1495 -0.0373  0.4988
  900loPI   C4B13052   3.561  13.835   7.471 -0.1247  0.0449 -0.1469
  901loPI    C113053   5.190   8.059   5.653 -0.0589  0.0384 -0.0044
  901loPI    C213054   5.450   8.126   5.357 -0.2909  0.1393 -0.1881
  901loPI    C313055   5.065   8.220   5.310 -0.3370  0.1224  0.1341
  901loPI   PO413056   5.352   7.914   5.914  0.0925 -0.2381 -0.1548
  901loPI   GL113057   5.364   7.488   6.038 -0.2335 -0.1943 -0.0340
  901loPI   GL213058   5.157   7.669   6.331  0.0638  0.1119 -0.1622
  901loPI   C1A13059   5.440   7.284   6.470 -0.0923  0.0455  0.0759
  901loPI   C2A13060   5.475   7.279   6.877 -0.0003  0.2292 -0.1301
  901loPI   C3A13061   5.439   7.223   7.266 -0.1662 -0.1838 -0.0079
  901loPI   C4A13062   5.579   7.176   7.594  0.0351  0.0355  0.0422
  901loPI   C5A13063   5.822   7.176   8.016 -0.1733  0.0525 -0.0063
  901loPI   C6A13064   6.141   7.073   8.228 -0.0056 -0.0098 -0.1255
  901loPI   C1B13065   5.173   7.594   6.722  0.2975  0.3125  0.0234
  901loPI   C2B13066   5.149   7.608   7.159  0.1046 -0.3231  0.2293
  901loPI   C3B13067   5.194   7.653   7.605  0.0315 -0.1018  0.0412
  901loPI   C4B13068   4.941   7.721   7.930  0.0982 -0.0340  0.0801
  902loPI    C113069  10.469  13.619   5.772 -0.2793 -0.1453  0.0003
  902loPI    C213070  10.557  13.349   5.490 -0.0615 -0.0552 -0.0196
  902loPI    C313071  10.200  13.530   5.489 -0.2152 -0.3529  0.0030
  902loPI   PO413072  10.625  13.503   5.992  0.3642 -0.0201 -0.0943
  902loPI   GL113073  10.898  13.454   6.320 -0.2851 -0.0980 -0.1313
  902loPI   GL213074  11.126  13.460   6.170 -0.0766  0.2450 -0.2734
  902loPI   C1A13075  10.971  13.914   6.565  0.0219 -0.2264  0.0476
  902loPI   C2A13076  11.037  13.988   6.966  0.0654  0.1923 -0.1477
  902loPI   C3A13077  11.070  14.249   7.257 -0.2765 -0.0782  0.3820
  902loPI   C4A13078  11.396  14.350   7.508 -0.0755  0.0715  0.1544
  902loPI   C5A13079  11.666  14.317   7.929 -0.0358  0.1223  0.0158
  902loPI   C6A13080  12.070  14.372   8.237 -0.1839  0.0998 -0.0673
  902loPI   C1B13081  11.263  13.218   6.550 -0.0949 -0.0398 -0.0269
  902loPI   C2B13082  11.056  13.471   6.832  0.1179 -0.0195 -0.0746
  902loPI   C3B13083  10.989  13.588   7.296 -0.1190 -0.0260 -0.4764
  902loPI   C4B13084  11.160  13.492   7.631  0.0026  0.0583 -0.0166
  903loPI    C113085  12.097  11.881   5.518  0.0741 -0.1624  0.1323
  903loPI    C213086  11.972  11.621   5.795  0.1704 -0.3291  0.0214
  903loPI    C313087  11.787  11.640   5.441  0.0598 -0.1301  0.0883
  903loPI   PO413088  12.105  12.093   5.638 -0.0018 -0.1393  0.0134
  903loPI   GL113089  12.114  12.135   6.058  0.0198 -0.4941  0.0118
  903loPI   GL213090  12.029  12.319   6.313  0.1470 -0.1192 -0.0755
  903loPI   C1A13091  12.156  11.713   6.314 -0.1409 -0.0275 -0.2044
  903loPI   C2A13092  12.126  11.538   6.721 -0.3467  0.2769  0.0123
  903loPI   C3A13093  12.033  11.657   7.152 -0.1383  0.3505  0.1987
  903loPI   C4A13094  11.789  11.787   7.444 -0.3718 -0.0488 -0.2896
  903loPI   C5A13095  11.608  11.599   7.767 -0.0365 -0.1162 -0.3548
  903loPI   C6A13096  11.398  11.646   8.150  0.1061  0.1132 -0.2503
  903loPI   C1B13097  12.163  12.058   6.714 -0.0726 -0.1115 -0.1188
  903loPI   C2B13098  12.217  12.116   7.212  0.0342  0.0755  0.0582
  903loPI   C3B13099  12.359  12.099   7.734  0.0319  0.2512 -0.0082
  903loPI   C4B13100  12.299  12.252   8.143 -0.3278 -0.1091  0.2762
  904loPI    C113101   6.278  15.360   5.663 -0.2067  0.1375  0.0220
  904loPI    C213102   6.366  15.734   5.550  0.1200 -0.0345 -0.3163
  904loPI    C313103   6.032  15.558   5.417  0.0273  0.0925 -0.2536
  904loPI   PO413104   6.281  15.313   5.926  0.1830 -0.2456 -0.0135
  904loPI   GL113105   6.209  15.537   6.324  0.2986  0.1965  0.0798
  904loPI   GL213106   6.337  15.238   6.423  0.0302  0.1969 -0.1247
  904loPI   C1A13107   6.223  15.664   6.675  0.1457 -0.2176  0.0812
  904loPI   C2A13108   6.294  15.622   7.100 -0.1388 -0.0984 -0.5016
  904loPI   C3A13109   6.359  15.606   7.552 -0.1978 -0.0114 -0.0668
  904loPI   C4A13110   6.531  15.519   7.842 -0.1747  0.0338  0.2146
  904loPI   C5A13111   6.397  15.442   8.293 -0.0018 -0.1198  0.0725
  904loPI   C6A13112   6.523  15.128   8.589  0.0992  0.0105 -0.1526
  904loPI   C1B13113   6.232  15.046   6.853  0.0626  0.0880 -0.2590
  904loPI   C2B13114   6.294  15.084   7.295 -0.1133 -0.0053 -0.0047
  904loPI   C3B13115   6.394  15.070   7.680 -0.0198 -0.1164 -0.0211
  904loPI   C4B13116   6.167  14.982   8.066  0.3138 -0.0750 -0.1950
  905loPI    C113117  15.269  10.785   5.491  0.1939  0.0824  0.1204
  905loPI    C213118  15.574  10.681   5.254  0.1450  0.0978  0.0506
  905loPI    C313119  15.354  11.004   5.167 -0.0500 -0.0582 -0.0408
  905loPI   PO413120  15.386  10.796   5.722  0.0725  0.2601  0.0439
  905loPI   GL113121  15.313  11.141   6.024  0.2631  0.3353  0.1525
  905loPI   GL213122  15.531  11.397   6.019 -0.1280  0.4057 -0.2126
  905loPI   C1A13123  15.272  11.004   6.449 -0.1474  0.0130  0.2419
  905loPI   C2A13124  15.425  11.060   6.896  0.0174 -0.1996 -0.3276
  905loPI   C3A13125  15.512  11.182   7.356  0.0678  0.3757 -0.4936
  905loPI   C4A13126  15.412  11.224   7.875 -0.0479  0.3221  0.3162
  905loPI   C5A13127  15.412  11.137   8.321 -0.1056 -0.3247 -0.3551
  905loPI   C6A13128  15.641  11.268   8.670 -0.1241  0.0698  0.1442
  905loPI   C1B13129  15.654  11.456   6.402  0.0254 -0.2086 -0.2880
  905loPI   C2B13130  15.852  11.246   6.645 -0.0442 -0.0906  0.0254
  905loPI   C3B13131  15.937  10.891   6.946  0.0620  0.2111  0.3094
  905loPI   C4B13132  16.033  10.614   7.283 -0.2093  0.0045  0.0650
  906loPI    C113133  13.208   3.715   5.253 -0.0072  0.0141 -0.1160
  906loPI    C213134  13.495   3.516   5.059  0.0225  0.0155 -0.0737
  906loPI    C313135  13.113   3.471   4.951  0.0330 -0.0317 -0.0919
  906loPI   PO413136  13.278   3.658   5.504 -0.0854 -0.0054 -0.1691
  906loPI   GL113137  13.431   3.870   5.883  0.2392 -0.1618  0.0362
  906loPI   GL213138  13.722   3.733   5.794 -0.2800 -0.1578  0.0281
  906loPI   C1A13139  13.487   3.969   6.281 -0.5773  0.1907  0.0475
  906loPI   C2A13140  13.681   4.275   6.536 -0.1586 -0.0019  0.0672
  906loPI   C3A13141  13.880   4.292   6.804 -0.1487  0.1472 -0.0213
  906loPI   C4A13142  14.107   4.515   7.189  0.0344 -0.1435 -0.0630
  906loPI   C5A13143  14.205   4.707   7.594  0.0005 -0.0971 -0.0811
  906loPI   C6A13144  14.145   4.777   8.131  0.0354 -0.0355 -0.3420
  906loPI   C1B13145  13.764   3.499   6.126 -0.1566 -0.0067  0.0364
  906loPI   C2B13146  13.674   3.174   6.364 -0.2350  0.4740 -0.1102
  906loPI   C3B13147  13.856   3.158   6.675 -0.1508  0.0478 -0.0538
  906loPI   C4B13148  13.753   3.184   7.095 -0.0543 -0.1453 -0.1123
  907loPI    C113149  12.553  17.350   5.300 -0.0886  0.0862  0.2975
  907loPI    C213150  12.392  17.677   5.465 -0.0792  0.2649 -0.0390
  907loPI    C313151  12.297  17.574   5.090  0.2028  0.0891 -0.0652
  907loPI   PO413152  12.491  17.131   5.530 -0.2663 -0.2730  0.3013
  907loPI   GL113153  12.541  16.989   5.871  0.1603 -0.1689 -0.1594
  907loPI   GL213154  12.240  16.896   6.017  0.0901  0.1907  0.1786
  907loPI   C1A13155  12.814  17.132   6.109 -0.1523 -0.0546  0.3586
  907loPI   C2A13156  12.884  17.108   6.536  0.1106 -0.0809  0.0062
  907loPI   C3A13157  12.951  17.048   6.985 -0.1835 -0.0635 -0.1544
  907loPI   C4A13158  12.987  16.998   7.362 -0.0170 -0.0590  0.1531
  907loPI   C5A13159  12.910  17.034   7.853  0.0724  0.2778 -0.4536
  907loPI   C6A13160  12.631  17.267   8.165 -0.1890  0.1726 -0.2020
  907loPI   C1B13161  12.382  16.920   6.450  0.1512  0.0634  0.0012
  907loPI   C2B13162  12.495  16.871   6.888 -0.3645 -0.0526  0.1126
  907loPI   C3B13163  12.456  17.022   7.285 -0.2758 -0.0288  0.1288
  907loPI   C4B13164  12.443  17.025   7.659 -0.1682 -0.1782 -0.1212
  908loPI    C113165   9.151   1.237   5.593  0.0902  0.0098 -0.3473
  908loPI    C213166   9.488   1.278   5.381  0.2191 -0.2038 -0.1885
  908loPI    C313167   9.136   1.245   5.194  0.2608  0.2147 -0.3517
  908loPI   PO413168   9.067   1.515   5.693  0.2390  0.0708 -0.3836
  908loPI   GL113169   8.955   1.794   5.949  0.1210 -0.2227  0.0274
  908loPI   GL213170   9.162   2.047   5.951  0.0961  0.0804 -0.1336
  908loPI   C1A13171   8.970   1.709   6.448 -0.0878 -0.1943 -0.0924
  908loPI   C2A13172   9.019   1.577   6.777  0.1386 -0.0344 -0.1469
  908loPI   C3A13173   9.091   1.641   7.186  0.0631 -0.0891 -0.1534
  908loPI   C4A13174   9.021   1.760   7.671  0.1412 -0.1395 -0.2609
  908loPI   C5A13175   9.203   1.909   8.103  0.0809  0.0733  0.1120
  908loPI   C6A13176   9.264   2.334   8.209  0.1108  0.0858 -0.2508
  908loPI   C1B13177   9.222   2.150   6.351 -0.1355  0.1341  0.2017
  908loPI   C2B13178   9.309   2.412   6.734  0.2259 -0.0779  0.2868
  908loPI   C3B13179   9.506   2.497   7.139  0.0734 -0.1504  0.4034
  908loPI   C4B13180   9.512   2.345   7.460 -0.0473  0.3261  0.0100
  909loPI    C113181   8.590  11.131   5.765 -0.0513 -0.0797 -0.1481
  909loPI    C213182   8.681  11.066   5.381  0.1773  0.5154 -0.2039
  909loPI    C313183   8.385  11.317   5.476 -0.1327  0.0791  0.0107
  909loPI   PO413184   8.810  11.169   5.886  0.0321 -0.1308  0.1061
  909loPI   GL113185   8.824  11.360   6.205 -0.0868 -0.3123  0.2119
  909loPI   GL213186   9.022  11.113   6.388  0.0889 -0.1873 -0.2765
  909loPI   C1A13187   8.767  11.535   6.561  0.0536 -0.1517  0.0076
  909loPI   C2A13188   8.833  11.428   7.025 -0.1816  0.0030 -0.0919
  909loPI   C3A13189   8.839  11.479   7.529 -0.4128  0.2080  0.3190
  909loPI   C4A13190   8.690  11.346   7.917  0.0046  0.3049 -0.2942
  909loPI   C5A13191   8.519  11.287   8.408 -0.0855  0.0637  0.3813
  909loPI   C6A13192   8.132  11.328   8.569 -0.1159 -0.0617  0.1145
  909loPI   C1B13193   8.862  10.984   6.808 -0.1482 -0.0715  0.3929
  909loPI   C2B13194   8.971  10.864   7.270  0.1561 -0.2446  0.2601
  909loPI   C3B13195   8.833  10.933   7.629  0.3744  0.3494  0.1653
  909loPI   C4B13196   8.374  10.963   7.743 -0.0614 -0.1263  0.1561
  910loPI    C113197  14.694  16.005   5.473  0.0406  0.0727 -0.0366
  910loPI    C213198  14.508  16.035   5.120  0.0127  0.0110 -0.0272
  910loPI    C313199  14.875  15.877   5.140 -0.0021 -0.0227 -0.0233
  910loPI   PO413200  14.527  15.914   5.718  0.0281  0.0948 -0.0601
  910loPI   GL113201  14.490  15.871   6.145  0.1483 -0.1841 -0.0206
  910loPI   GL213202  14.701  15.625   6.092 -0.0297  0.0946 -0.0750
  910loPI   C1A13203  14.461  15.897   6.571 -0.0210 -0.0670  0.0026
  910loPI   C2A13204  14.294  15.967   6.965 -0.1842  0.1573  0.1021
  910loPI   C3A13205  14.138  16.035   7.332  0.0161  0.0285  0.1501
  910loPI   C4A13206  14.003  16.132   7.756 -0.2508  0.3240 -0.1233
  910loPI   C5A13207  13.737  15.983   8.044  0.0020 -0.1418  0.0657
  910loPI   C6A13208  13.355  15.856   8.171  0.0988  0.0423 -0.1398
  910loPI   C1B13209  14.911  15.713   6.422 -0.1967 -0.1083 -0.0926
  910loPI   C2B13210  15.086  15.621   6.730 -0.0066 -0.2079 -0.0786
  910loPI   C3B13211  15.279  15.649   7.104  0.0861 -0.2233 -0.0580
  910loPI   C4B13212  15.189  15.731   7.505 -0.0462  0.1594 -0.0741
  911loPI    C113213   3.563   5.334   6.162 -0.2181  0.1274 -0.3237
  911loPI    C213214   3.913   5.354   5.970 -0.0649  0.1768 -0.0446
  911loPI    C313215   3.613   5.138   5.818  0.1363  0.0102 -0.2092
  911loPI   PO413216   3.534   5.642   6.230 -0.1961 -0.0885 -0.0275
  911loPI   GL113217   3.456   5.718   6.547  0.1138  0.1735 -0.1794
  911loPI   GL213218   3.340   5.933   6.680  0.2324  0.2075  0.1064
  911loPI   C1A13219   3.716   5.720   6.916  0.0548  0.1239 -0.1449
  911loPI   C2A13220   3.902   5.984   7.335 -0.0025 -0.0784 -0.1314
  911loPI   C3A13221   3.927   5.991   7.798  0.3580 -0.2266 -0.1768
  911loPI   C4A13222   3.987   5.600   8.125  0.0304 -0.2909 -0.1329
  911loPI   C5A13223   3.930   5.272   8.441 -0.0745  0.0450  0.3085
  911loPI   C6A13224   3.980   4.955   8.619 -0.1255  0.2767  0.2286
  911loPI   C1B13225   3.361   6.000   7.166 -0.0442 -0.0887 -0.0308
  911loPI   C2B13226   3.492   5.822   7.560  0.4322  0.1775  0.1584
  911loPI   C3B13227   3.402   5.903   7.997 -0.4192  0.2656  0.1713
  911loPI   C4B13228   3.524   5.680   8.359 -0.0709 -0.0195 -0.0304
  912loPI    C113229   1.933   9.818   6.103  0.0020 -0.0038 -0.1251
  912loPI    C213230   1.956   9.669   5.733  0.0310  0.0788 -0.1569
  912loPI    C313231   1.740   9.998   5.803  0.0781  0.1004 -0.1122
  912loPI   PO413232   2.159   9.697   6.237  0.0379  0.0035 -0.0273
  912loPI   GL113233   2.271   9.977   6.586 -0.1692 -0.0528  0.2005
  912loPI   GL213234   2.268  10.335   6.602  0.2784  0.1270  0.3167
  912loPI   C1A13235   2.215  10.032   7.033  0.2427  0.3897 -0.0568
  912loPI   C2A13236   2.313   9.932   7.458  0.0069 -0.1992  0.0254
  912loPI   C3A13237   2.194   9.918   7.954 -0.1295 -0.1642 -0.0401
  912loPI   C4A13238   2.130   9.775   8.409 -0.0835  0.0419  0.0496
  912loPI   C5A13239   2.098  10.083   8.783  0.0854  0.2782  0.1919
  912loPI   C6A13240   2.214  10.249   9.156 -0.1011  0.0486 -0.0080
  912loPI   C1B13241   2.506  10.451   7.002  0.0277  0.1967  0.0323
  912loPI   C2B13242   2.594  10.782   7.305  0.3099  0.1507  0.3901
  912loPI   C3B13243   2.580  10.854   7.674  0.0828 -0.2719 -0.2266
  912loPI   C4B13244   2.518  10.816   8.033 -0.0816  0.0422 -0.1579
  913loPI    C113245   7.837   3.970   5.054  0.0210  0.1520  0.1736
  913loPI    C213246   8.171   4.185   5.105  0.1946 -0.0194 -0.2025
  913loPI    C313247   7.993   4.173   4.746 -0.1800  0.0132 -0.0232
  913loPI   PO413248   7.784   3.924   5.214 -0.2552 -0.1007  0.2591
  913loPI   GL113249   7.897   4.218   5.541  0.1864 -0.1587  0.1294
  913loPI   GL213250   8.110   4.163   5.691 -0.2182 -0.1651 -0.1887
  913loPI   C1A13251   7.713   4.256   5.997 -0.0675 -0.0907 -0.0150
  913loPI   C2A13252   7.843   4.419   6.400 -0.0326  0.2276  0.1608
  913loPI   C3A13253   7.902   4.443   6.792  0.1020  0.0056 -0.3926
  913loPI   C4A13254   7.921   4.459   7.237 -0.0384 -0.0535  0.2103
  913loPI   C5A13255   8.009   4.114   7.614  0.0987  0.0299 -0.1024
  913loPI   C6A13256   8.191   3.863   7.904 -0.0706  0.0337 -0.2583
  913loPI   C1B13257   8.186   4.246   6.120  0.1117 -0.1294 -0.1138
  913loPI   C2B13258   8.427   4.221   6.571  0.3958 -0.2588  0.2601
  913loPI   C3B13259   8.439   4.141   6.996 -0.1649 -0.2060 -0.0517
  913loPI   C4B13260   8.461   4.384   7.309  0.0532 -0.0943  0.0693
  914loPI    C113261  12.071  16.145   5.599  0.0734 -0.0772 -0.0985
  914loPI    C213262  12.176  15.812   5.403  0.3264 -0.0925  0.0585
  914loPI    C313263  12.168  16.163   5.212 -0.0550 -0.2025 -0.1374
  914loPI   PO413264  11.849  16.051   5.712  0.4865 -0.1447 -0.3391
  914loPI   GL113265  11.618  15.910   6.155  0.0896  0.3232  0.1553
  914loPI   GL213266  11.834  16.122   6.260  0.0081  0.0608 -0.3547
  914loPI   C1A13267  11.497  15.861   6.677  0.0617  0.1275 -0.1166
  914loPI   C2A13268  11.474  15.860   7.090 -0.1619 -0.0694  0.1613
  914loPI   C3A13269  11.705  15.746   7.426  0.1923  0.1035 -0.2931
  914loPI   C4A13270  11.644  15.726   7.886 -0.2138  0.3108  0.0695
  914loPI   C5A13271  11.397  15.882   8.237 -0.1727 -0.3872 -0.0507
  914loPI   C6A13272  11.120  16.149   8.503 -0.1928  0.0515 -0.0005
  914loPI   C1B13273  11.970  16.136   6.601  0.0020  0.2274 -0.0114
  914loPI   C2B13274  11.947  16.100   7.081  0.1666 -0.1005 -0.2223
  914loPI   C3B13275  12.082  16.119   7.464 -0.0711 -0.0526  0.0936
  914loPI   C4B13276  12.144  16.098   7.890 -0.2048 -0.0006  0.0158
  915loPI    C113277  12.805  16.751   5.404  0.0502 -0.0703  0.0596
  915loPI    C213278  12.635  16.444   5.212  0.0111  0.0816 -0.1524
  915loPI    C313279  12.536  16.819   5.116  0.1964  0.1648 -0.0240
  915loPI   PO413280  12.789  16.622   5.675  0.2522 -0.2787 -0.1581
  915loPI   GL113281  12.606  16.522   6.058 -0.0451 -0.2782  0.0488
  915loPI   GL213282  12.311  16.362   6.003  0.0352 -0.1414  0.3838
  915loPI   C1A13283  12.684  16.543   6.565  0.0968 -0.1455 -0.1290
  915loPI   C2A13284  12.809  16.472   6.941 -0.0924  0.4251 -0.3029
  915loPI   C3A13285  12.709  16.596   7.327  0.0853 -0.0637  0.3128
  915loPI   C4A13286  12.861  16.592   7.691 -0.0787  0.0868  0.1629
  915loPI   C5A13287  12.651  16.594   8.056  0.0142  0.1071 -0.0048
  915loPI   C6A13288  12.709  16.430   8.350  0.0394  0.0057 -0.0169
  915loPI   C1B13289  12.205  16.466   6.366 -0.0898  0.1307 -0.0405
  915loPI   C2B13290  12.101  16.557   6.790  0.0970  0.1848 -0.1619
  915loPI   C3B13291  12.192  16.543   7.233  0.1611  0.0579  0.0414
  915loPI   C4B13292  12.300  16.571   7.674 -0.0490 -0.1201  0.1232
  916loPI    C113293  10.424   3.818   5.264 -0.2242  0.1659 -0.1456
  916loPI    C213294  10.396   3.493   5.033  0.0024  0.0511 -0.0155
  916loPI    C313295  10.746   3.683   5.070  0.0033 -0.0125  0.3379
  916loPI   PO413296  10.281   3.693   5.477 -0.1439 -0.0138  0.0904
  916loPI   GL113297  10.213   3.799   5.849 -0.3749  0.0073 -0.3272
  916loPI   GL213298   9.879   3.875   6.034 -0.1988  0.0063  0.0507
  916loPI   C1A13299  10.344   3.732   6.237 -0.1492  0.0318  0.1723
  916loPI   C2A13300  10.483   3.743   6.595 -0.1906 -0.1892 -0.0138
  916loPI   C3A13301  10.219   3.727   6.912  0.0150  0.1142  0.1050
  916loPI   C4A13302  10.247   3.781   7.276  0.1758  0.4535  0.1002
  916loPI   C5A13303  10.185   3.496   7.675 -0.0459  0.2405 -0.2357
  916loPI   C6A13304  10.014   3.321   8.042 -0.2697 -0.0568 -0.0669
  916loPI   C1B13305   9.919   3.850   6.486  0.2397  0.1489  0.0042
  916loPI   C2B13306   9.777   3.971   6.981  0.0694  0.1289  0.3276
  916loPI   C3B13307   9.833   4.213   7.279  0.0692  0.0796 -0.1175
  916loPI   C4B13308   9.930   4.086   7.684 -0.0416  0.0747  0.0786
  917loPI    C113309  16.929  15.002   5.632  0.0757 -0.0844  0.0688
  917loPI    C213310  16.817  15.053   5.251 -0.0067  0.1311  0.1205
  917loPI    C313311  17.185  15.159   5.367 -0.0080  0.1383  0.1181
  917loPI   PO413312  16.707  15.152   5.730  0.1567  0.1333  0.1178
  917loPI   GL113313  16.335  15.092   6.087 -0.0635  0.0701 -0.1562
  917loPI   GL213314  16.000  15.212   5.975  0.0290 -0.0862 -0.0918
  917loPI   C1A13315  16.364  15.149   6.549  0.0309 -0.1324  0.1557
  917loPI   C2A13316  16.113  15.270   6.902 -0.0040 -0.0867 -0.0975
  917loPI   C3A13317  16.059  15.285   7.348  0.2329  0.1870  0.1554
  917loPI   C4A13318  15.874  15.044   7.743 -0.0535  0.0643 -0.2620
  917loPI   C5A13319  15.857  15.283   8.032  0.0399  0.2599 -0.4377
  917loPI   C6A13320  15.733  15.309   8.483  0.2291  0.1757  0.1040
  917loPI   C1B13321  15.875  15.320   6.460  0.0260 -0.1347 -0.1362
  917loPI   C2B13322  15.783  15.701   6.810 -0.2306 -0.1222  0.1884
  917loPI   C3B13323  15.733  15.818   7.276 -0.3060  0.0449 -0.1680
  917loPI   C4B13324  16.009  15.717   7.628  0.1715 -0.1107  0.2037
  918loPI    C113325  15.240   9.731   5.376  0.0635 -0.1882  0.2110
  918loPI    C213326  15.582   9.758   5.171 -0.1903  0.0624 -0.1943
  918loPI    C313327  15.347   9.438   5.126 -0.0587 -0.0652  0.0111
  918loPI   PO413328  15.281   9.826   5.665 -0.0250 -0.0954 -0.0262
  918loPI   GL113329  15.160  10.032   6.003 -0.1394 -0.0831  0.0838
  918loPI   GL213330  14.856  10.184   6.095  0.0805  0.0006  0.3053
  918loPI   C1A13331  15.341  10.127   6.456 -0.1193 -0.1104  0.0416
  918loPI   C2A13332  15.244  10.252   6.813  0.0844 -0.2281  0.0731
  918loPI   C3A13333  15.176  10.230   7.227  0.1012  0.0284 -0.0280
  918loPI   C4A13334  15.196  10.149   7.677  0.2194  0.1156  0.1051
  918loPI   C5A13335  15.379   9.827   7.896  0.0081 -0.1490 -0.0146
  918loPI   C6A13336  15.706   9.668   8.205  0.2763 -0.0679  0.1802
  918loPI   C1B13337  14.784  10.113   6.542 -0.0388 -0.1112  0.1050
  918loPI   C2B13338  14.744  10.143   7.040 -0.1184 -0.2095  0.1475
  918loPI   C3B13339  14.705  10.168   7.457 -0.1603 -0.0486  0.2269
  918loPI   C4B13340  14.674  10.208   7.882  0.2128  0.2072 -0.0831
  919loPI    C113341   2.027  12.166   5.559 -0.1132 -0.0049  0.1763
  919loPI    C213342   2.083  12.134   5.164 -0.0311  0.2408  0.1663
  919loPI    C313343   1.715  12.196   5.310 -0.1170 -0.2048  0.1549
  919loPI   PO413344   2.142  11.914   5.698 -0.0975  0.2449  0.0963
  919loPI   GL113345   2.281  11.836   6.128 -0.1802 -0.1153 -0.0084
  919loPI   GL213346   2.049  11.518   6.106 -0.2448 -0.1727 -0.0800
  919loPI   C1A13347   2.425  11.801   6.560 -0.0028  0.0833 -0.1999
  919loPI   C2A13348   2.471  11.807   6.986 -0.2686  0.2909  0.1401
  919loPI   C3A13349   2.503  11.902   7.436  0.2183 -0.1367  0.1545
  919loPI   C4A13350   2.536  11.903   7.875 -0.1366  0.0142 -0.1106
  919loPI   C5A13351   2.506  11.623   8.220 -0.1878  0.2694 -0.0512
  919loPI   C6A13352   2.369  11.673   8.672  0.0203 -0.0059 -0.1012
  919loPI   C1B13353   2.124  11.346   6.470  0.1550  0.1102 -0.0001
  919loPI   C2B13354   2.108  11.436   6.969  0.1213 -0.0981 -0.0971
  919loPI   C3B13355   2.105  11.555   7.361  0.0047  0.4182 -0.0893
  919loPI   C4B13356   2.174  11.555   7.837  0.1848 -0.0645 -0.0896
  920loPI    C113357  12.699   4.390   5.112 -0.0490  0.1830  0.0346
  920loPI    C213358  12.765   4.785   5.112 -0.0565  0.1847 -0.1226
  920loPI    C313359  13.005   4.541   4.904 -0.0175  0.0998  0.0200
  920loPI   PO413360  12.525   4.364   5.301  0.3148 -0.0308  0.0135
  920loPI   GL113361  12.540   4.154   5.733  0.0184  0.1512  0.1074
  920loPI   GL213362  12.227   4.279   5.838 -0.2649 -0.1094 -0.3238
  920loPI   C1A13363  12.455   4.083   6.208 -0.2050 -0.1854  0.0114
  920loPI   C2A13364  12.266   4.048   6.576  0.0455  0.4002  0.0178
  920loPI   C3A13365  12.345   4.185   6.907 -0.3141  0.2307  0.0592
  920loPI   C4A13366  12.491   4.175   7.307  0.0504  0.1519 -0.0664
  920loPI   C5A13367  12.739   4.349   7.665  0.1551  0.0716  0.1715
  920loPI   C6A13368  12.678   4.186   8.077  0.1122  0.1657 -0.0212
  920loPI   C1B13369  12.090   4.387   6.149  0.1491 -0.0489 -0.3085
  920loPI   C2B13370  12.088   4.684   6.497 -0.0442  0.0213 -0.3195
  920loPI   C3B13371  12.126   4.762   6.961 -0.2217  0.0071  0.1105
  920loPI   C4B13372  12.368   4.784   7.271 -0.4176 -0.0249 -0.2379
  921loPI    C113373  17.417  16.765   5.318 -0.1365 -0.0268 -0.0416
  921loPI    C213374  17.760  16.955   5.395 -0.0742 -0.1559  0.0024
  921loPI    C313375  17.750  16.663   5.122 -0.1841 -0.0460 -0.1132
  921loPI   PO413376  17.360  16.732   5.655  0.0711 -0.0144  0.1934
  921loPI   GL113377  17.455  16.847   6.042 -0.3008 -0.0255 -0.0328
  921loPI   GL213378  17.766  16.710   6.107 -0.0968 -0.1437  0.0179
  921loPI   C1A13379  17.206  16.888   6.426 -0.1436 -0.1492 -0.0084
  921loPI   C2A13380  17.255  16.714   6.842 -0.3279 -0.0859 -0.0956
  921loPI   C3A13381  17.170  16.572   7.311  0.1441 -0.2730 -0.0476
  921loPI   C4A13382  17.199  16.202   7.595 -0.1745 -0.1979 -0.1186
  921loPI   C5A13383  16.972  15.926   7.788  0.1958 -0.1001 -0.0819
  921loPI   C6A13384  16.798  15.571   7.837 -0.0318  0.1163 -0.0258
  921loPI   C1B13385  17.650  16.777   6.608  0.2363 -0.0100  0.0749
  921loPI   C2B13386  17.716  16.835   7.040  0.1230 -0.0754 -0.2247
  921loPI   C3B13387  17.777  16.874   7.447 -0.3997 -0.0615 -0.2952
  921loPI   C4B13388  17.540  16.595   7.705  0.1491 -0.1613 -0.0334
  922loPI    C113389   9.006   8.829   5.434  0.1204  0.0418  0.0991
  922loPI    C213390   8.928   9.132   5.185  0.1648 -0.0143  0.0161
  922loPI    C313391   8.932   8.757   5.047  0.0787 -0.0559  0.1250
  922loPI   PO413392   8.885   8.840   5.666 -0.1596  0.2061 -0.4026
  922loPI   GL113393   9.033   8.903   6.066 -0.1763  0.2020  0.1280
  922loPI   GL213394   9.268   8.778   6.203 -0.0837  0.0015  0.0380
  922loPI   C1A13395   8.859   8.997   6.436 -0.1569  0.1486  0.2082
  922loPI   C2A13396   8.922   8.945   6.812 -0.0319 -0.1146  0.2123
  922loPI   C3A13397   8.681   8.828   7.247 -0.2127  0.2079  0.1448
  922loPI   C4A13398   8.439   8.669   7.700 -0.0750  0.1169 -0.2013
  922loPI   C5A13399   8.490   8.888   8.078 -0.0711 -0.1435 -0.0818
  922loPI   C6A13400   8.736   9.111   8.364  0.2035  0.2365  0.0036
  922loPI   C1B13401   9.508   8.935   6.584  0.1241 -0.0021  0.1040
  922loPI   C2B13402   9.738   9.211   6.819 -0.0951 -0.0818 -0.0137
  922loPI   C3B13403   9.785   9.184   7.169  0.1414  0.1027  0.2173
  922loPI   C4B13404   9.584   9.082   7.705 -0.0891  0.2344 -0.1076
  923loPI    C113405   5.409  17.693   5.889 -0.0173 -0.0902  0.1205
  923loPI    C213406   5.646  17.377   5.827  0.1901  0.0281  0.2956
  923loPI    C313407   5.366  17.473   5.557  0.2347 -0.2060  0.1627
  923loPI   PO413408   5.295  17.643   6.140 -0.2740  0.1821  0.2341
  923loPI   GL113409   5.199  17.580   6.524  0.1516  0.1103 -0.3231
  923loPI   GL213410   5.074  17.345   6.474  0.2023 -0.0859 -0.0529
  923loPI   C1A13411   5.199  17.638   6.896 -0.0374 -0.0884  0.0122
  923loPI   C2A13412   5.218  17.687   7.224 -0.2108  0.0398  0.0871
  923loPI   C3A13413   5.252  17.754   7.683  0.1035  0.1264  0.2125
  923loPI   C4A13414   5.412  17.741   8.136 -0.0340  0.4727  0.3088
  923loPI   C5A13415   5.239  17.454   8.455 -0.2381 -0.1287 -0.0947
  923loPI   C6A13416   5.057  17.049   8.427  0.1348  0.0896 -0.1081
  923loPI   C1B13417   4.887  17.248   6.955 -0.0086 -0.1394  0.2676
  923loPI   C2B13418   4.866  17.313   7.360 -0.2948  0.2073  0.0422
  923loPI   C3B13419   4.997  17.167   7.787 -0.2808 -0.0712  0.0100
  923loPI   C4B13420   4.766  16.874   8.076  0.3091  0.0882  0.1274
  924loPI    C113421  14.946   5.785   5.478  0.1190  0.0391 -0.1750
  924loPI    C213422  14.830   5.741   5.097 -0.0806  0.0423 -0.1159
  924loPI    C313423  14.564   5.846   5.376  0.0860  0.1424  0.0073
  924loPI   PO413424  15.077   5.760   5.704  0.2615  0.1548  0.0464
  924loPI   GL113425  15.146   5.884   6.038  0.1814  0.1966 -0.1915
  924loPI   GL213426  14.868   6.047   6.246 -0.0282 -0.3903 -0.3560
  924loPI   C1A13427  15.332   5.868   6.444 -0.2370  0.3291 -0.2664
  924loPI   C2A13428  15.390   5.957   6.793 -0.4190 -0.1928  0.0306
  924loPI   C3A13429  15.533   6.161   7.116  0.1506 -0.0449 -0.0605
  924loPI   C4A13430  15.272   6.096   7.518  0.1885  0.0424  0.0770
  924loPI   C5A13431  15.272   6.299   7.910 -0.2488  0.3214  0.1226
  924loPI   C6A13432  15.507   6.395   8.337 -0.0151 -0.0292 -0.0982
  924loPI   C1B13433  14.847   6.051   6.659  0.2529 -0.4049 -0.1212
  924loPI   C2B13434  14.933   5.960   7.153 -0.2209 -0.0095  0.0136
  924loPI   C3B13435  14.909   5.740   7.454 -0.0284  0.1188  0.2162
  924loPI   C4B13436  14.665   5.623   7.784 -0.1995  0.0860 -0.0387
  925loPI    C113437   7.976   8.444   5.532 -0.2202 -0.1162 -0.0293
  925loPI    C213438   7.846   8.328   5.172 -0.2392 -0.0974 -0.0285
  925loPI    C313439   8.088   8.645   5.204 -0.1485 -0.1657 -0.0353
  925loPI   PO413440   7.922   8.252   5.699  0.1835  0.0861 -0.1401
  925loPI   GL113441   7.839   7.980   6.015  0.1258 -0.0288 -0.2007
  925loPI   GL213442   8.143   7.985   6.041  0.0205 -0.2894  0.0043
  925loPI   C1A13443   7.664   7.986   6.378  0.0304 -0.1568 -0.1560
  925loPI   C2A13444   7.661   7.980   6.819  0.1928 -0.2016  0.0581
  925loPI   C3A13445   7.707   8.077   7.251  0.1046  0.0366 -0.2416
  925loPI   C4A13446   7.875   8.448   7.524  0.1120  0.1788 -0.2134
  925loPI   C5A13447   7.706   8.766   7.754 -0.1748 -0.0525 -0.0472
  925loPI   C6A13448   7.899   8.942   8.060  0.1688 -0.1517  0.0385
  925loPI   C1B13449   8.124   7.883   6.469 -0.0274 -0.0840 -0.1905
  925loPI   C2B13450   8.175   8.029   6.984 -0.0161  0.0039  0.1694
  925loPI   C3B13451   8.126   7.960   7.453 -0.0246  0.0382 -0.2503
  925loPI   C4B13452   8.107   7.805   7.898 -0.2111 -0.1076 -0.0373
  926loPI    C113453  13.441   2.944   5.158  0.3862 -0.0686  0.0216
  926loPI    C213454  13.330   3.054   4.790  0.1193  0.2580  0.1930
  926loPI    C313455  13.607   2.770   4.839 -0.1597 -0.1079 -0.2542
  926loPI   PO413456  13.321   3.099   5.308 -0.3125 -0.0974  0.0922
  926loPI   GL113457  13.167   2.940   5.722 -0.0433  0.0019  0.0425
  926loPI   GL213458  13.193   3.306   5.841  0.0235  0.5381  0.1926
  926loPI   C1A13459  13.196   2.956   6.185 -0.1072  0.3322  0.1546
  926loPI   C2A13460  13.240   2.888   6.584  0.0999  0.0930 -0.0758
  926loPI   C3A13461  13.309   3.100   6.946 -0.0119  0.2201 -0.1051
  926loPI   C4A13462  13.371   3.107   7.371 -0.0096  0.1315  0.0827
  926loPI   C5A13463  13.269   2.937   7.710  0.1001 -0.3161 -0.0464
  926loPI   C6A13464  13.473   2.824   8.096 -0.1890 -0.0998  0.4388
  926loPI   C1B13465  13.261   3.514   6.216 -0.1772 -0.3480  0.2295
  926loPI   C2B13466  13.450   3.447   6.642  0.0255 -0.1267 -0.1857
  926loPI   C3B13467  13.328   3.598   7.076  0.2348 -0.0216  0.0701
  926loPI   C4B13468  13.329   3.704   7.507 -0.2774 -0.0575 -0.2434
  927loPI    C113469  15.316  17.432   5.648  0.0149  0.2450 -0.0371
  927loPI    C213470  15.272  17.582   5.280  0.2170 -0.0717 -0.1945
  927loPI    C313471  15.123  17.222   5.368 -0.1321  0.1460  0.1362
  927loPI   PO413472  15.246  17.625   5.799 -0.1095 -0.0787  0.2416
  927loPI   GL113473  15.117  17.789   6.213  0.0336 -0.2052  0.0078
  927loPI   GL213474  15.457  17.935   6.195 -0.3437 -0.3855  0.0063
  927loPI   C1A13475  14.799  17.793   6.407  0.0440  0.2192 -0.0846
  927loPI   C2A13476  14.525  17.508   6.758  0.1350 -0.1540  0.1024
  927loPI   C3A13477  14.288  17.414   7.101  0.0218  0.0355 -0.1267
  927loPI   C4A13478  14.212  17.481   7.538  0.1813 -0.0297 -0.3900
  927loPI   C5A13479  14.447  17.420   7.889 -0.0527 -0.3081 -0.0096
  927loPI   C6A13480  14.838  17.158   7.969  0.3160 -0.2142 -0.2626
  927loPI   C1B13481  15.305  18.003   6.570 -0.0651 -0.0991 -0.1159
  927loPI   C2B13482  15.117  17.903   6.918  0.1005  0.0046 -0.0024
  927loPI   C3B13483  14.850  17.961   7.333  0.0229  0.2118  0.1487
  927loPI   C4B13484  14.595  17.802   7.573 -0.1133 -0.0341 -0.1901
  928loPI    C113485   8.535   1.104   5.077  0.0558  0.1077  0.0475
  928loPI    C213486   8.718   1.377   4.850  0.0290 -0.0200 -0.1301
  928loPI    C313487   8.426   1.152   4.695 -0.0749 -0.0228  0.0673
  928loPI   PO413488   8.627   1.208   5.352 -0.0220  0.1824  0.1191
  928loPI   GL113489   8.715   1.070   5.833 -0.0249 -0.0558  0.2037
  928loPI   GL213490   8.507   0.772   5.825 -0.1527  0.3031  0.0575
  928loPI   C1A13491   8.721   1.298   6.234 -0.1102 -0.0740  0.1644
  928loPI   C2A13492   8.646   1.324   6.595 -0.2427  0.0419 -0.0899
  928loPI   C3A13493   8.538   1.417   7.072  0.0317  0.2123  0.1978
  928loPI   C4A13494   8.528   1.386   7.426  0.0902 -0.0065  0.2939
  928loPI   C5A13495   8.352   1.233   7.736  0.1802 -0.1015 -0.0254
  928loPI   C6A13496   8.153   1.303   8.147  0.0025  0.2466 -0.0518
  928loPI   C1B13497   8.466   0.756   6.279 -0.0434 -0.0060 -0.3999
  928loPI   C2B13498   8.405   0.752   6.672  0.2868  0.1376 -0.0947
  928loPI   C3B13499   8.388   0.843   7.020 -0.0006 -0.1197  0.0386
  928loPI   C4B13500   8.500   0.820   7.460 -0.2699 -0.0778 -0.0869
  929loPI    C113501  14.136   5.936   5.024  0.1519  0.1004  0.2205
  929loPI    C213502  14.484   6.122   4.962  0.0080  0.2898 -0.0393
  929loPI    C313503  14.211   6.107   4.671 -0.0099 -0.2807 -0.0043
  929loPI   PO413504  14.099   6.036   5.294 -0.0965 -0.1273 -0.2472
  929loPI   GL113505  14.216   6.072   5.773  0.1181  0.2091  0.0419
  929loPI   GL213506  13.927   6.145   5.744  0.0742 -0.1773  0.2858
  929loPI   C1A13507  14.343   6.150   6.236  0.0292 -0.3709 -0.0187
  929loPI   C2A13508  14.324   6.208   6.674 -0.0145 -0.0325 -0.0567
  929loPI   C3A13509  14.503   6.139   7.075 -0.0417 -0.0860  0.2177
  929loPI   C4A13510  14.508   6.060   7.517 -0.2581 -0.3343 -0.1621
  929loPI   C5A13511  14.350   6.040   7.935 -0.1132  0.1756  0.1393
  929loPI   C6A13512  14.241   5.702   8.298 -0.0102 -0.1668  0.0437
  929loPI   C1B13513  13.779   6.277   6.182 -0.3297 -0.1056 -0.3101
  929loPI   C2B13514  13.853   6.324   6.639  0.0382 -0.0886  0.2268
  929loPI   C3B13515  14.016   6.346   7.067  0.1481 -0.2553  0.0421
  929loPI   C4B13516  14.091   6.273   7.437  0.3532 -0.2603  0.1758
  930loPI    C113517   7.312   0.162   5.532 -0.0085  0.1025 -0.1854
  930loPI    C213518   7.063   0.032   5.246 -0.2104 -0.0118  0.0387
  930loPI    C313519   7.337  -0.215   5.402 -0.2418 -0.0126  0.0930
  930loPI   PO413520   7.110   0.308   5.712  0.0665  0.1155 -0.3381
  930loPI   GL113521   6.887   0.345   6.112  0.0963  0.0454 -0.1585
  930loPI   GL213522   7.012   0.067   6.222 -0.2229 -0.0143 -0.1248
  930loPI   C1A13523   6.826   0.478   6.578 -0.0789 -0.2296 -0.2371
  930loPI   C2A13524   6.727   0.545   6.985 -0.2983 -0.0349  0.2072
  930loPI   C3A13525   6.635   0.615   7.364 -0.3655 -0.0237 -0.2210
  930loPI   C4A13526   6.304   0.258   7.396 -0.1403 -0.0570 -0.0415
  930loPI   C5A13527   6.018   0.132   7.128 -0.0487  0.2283  0.0153
  930loPI   C6A13528   5.994   0.095   6.704 -0.1654 -0.1461  0.0749
  930loPI   C1B13529   6.578   0.069   6.419  0.2655  0.1314  0.1046
  930loPI   C2B13530   6.332   0.375   6.529  0.0730  0.0595 -0.3245
  930loPI   C3B13531   6.276   0.710   6.794  0.1768 -0.0313 -0.0804
  930loPI   C4B13532   6.199   0.654   7.113  0.0822 -0.0884 -0.2270
  931loPI    C113533   8.412   2.679   5.295  0.1181  0.0035 -0.0046
  931loPI    C213534   8.228   2.353   5.435  0.0945  0.0793  0.1422
  931loPI    C313535   8.222   2.433   5.043 -0.1682  0.0704  0.1426
  931loPI   PO413536   8.497   2.783   5.502 -0.1310 -0.1694 -0.0198
  931loPI   GL113537   8.554   2.753   5.833  0.0155 -0.0050 -0.0766
  931loPI   GL213538   8.397   2.461   5.882  0.0039  0.0844 -0.2573
  931loPI   C1A13539   8.544   2.820   6.283 -0.2813 -0.1601 -0.0886
  931loPI   C2A13540   8.719   2.718   6.602 -0.0991  0.1170 -0.1784
  931loPI   C3A13541   8.788   2.588   7.121  0.2436 -0.0116 -0.1262
  931loPI   C4A13542   9.040   2.539   7.528  0.0542  0.5970 -0.0110
  931loPI   C5A13543   9.267   2.666   7.853 -0.0239  0.1159  0.2820
  931loPI   C6A13544   9.551   2.802   8.246 -0.0089  0.1975  0.2579
  931loPI   C1B13545   8.260   2.371   6.253 -0.0059  0.2843 -0.1732
  931loPI   C2B13546   8.425   2.321   6.682 -0.1441 -0.0275 -0.3437
  931loPI   C3B13547   8.463   2.216   7.064 -0.1379  0.1511 -0.1628
  931loPI   C4B13548   8.636   2.237   7.517 -0.0006  0.1104 -0.2912
  932loPI    C113549   4.825   3.558   5.718  0.0271  0.0911  0.0199
  932loPI    C213550   4.457   3.707   5.767 -0.0386 -0.0400 -0.0696
  932loPI    C313551   4.514   3.387   5.534  0.0982 -0.1663  0.1336
  932loPI   PO413552   4.978   3.540   5.899 -0.2251  0.2470 -0.1114
  932loPI   GL113553   4.958   3.656   6.368 -0.0092 -0.0657 -0.0489
  932loPI   GL213554   4.928   3.255   6.454  0.1385  0.4018  0.2469
  932loPI   C1A13555   4.797   3.810   6.702 -0.2062 -0.0659  0.0844
  932loPI   C2A13556   4.738   3.688   7.169 -0.0017 -0.0761 -0.3900
  932loPI   C3A13557   4.742   3.660   7.597 -0.2925  0.2006 -0.1715
  932loPI   C4A13558   4.626   3.749   7.981  0.2089  0.0939  0.0985
  932loPI   C5A13559   4.197   3.798   8.278 -0.0609  0.2120 -0.0066
  932loPI   C6A13560   4.232   3.973   8.618  0.1242 -0.2758  0.1384
  932loPI   C1B13561   4.934   3.298   6.924 -0.1249 -0.2068  0.0363
  932loPI   C2B13562   4.909   3.143   7.289 -0.1097 -0.2818 -0.1737
  932loPI   C3B13563   4.907   3.025   7.775 -0.1202 -0.1828  0.0894
  932loPI   C4B13564   4.828   2.753   8.139 -0.0944  0.0886 -0.2160
  933loPI    C113565  16.161   3.494   5.632  0.0595 -0.1068 -0.0454
  933loPI    C213566  16.031   3.371   5.275 -0.2472  0.1174 -0.0144
  933loPI    C313567  16.383   3.558   5.306 -0.0770 -0.1735 -0.1522
  933loPI   PO413568  15.933   3.595   5.758 -0.0544  0.1436 -0.0299
  933loPI   GL113569  15.785   3.485   6.071 -0.2506  0.1343  0.1169
  933loPI   GL213570  15.884   3.178   6.019 -0.1265 -0.0240 -0.2150
  933loPI   C1A13571  15.680   3.310   6.476 -0.1869 -0.1040  0.5156
  933loPI   C2A13572  15.643   3.160   6.964 -0.0533 -0.2446 -0.0563
  933loPI   C3A13573  15.677   3.210   7.449 -0.1076  0.2522  0.4147
  933loPI   C4A13574  15.910   3.087   7.828  0.1350 -0.1096  0.1710
  933loPI   C5A13575  16.060   2.992   8.251 -0.1001  0.1814 -0.0535
  933loPI   C6A13576  16.545   3.072   8.469 -0.3300 -0.1328 -0.1976
  933loPI   C1B13577  16.107   3.067   6.348  0.0980  0.0859  0.2558
  933loPI   C2B13578  16.109   2.856   6.796  0.0660  0.0209 -0.1393
  933loPI   C3B13579  16.399   2.528   6.931  0.1061 -0.0222 -0.3366
  933loPI   C4B13580  16.909   2.575   7.050 -0.0696 -0.1800  0.3091
  934loPI    C113581  10.734  14.708   5.726  0.2060 -0.2039  0.1433
  934loPI    C213582  10.723  14.500   5.384  0.2857 -0.2232  0.1523
  934loPI    C313583  11.005  14.778   5.439 -0.0582  0.1693 -0.0224
  934loPI   PO413584  10.731  14.491   5.914  0.0607 -0.0600 -0.2069
  934loPI   GL113585  10.890  14.364   6.290 -0.0779 -0.1655  0.2220
  934loPI   GL213586  10.730  14.334   6.418 -0.1220 -0.1507  0.0368
  934loPI   C1A13587  11.058  14.692   6.576  0.1345  0.0425  0.1088
  934loPI   C2A13588  11.329  14.743   6.918 -0.0816  0.0665  0.0046
  934loPI   C3A13589  11.697  14.734   7.101  0.1370 -0.1183  0.2345
  934loPI   C4A13590  11.827  14.670   7.556  0.1394 -0.0894 -0.2890
  934loPI   C5A13591  11.735  14.783   7.970  0.1941 -0.0217  0.0601
  934loPI   C6A13592  11.531  15.147   8.160 -0.1673 -0.0381  0.1726
  934loPI   C1B13593  10.687  14.358   6.827 -0.1156  0.3246  0.0460
  934loPI   C2B13594  10.719  14.640   7.097  0.1106  0.0223  0.0101
  934loPI   C3B13595  10.931  14.711   7.410  0.0292 -0.0303 -0.2427
  934loPI   C4B13596  11.294  14.853   7.525  0.1043  0.0853 -0.1193
  935loPI    C113597   6.440   3.928   5.465 -0.3432  0.3633 -0.1620
  935loPI    C213598   6.355   3.636   5.206  0.1358  0.0865 -0.0210
  935loPI    C313599   6.593   3.938   5.095 -0.1523  0.2940 -0.0864
  935loPI   PO413600   6.254   4.015   5.525 -0.1328  0.0378 -0.4717
  935loPI   GL113601   6.163   4.221   5.963  0.2380 -0.2313  0.0701
  935loPI   GL213602   6.508   4.149   5.947  0.1193 -0.1715  0.2795
  935loPI   C1A13603   6.126   4.107   6.408 -0.2662  0.0886 -0.0154
  935loPI   C2A13604   6.153   3.982   6.876  0.2028  0.2076 -0.0544
  935loPI   C3A13605   6.135   3.908   7.314 -0.3678 -0.2120  0.2121
  935loPI   C4A13606   6.264   3.894   7.675 -0.0388 -0.1948  0.3640
  935loPI   C5A13607   6.485   3.726   8.027 -0.1761 -0.1398 -0.2222
  935loPI   C6A13608   6.946   3.665   8.053 -0.0907 -0.2344 -0.0738
  935loPI   C1B13609   6.507   4.516   6.295  0.0042  0.1025 -0.0240
  935loPI   C2B13610   6.482   4.366   6.726 -0.0017  0.0904 -0.0207
  935loPI   C3B13611   6.671   4.267   7.165 -0.0733  0.3181  0.0675
  935loPI   C4B13612   6.922   4.506   7.551  0.1329  0.2946  0.0375
  936loPI    C113613   7.940  15.791   6.135 -0.2526 -0.1096  0.0709
  936loPI    C213614   8.026  15.492   5.884  0.1409  0.1742 -0.1425
  936loPI    C313615   8.158  15.481   6.261  0.1473  0.0750 -0.1475
  936loPI   PO413616   7.665  15.844   6.079 -0.2509 -0.2805 -0.4028
  936loPI   GL113617   7.580  16.049   6.439 -0.4220 -0.1475 -0.0641
  936loPI   GL213618   7.301  16.220   6.600  0.1119  0.1962  0.0363
  936loPI   C1A13619   7.699  15.904   6.845 -0.0852  0.1829  0.0272
  936loPI   C2A13620   7.770  15.987   7.342  0.1977  0.0268 -0.0982
  936loPI   C3A13621   7.930  16.244   7.647  0.0485  0.1579 -0.1000
  936loPI   C4A13622   8.311  16.346   7.803 -0.1795 -0.0755 -0.1991
  936loPI   C5A13623   8.751  16.421   7.656 -0.0150  0.1206 -0.1313
  936loPI   C6A13624   8.676  16.281   7.219  0.0138 -0.0694 -0.2943
  936loPI   C1B13625   7.178  16.116   6.936  0.1505  0.1077 -0.0774
  936loPI   C2B13626   7.165  16.074   7.393 -0.1586  0.0815  0.0962
  936loPI   C3B13627   7.348  15.934   7.689 -0.0765  0.0599  0.2102
  936loPI   C4B13628   7.531  16.130   7.992 -0.0403 -0.1522  0.0545
  937loPI    C113629   2.058  12.628   5.567 -0.1726  0.2516 -0.0681
  937loPI    C213630   2.128  12.816   5.221 -0.1133  0.0072 -0.1913
  937loPI    C313631   2.381  12.534   5.350 -0.3093 -0.1353 -0.1130
  937loPI   PO413632   1.972  12.738   5.764  0.1523  0.2980  0.0579
  937loPI   GL113633   1.905  12.890   6.201 -0.1990 -0.0558  0.3369
  937loPI   GL213634   1.568  12.792   6.075  0.1106 -0.0141  0.1039
  937loPI   C1A13635   1.955  12.642   6.582 -0.3897  0.1515  0.1878
  937loPI   C2A13636   1.990  12.706   7.073  0.0202 -0.2227 -0.1832
  937loPI   C3A13637   2.057  12.533   7.493  0.0939 -0.2335 -0.0100
  937loPI   C4A13638   2.085  12.546   7.882  0.0330  0.1556  0.1966
  937loPI   C5A13639   2.000  12.291   8.210 -0.0797 -0.0070 -0.5054
  937loPI   C6A13640   2.023  11.968   8.453  0.0835 -0.0439  0.1948
  937loPI   C1B13641   1.464  12.679   6.417  0.1749  0.1813 -0.1032
  937loPI   C2B13642   1.492  12.668   6.877 -0.2714 -0.0123  0.0714
  937loPI   C3B13643   1.501  12.744   7.250 -0.1068  0.0251  0.2447
  937loPI   C4B13644   1.600  12.707   7.648 -0.1274 -0.2274  0.0339
  938loPI    C113645  12.157   7.846   5.247  0.0350 -0.1339  0.0760
  938loPI    C213646  12.383   8.168   5.178 -0.0489 -0.0289  0.2824
  938loPI    C313647  12.207   7.978   4.873  0.0020  0.1193  0.1593
  938loPI   PO413648  12.310   7.676   5.339 -0.2999  0.1965  0.1701
  938loPI   GL113649  12.296   7.587   5.761  0.1322  0.1761 -0.2128
  938loPI   GL213650  12.077   7.360   5.911 -0.1199  0.1318 -0.1906
  938loPI   C1A13651  12.448   7.645   6.157 -0.0574 -0.0757 -0.0045
  938loPI   C2A13652  12.624   7.655   6.371 -0.0454  0.1870  0.0091
  938loPI   C3A13653  12.687   7.637   6.749 -0.0460 -0.0564  0.4599
  938loPI   C4A13654  12.642   7.648   7.128  0.1538 -0.0759  0.3177
  938loPI   C5A13655  12.738   7.706   7.569 -0.0292 -0.0398  0.1591
  938loPI   C6A13656  12.625   7.725   7.966 -0.0385 -0.0602 -0.2089
  938loPI   C1B13657  12.339   7.150   6.313 -0.1790  0.0727 -0.2966
  938loPI   C2B13658  12.546   7.112   6.596  0.1322  0.2428 -0.1111
  938loPI   C3B13659  12.485   7.154   7.103 -0.1501  0.3899 -0.0503
  938loPI   C4B13660  12.414   7.336   7.579 -0.2224 -0.1195  0.2650
  939loPI    C113661   6.372  12.176   6.037 -0.1960  0.0487 -0.0195
  939loPI    C213662   6.319  12.350   5.681  0.3575  0.0187 -0.1258
  939loPI    C313663   6.381  12.575   6.005  0.1559  0.0373 -0.0982
  939loPI   PO413664   6.116  11.925   5.953 -0.0021 -0.1203 -0.0812
  939loPI   GL113665   5.903  11.567   6.283  0.0909  0.1273  0.0631
  939loPI   GL213666   5.801  11.242   6.425 -0.2208  0.1023  0.3090
  939loPI   C1A13667   5.911  11.628   6.715 -0.0177 -0.0286  0.0923
  939loPI   C2A13668   5.885  11.684   7.062  0.0262 -0.1841 -0.0785
  939loPI   C3A13669   5.871  11.580   7.400 -0.1520 -0.5000  0.2666
  939loPI   C4A13670   6.054  11.577   7.846 -0.0172 -0.0129 -0.0190
  939loPI   C5A13671   6.477  11.507   8.084 -0.0548 -0.2057  0.0367
  939loPI   C6A13672   6.726  11.221   8.246  0.1104 -0.3174  0.0025
  939loPI   C1B13673   5.652  11.239   6.902  0.3246  0.3316  0.0668
  939loPI   C2B13674   5.523  11.213   7.358 -0.1409 -0.0652  0.3228
  939loPI   C3B13675   5.382  11.081   7.697  0.0935 -0.0889 -0.2665
  939loPI   C4B13676   5.368  10.787   8.013  0.2457 -0.0825 -0.1157
  940loPI    C113677  10.562   0.523   5.357 -0.0702 -0.0935  0.0990
  940loPI    C213678  10.562   0.582   4.962 -0.0864 -0.1753  0.0865
  940loPI    C313679  10.216   0.573   5.163 -0.0721 -0.0300  0.1187
  940loPI   PO413680  10.776   0.363   5.383  0.0885 -0.1620 -0.1820
  940loPI   GL113681  10.810   0.199   5.838  0.1754 -0.2526  0.3298
  940loPI   GL213682  10.509   0.214   5.851  0.1670 -0.0348 -0.0035
  940loPI   C1A13683  11.100   0.238   6.181  0.0436 -0.0132  0.0786
  940loPI   C2A13684  11.276   0.386   6.595  0.2261 -0.1126  0.4419
  940loPI   C3A13685  11.124   0.567   6.951  0.0299  0.0469  0.0062
  940loPI   C4A13686  11.193   0.522   7.284  0.0139 -0.2393  0.0769
  940loPI   C5A13687  11.305   0.261   7.611 -0.1200 -0.1339  0.0553
  940loPI   C6A13688  11.677   0.190   7.763 -0.1850  0.3434 -0.3147
  940loPI   C1B13689  10.595   0.349   6.260  0.0205  0.2375  0.0315
  940loPI   C2B13690  10.768   0.395   6.685 -0.0331 -0.2059 -0.0554
  940loPI   C3B13691  10.632   0.380   7.134  0.0815 -0.0370 -0.2263
  940loPI   C4B13692  10.513   0.403   7.524  0.0517  0.0898 -0.0497
  941loPI    C113693   6.480  16.257   5.713 -0.1588  0.1442 -0.1761
  941loPI    C213694   6.835  16.074   5.693 -0.1064  0.2295 -0.0444
  941loPI    C313695   6.645  16.179   5.357  0.0620  0.3159 -0.1135
  941loPI   PO413696   6.366  16.110   5.871  0.2522 -0.1754 -0.0916
  941loPI   GL113697   6.359  16.071   6.311 -0.1694  0.0689 -0.0786
  941loPI   GL213698   6.735  16.188   6.169  0.0476 -0.1718 -0.1360
  941loPI   C1A13699   6.313  16.148   6.757 -0.0380  0.0839 -0.1120
  941loPI   C2A13700   6.257  16.149   7.154 -0.0297 -0.0539 -0.1670
  941loPI   C3A13701   6.384  16.216   7.635 -0.2993  0.0389  0.1729
  941loPI   C4A13702   6.537  16.391   8.011  0.0066  0.2611  0.2048
  941loPI   C5A13703   6.438  16.285   8.432  0.0729 -0.0868 -0.0859
  941loPI   C6A13704   6.057  15.983   8.626 -0.0364 -0.0225 -0.0845
  941loPI   C1B13705   6.754  16.381   6.689 -0.1443  0.0787 -0.1135
  941loPI   C2B13706   6.697  16.396   7.135  0.1300  0.1487  0.1260
  941loPI   C3B13707   6.826  16.435   7.500 -0.2828 -0.1824  0.0375
  941loPI   C4B13708   7.141  16.415   7.790 -0.3033  0.1274  0.1866
  942loPI    C113709  14.817  12.457   5.683 -0.0121 -0.1808 -0.1050
  942loPI    C213710  14.727  12.172   5.418 -0.2511  0.0194 -0.2432
  942loPI    C313711  14.984  12.462   5.320 -0.0878 -0.0883 -0.1388
  942loPI   PO413712  14.603  12.492   5.828  0.3747  0.1333 -0.2747
  942loPI   GL113713  14.338  12.460   6.102  0.0961  0.1196 -0.1382
  942loPI   GL213714  14.067  12.442   6.339  0.0827  0.3564 -0.2286
  942loPI   C1A13715  14.710  12.403   6.449 -0.2881 -0.1249 -0.1235
  942loPI   C2A13716  14.678  12.417   6.839  0.0492  0.1205  0.0323
  942loPI   C3A13717  14.486  12.220   7.046 -0.0078 -0.2338  0.1404
  942loPI   C4A13718  14.547  12.102   7.418 -0.0319  0.0534 -0.1123
  942loPI   C5A13719  14.555  12.122   7.844  0.1396 -0.2036  0.3042
  942loPI   C6A13720  14.833  11.895   8.069  0.1817 -0.0294  0.2545
  942loPI   C1B13721  14.044  12.371   6.818  0.1927 -0.2279  0.1464
  942loPI   C2B13722  13.874  12.298   7.226 -0.0817  0.2550  0.0502
  942loPI   C3B13723  13.807  12.063   7.575  0.0150 -0.2784  0.4346
  942loPI   C4B13724  13.827  12.178   7.999 -0.1693 -0.2709 -0.0118
  943loPI    C113725   3.111   9.138   5.512  0.2156 -0.0016 -0.2102
  943loPI    C213726   2.991   8.838   5.276  0.1323 -0.3136  0.2169
  943loPI    C313727   3.172   9.157   5.117  0.0963 -0.5230 -0.2613
  943loPI   PO413728   3.212   9.042   5.741  0.2295  0.0028  0.1261
  943loPI   GL113729   3.144   9.019   6.084 -0.1070 -0.2010  0.0113
  943loPI   GL213730   3.368   9.384   6.101  0.3295  0.0122  0.1401
  943loPI   C1A13731   3.315   8.714   6.279  0.2917  0.1436  0.0412
  943loPI   C2A13732   3.369   8.759   6.723 -0.0231 -0.1251 -0.1915
  943loPI   C3A13733   3.379   8.756   7.246  0.3938 -0.0152  0.0209
  943loPI   C4A13734   3.207   8.838   7.684 -0.1592  0.0770 -0.0178
  943loPI   C5A13735   2.987   8.687   7.966  0.0526  0.2088 -0.2304
  943loPI   C6A13736   2.725   8.372   8.145 -0.0617  0.1385 -0.0245
  943loPI   C1B13737   3.311   9.311   6.488  0.3512  0.1465 -0.0104
  943loPI   C2B13738   3.438   9.241   6.942 -0.0082  0.0031 -0.5165
  943loPI   C3B13739   3.455   9.275   7.422  0.1761 -0.2370  0.1479
  943loPI   C4B13740   3.324   9.405   7.853  0.0227  0.0064  0.1167
  944loPI    C113741  15.468  16.377   5.166  0.1016  0.2657 -0.2505
  944loPI    C213742  15.670  16.037   5.225 -0.1303  0.2288  0.4205
  944loPI    C313743  15.866  16.386   5.207  0.0810  0.0957  0.0127
  944loPI   PO413744  15.230  16.216   5.298  0.2387 -0.3957  0.0756
  944loPI   GL113745  15.114  16.065   5.817 -0.0888  0.1364 -0.1013
  944loPI   GL213746  14.927  16.205   5.949  0.0318 -0.1299  0.2393
  944loPI   C1A13747  15.289  16.079   6.251  0.0917 -0.0721 -0.1503
  944loPI   C2A13748  15.398  15.981   6.681  0.2258 -0.1023 -0.3610
  944loPI   C3A13749  15.381  16.139   7.084 -0.2137  0.2564  0.2923
  944loPI   C4A13750  15.310  16.214   7.523  0.2739  0.0451 -0.0041
  944loPI   C5A13751  15.092  16.095   7.874 -0.3544 -0.0406 -0.0246
  944loPI   C6A13752  14.628  16.220   8.002 -0.0913  0.2096 -0.0898
  944loPI   C1B13753  14.791  16.193   6.350 -0.0383  0.0623  0.0590
  944loPI   C2B13754  14.916  16.110   6.770 -0.1024  0.0625 -0.0488
  944loPI   C3B13755  14.874  16.064   7.258 -0.3134  0.1070  0.1393
  944loPI   C4B13756  14.642  15.891   7.580 -0.0127  0.1119  0.0354
  945loPI    C113757  14.844   6.766   5.276 -0.1897 -0.3267  0.1596
  945loPI    C213758  14.710   6.583   4.947 -0.0656  0.0882 -0.1293
  945loPI    C313759  14.534   6.918   5.075  0.1875  0.1932 -0.0492
  945loPI   PO413760  14.875   6.608   5.557  0.2685 -0.2258 -0.0471
  945loPI   GL113761  14.732   6.589   5.995  0.0599  0.1986  0.0908
  945loPI   GL213762  14.326   6.524   5.868 -0.0791 -0.2918  0.0046
  945loPI   C1A13763  14.696   6.567   6.481  0.3637 -0.0780 -0.1563
  945loPI   C2A13764  14.620   6.615   6.876  0.1314 -0.1604  0.0483
  945loPI   C3A13765  14.524   6.568   7.387  0.0236  0.3778  0.2111
  945loPI   C4A13766  14.299   6.725   7.741 -0.3605  0.1394  0.3686
  945loPI   C5A13767  14.146   6.845   8.075  0.0481 -0.1853 -0.2627
  945loPI   C6A13768  14.156   6.882   8.525 -0.0285  0.0227  0.2493
  945loPI   C1B13769  14.182   6.648   6.314  0.1501  0.0309 -0.1191
  945loPI   C2B13770  14.152   6.777   6.695  0.1543  0.1536  0.2024
  945loPI   C3B13771  14.209   6.888   7.095 -0.2338 -0.0900  0.1265
  945loPI   C4B13772  14.256   7.171   7.444  0.0301  0.0740 -0.1313
  946loPI    C113773   3.376   4.140   5.687  0.0316  0.1290 -0.0435
  946loPI    C213774   3.457   3.944   5.347  0.0814  0.1952 -0.0701
  946loPI    C313775   3.724   4.200   5.498  0.1095  0.0770  0.0825
  946loPI   PO413776   3.298   3.977   5.889 -0.1969  0.0922  0.2133
  946loPI   GL113777   3.517   3.946   6.254  0.0817  0.0314  0.1039
  946loPI   GL213778   3.719   4.200   6.139  0.0988  0.2781 -0.0328
  946loPI   C1A13779   3.504   3.635   6.492  0.1737 -0.4096  0.0640
  946loPI   C2A13780   3.652   3.759   6.854 -0.3040 -0.2382  0.1133
  946loPI   C3A13781   3.784   3.796   7.176  0.0907 -0.1735  0.0632
  946loPI   C4A13782   3.610   3.760   7.528  0.0265  0.2675  0.1020
  946loPI   C5A13783   3.787   3.968   7.980  0.2017 -0.2188 -0.1723
  946loPI   C6A13784   3.857   4.279   8.243 -0.0341  0.0400 -0.1580
  946loPI   C1B13785   3.774   4.240   6.563  0.0014  0.2940 -0.0726
  946loPI   C2B13786   3.923   4.334   6.993  0.1904  0.1185  0.1159
  946loPI   C3B13787   3.690   4.423   7.299  0.1408 -0.0818 -0.1539
  946loPI   C4B13788   3.549   4.315   7.625  0.1767  0.2945 -0.1440
  947loPI    C113789  16.194  13.726   5.150  0.0005 -0.1522  0.0430
  947loPI    C213790  15.897  13.897   5.356 -0.2657 -0.4126 -0.1176
  947loPI    C313791  15.946  13.981   4.968 -0.0118 -0.2289 -0.0485
  947loPI   PO413792  16.180  13.464   5.271  0.1622  0.2085  0.1510
  947loPI   GL113793  16.307  13.499   5.700 -0.1445  0.0132  0.1998
  947loPI   GL213794  16.647  13.626   5.855  0.0432 -0.1780 -0.1473
  947loPI   C1A13795  16.089  13.439   6.051 -0.1844  0.0425  0.1130
  947loPI   C2A13796  16.101  13.403   6.566 -0.0738 -0.0368  0.0648
  947loPI   C3A13797  16.188  13.346   6.954 -0.2128  0.0971 -0.0363
  947loPI   C4A13798  16.058  13.392   7.335  0.0359 -0.1732  0.0594
  947loPI   C5A13799  16.164  13.120   7.682 -0.2105 -0.1041 -0.0368
  947loPI   C6A13800  16.284  13.174   8.157 -0.2354 -0.0228  0.1144
  947loPI   C1B13801  16.529  13.586   6.303  0.1765 -0.3128  0.0204
  947loPI   C2B13802  16.426  13.751   6.729 -0.3008 -0.3023 -0.0152
  947loPI   C3B13803  16.493  13.746   7.139 -0.2660  0.0907  0.1299
  947loPI   C4B13804  16.446  13.664   7.623  0.3447 -0.2622 -0.0008
  948loPI    C113805   7.038   0.714   5.368 -0.1084  0.1258  0.0690
  948loPI    C213806   7.242   0.481   5.116  0.1972  0.4632 -0.0030
  948loPI    C313807   6.845   0.511   5.083  0.1381 -0.1197  0.0725
  948loPI   PO413808   7.234   0.964   5.379  0.2147 -0.0183 -0.0364
  948loPI   GL113809   7.202   1.160   5.814 -0.1261  0.0954 -0.2736
  948loPI   GL213810   7.083   0.867   5.917  0.0325  0.0920  0.0959
  948loPI   C1A13811   7.155   1.326   6.222 -0.0783  0.0325 -0.3086
  948loPI   C2A13812   7.130   1.283   6.649  0.2400 -0.3417 -0.0678
  948loPI   C3A13813   7.230   1.482   7.039  0.2396 -0.0412  0.1442
  948loPI   C4A13814   7.115   1.496   7.410 -0.1337  0.1999  0.1026
  948loPI   C5A13815   7.007   1.510   7.877  0.0689 -0.0606  0.3779
  948loPI   C6A13816   7.251   1.621   8.246  0.2619 -0.2426 -0.0775
  948loPI   C1B13817   6.754   0.829   6.251  0.0112  0.1662  0.0490
  948loPI   C2B13818   6.691   0.964   6.677  0.0758 -0.0929 -0.2229
  948loPI   C3B13819   6.759   1.035   7.043  0.0629  0.1853 -0.2174
  948loPI   C4B13820   6.798   1.114   7.431  0.0806  0.0707  0.0815
  949loPI    C113821   7.674  11.589   5.948 -0.0276  0.1003  0.0875
  949loPI    C213822   7.634  11.226   5.783  0.3107 -0.0201  0.2601
  949loPI    C313823   7.314  11.416   5.931  0.0570 -0.0520 -0.2278
  949loPI   PO413824   7.862  11.595   6.042 -0.0636  0.1259  0.3643
  949loPI   GL113825   8.062  11.609   6.428 -0.3243 -0.1577 -0.1351
  949loPI   GL213826   7.918  11.767   6.684  0.0719  0.1676  0.0698
  949loPI   C1A13827   8.384  11.742   6.795  0.1517 -0.0227  0.0944
  949loPI   C2A13828   8.339  11.606   7.258 -0.0428 -0.2036 -0.0288
  949loPI   C3A13829   8.283  11.438   7.689 -0.0223  0.1124  0.0114
  949loPI   C4A13830   7.985  11.274   8.011  0.1627  0.1813  0.0877
  949loPI   C5A13831   7.794  11.022   8.291  0.1011 -0.0849 -0.4027
  949loPI   C6A13832   7.606  10.665   8.259  0.2754 -0.0468  0.3007
  949loPI   C1B13833   7.912  11.780   7.126  0.0024  0.2161 -0.3773
  949loPI   C2B13834   7.815  11.740   7.519 -0.1772 -0.1801 -0.0392
  949loPI   C3B13835   7.781  11.753   7.944  0.2854  0.1385  0.0667
  949loPI   C4B13836   7.536  11.843   8.195  0.1574 -0.2633 -0.1385
  950loPI    C113837  13.140   9.874   4.936  0.0751 -0.1038  0.1170
  950loPI    C213838  13.026  10.116   4.639 -0.0340 -0.0368  0.2130
  950loPI    C313839  13.003   9.720   4.594 -0.0919 -0.0261  0.1481
  950loPI   PO413840  13.034   9.971   5.130  0.3219 -0.2080  0.3612
  950loPI   GL113841  13.015   9.882   5.475 -0.1304 -0.1045  0.0727
  950loPI   GL213842  13.281   9.851   5.737  0.0482  0.0210 -0.0403
  950loPI   C1A13843  12.825   9.955   5.916 -0.1085 -0.1092 -0.1323
  950loPI   C2A13844  12.781   9.986   6.279  0.0430  0.3549  0.0967
  950loPI   C3A13845  12.700   9.955   6.744  0.0233 -0.2065 -0.2714
  950loPI   C4A13846  12.675   9.903   7.072 -0.2053 -0.0807  0.2106
  950loPI   C5A13847  12.828   9.948   7.453 -0.1237 -0.1205 -0.0773
  950loPI   C6A13848  12.846   9.662   7.819  0.1620  0.0350 -0.0496
  950loPI   C1B13849  13.292   9.925   6.205  0.1793  0.3746 -0.0688
  950loPI   C2B13850  13.218   9.953   6.594 -0.2579  0.0823  0.0791
  950loPI   C3B13851  13.183   9.936   6.990 -0.0369  0.1984  0.0593
  950loPI   C4B13852  13.313   9.858   7.463  0.2508  0.1410 -0.0423
  951loPI    C113853  11.821   6.115   5.296 -0.1523 -0.0872 -0.0216
  951loPI    C213854  11.939   6.386   5.026  0.0490 -0.0535  0.0982
  951loPI    C313855  11.659   6.482   5.296  0.1020  0.0274  0.1248
  951loPI   PO413856  11.939   6.044   5.392 -0.1811  0.1070 -0.2069
  951loPI   GL113857  11.992   5.853   5.872  0.1506  0.0977  0.1833
  951loPI   GL213858  11.691   5.980   5.800  0.1085  0.1294  0.1636
  951loPI   C1A13859  12.198   5.612   6.183  0.0853 -0.1964  0.0590
  951loPI   C2A13860  12.180   5.563   6.667  0.1028 -0.2166  0.0654
  951loPI   C3A13861  12.205   5.618   7.090 -0.1019  0.0336 -0.1555
  951loPI   C4A13862  12.056   5.563   7.596  0.2709  0.0866 -0.1888
  951loPI   C5A13863  11.784   5.371   7.871 -0.3090 -0.0302 -0.1410
  951loPI   C6A13864  11.525   5.138   8.044 -0.0628  0.0959  0.2465
  951loPI   C1B13865  11.601   6.018   6.256  0.0837  0.0331 -0.2915
  951loPI   C2B13866  11.587   6.048   6.643  0.1055 -0.2214 -0.2275
  951loPI   C3B13867  11.503   6.143   7.047 -0.3844  0.2228  0.1695
  951loPI   C4B13868  11.558   6.301   7.547  0.1028  0.0496 -0.0926
  952loPI    C113869  10.306   1.488   5.561  0.1557 -0.0396 -0.1291
  952loPI    C213870   9.957   1.453   5.369  0.1295 -0.1390 -0.0645
  952loPI    C313871  10.030   1.229   5.692  0.1132  0.1337  0.1314
  952loPI   PO413872  10.255   1.752   5.574  0.0267 -0.0855  0.3586
  952loPI   GL113873  10.188   1.913   5.902 -0.1453 -0.0328 -0.1534
  952loPI   GL213874   9.957   1.805   5.965 -0.1146  0.1625  0.1966
  952loPI   C1A13875  10.332   1.643   6.298 -0.1483 -0.1166  0.0613
  952loPI   C2A13876  10.280   1.824   6.761  0.1480 -0.0142  0.1355
  952loPI   C3A13877  10.327   1.830   7.174  0.1167 -0.0627 -0.0746
  952loPI   C4A13878  10.430   1.784   7.552 -0.1405 -0.0060 -0.1325
  952loPI   C5A13879  10.617   1.669   7.920  0.0715  0.0465 -0.2102
  952loPI   C6A13880  10.658   1.285   8.174 -0.3902  0.2429 -0.0730
  952loPI   C1B13881   9.923   1.983   6.402  0.0508  0.1019 -0.1091
  952loPI   C2B13882   9.791   2.053   6.749 -0.1188 -0.3015  0.2510
  952loPI   C3B13883   9.936   2.129   7.225  0.0546 -0.1036  0.0594
  952loPI   C4B13884  10.037   2.099   7.684 -0.2662  0.0231 -0.3056
  953loPI    C113885   2.712  16.746   5.713 -0.2094 -0.4497  0.0813
  953loPI    C213886   2.440  16.520   5.525 -0.0819 -0.1216 -0.5246
  953loPI    C313887   2.484  16.905   5.425  0.1061  0.0258  0.0822
  953loPI   PO413888   2.888  16.586   5.778  0.0408  0.1813  0.0979
  953loPI   GL113889   3.119  16.500   6.143  0.1708 -0.0723 -0.2011
  953loPI   GL213890   2.927  16.179   6.030  0.1312  0.0646 -0.0791
  953loPI   C1A13891   3.207  16.820   6.455 -0.0652 -0.2921 -0.1645
  953loPI   C2A13892   3.135  16.885   6.931 -0.0001 -0.2641 -0.1643
  953loPI   C3A13893   3.091  16.882   7.418  0.0191 -0.3622  0.1743
  953loPI   C4A13894   3.286  17.012   7.848  0.1152 -0.0041 -0.1431
  953loPI   C5A13895   3.134  17.247   8.165  0.1946 -0.0597 -0.0653
  953loPI   C6A13896   2.958  17.419   8.397  0.0145  0.1169 -0.0166
  953loPI   C1B13897   3.073  16.119   6.520 -0.2116  0.2042 -0.3318
  953loPI   C2B13898   3.036  16.030   6.882 -0.2158  0.0264 -0.3150
  953loPI   C3B13899   3.051  15.995   7.297  0.0097  0.2394 -0.1497
  953loPI   C4B13900   2.834  16.070   7.591  0.0108  0.0510  0.0008
  954loPI    C113901   0.102  11.030   5.844 -0.0112  0.0201  0.0384
  954loPI    C213902   0.213  11.379   5.683  0.0068  0.0021  0.0115
  954loPI    C313903   0.092  11.080   5.447 -0.0576  0.0073  0.0378
  954loPI   PO413904  -0.026  11.218   6.149  0.1701  0.0040  0.0714
  954loPI   GL113905  -0.363  11.190   6.537  0.2036 -0.0338  0.1954
  954loPI   GL213906  -0.129  10.903   6.598 -0.2023 -0.3128 -0.0792
  954loPI   C1A13907  -0.548  11.459   6.740  0.0013 -0.1247  0.0030
  954loPI   C2A13908  -0.709  11.466   7.145  0.2249 -0.0524  0.0692
  954loPI   C3A13909  -0.678  11.509   7.569  0.1557 -0.0899  0.1165
  954loPI   C4A13910  -0.753  11.672   7.927 -0.0567  0.1754 -0.1918
  954loPI   C5A13911  -0.794  12.004   8.246  0.0517 -0.2453  0.0707
  954loPI   C6A13912  -0.800  12.446   8.284  0.3416 -0.1563  0.0651
  954loPI   C1B13913  -0.089  10.978   7.057 -0.2384  0.1783  0.0240
  954loPI   C2B13914  -0.133  11.132   7.512 -0.0426 -0.1575 -0.0159
  954loPI   C3B13915  -0.141  11.149   7.913  0.1307 -0.2875  0.0567
  954loPI   C4B13916   0.097  11.105   8.262  0.2057 -0.0248  0.0446
  955loPI    C113917  17.590   9.629   5.809  0.1175  0.0886  0.0620
  955loPI    C213918  17.887   9.703   5.552  0.1356 -0.1452  0.0137
  955loPI    C313919  17.511   9.678   5.420  0.1554 -0.3556 -0.0059
  955loPI   PO413920  17.719   9.755   6.008  0.1399 -0.0661  0.1044
  955loPI   GL113921  17.735  10.009   6.445  0.2080  0.1011  0.0374
  955loPI   GL213922  17.406   9.939   6.424  0.2138  0.0661  0.2339
  955loPI   C1A13923  17.947  10.067   6.796  0.0810 -0.1068 -0.1986
  955loPI   C2A13924  18.069  10.144   7.220 -0.0040 -0.3871 -0.1016
  955loPI   C3A13925  17.925  10.217   7.618 -0.4425 -0.2116  0.1541
  955loPI   C4A13926  18.019  10.160   8.054  0.1261 -0.4206 -0.0394
  955loPI   C5A13927  17.748  10.431   8.276  0.0879  0.1251 -0.1034
  955loPI   C6A13928  17.667  10.798   8.306 -0.3076 -0.0597 -0.0433
  955loPI   C1B13929  17.430   9.964   6.857 -0.0729  0.2678  0.0919
  955loPI   C2B13930  17.565  10.163   7.215  0.0118 -0.1243  0.1721
  955loPI   C3B13931  17.397  10.213   7.566 -0.2533 -0.1552 -0.2422
  955loPI   C4B13932  17.451  10.195   7.968 -0.1265 -0.1047 -0.1254
  956loPI    C113933   9.398   7.375   5.445  0.0495 -0.1059  0.1221
  956loPI    C213934   9.119   7.269   5.179  0.1379  0.0852 -0.0494
  956loPI    C313935   9.479   7.094   5.172  0.1576  0.1270 -0.0895
  956loPI   PO413936   9.195   7.454   5.647 -0.0111  0.0320 -0.1892
  956loPI   GL113937   8.952   7.581   5.940  0.3829  0.1085  0.0317
  956loPI   GL213938   9.296   7.613   6.094 -0.1112  0.0174 -0.2172
  956loPI   C1A13939   8.859   7.441   6.322  0.2483  0.3642 -0.2258
  956loPI   C2A13940   8.868   7.521   6.717 -0.2643  0.0106 -0.2774
  956loPI   C3A13941   8.897   7.540   7.127  0.3054  0.1631 -0.0513
  956loPI   C4A13942   8.883   7.529   7.515 -0.1122  0.1352 -0.1473
  956loPI   C5A13943   9.121   7.462   7.937 -0.0032 -0.0574 -0.0717
  956loPI   C6A13944   9.322   7.431   8.384 -0.0856 -0.1460  0.2919
  956loPI   C1B13945   9.362   7.428   6.606  0.0172  0.1764  0.3000
  956loPI   C2B13946   9.408   7.527   7.024  0.0175 -0.1208 -0.0854
  956loPI   C3B13947   9.565   7.647   7.500 -0.0164  0.2051 -0.0031
  956loPI   C4B13948   9.863   7.847   7.758  0.1036 -0.1889  0.0489
  957loPI    C113949  11.029   4.025   5.135  0.1254 -0.0969  0.1230
  957loPI    C213950  11.017   4.392   4.977  0.0333 -0.0539  0.2280
  957loPI    C313951  10.917   4.075   4.754  0.0184 -0.0057  0.1657
  957loPI   PO413952  10.881   4.033   5.374  0.1050 -0.1134 -0.0036
  957loPI   GL113953  10.736   3.765   5.746 -0.0139 -0.1550 -0.2936
  957loPI   GL213954  10.797   3.983   5.949 -0.1730 -0.2632  0.1983
  957loPI   C1A13955  10.696   3.440   6.062 -0.0265 -0.1165 -0.0105
  957loPI   C2A13956  10.801   3.399   6.390 -0.1977 -0.1998 -0.1223
  957loPI   C3A13957  10.907   3.467   6.873  0.0379 -0.3016  0.0473
  957loPI   C4A13958  10.725   3.786   7.150  0.2505 -0.2714  0.1101
  957loPI   C5A13959  10.780   3.945   7.536 -0.0158 -0.1914  0.1913
  957loPI   C6A13960  10.861   4.191   7.875 -0.1810 -0.0516 -0.1384
  957loPI   C1B13961  10.714   4.105   6.307  0.2124  0.0211 -0.0844
  957loPI   C2B13962  10.852   4.060   6.789  0.1509 -0.3239  0.1708
  957loPI   C3B13963  10.756   4.330   7.169  0.3012 -0.0603 -0.0556
  957loPI   C4B13964  10.760   4.584   7.545  0.1445  0.3000 -0.1096
  958loPI    C113965   5.291   3.030   5.857 -0.2664  0.0636  0.0481
  958loPI    C213966   4.893   3.044   5.818 -0.2677 -0.1031 -0.0058
  958loPI    C313967   5.128   3.130   5.505 -0.2570  0.2117  0.0850
  958loPI   PO413968   5.359   3.140   6.137  0.3399 -0.0596 -0.2162
  958loPI   GL113969   5.351   3.040   6.585 -0.0891 -0.0790 -0.0164
  958loPI   GL213970   5.513   3.377   6.538  0.1158  0.3186  0.1251
  958loPI   C1A13971   5.284   2.887   6.963 -0.0360  0.0521 -0.0415
  958loPI   C2A13972   5.397   2.987   7.390 -0.2978  0.1349 -0.1321
  958loPI   C3A13973   5.527   3.112   7.791  0.0726 -0.0820  0.2132
  958loPI   C4A13974   5.327   3.042   8.172  0.2896  0.1504 -0.0623
  958loPI   C5A13975   4.892   3.236   8.418 -0.2100 -0.0043  0.1449
  958loPI   C6A13976   4.646   3.567   8.456 -0.2226 -0.3533 -0.1621
  958loPI   C1B13977   5.397   3.426   6.936  0.1639 -0.1194  0.0509
  958loPI   C2B13978   5.224   3.484   7.461  0.1550  0.1142  0.2212
  958loPI   C3B13979   5.069   3.493   7.913  0.2306 -0.3227  0.0094
  958loPI   C4B13980   5.078   3.670   8.307  0.0320  0.2468  0.2445
  959loPI    C113981  14.196   3.381   5.131 -0.1557 -0.0973  0.1138
  959loPI    C213982  14.337   3.009   5.087 -0.1349 -0.0796  0.0285
  959loPI    C313983  13.947   3.083   5.036 -0.1646 -0.1162  0.1954
  959loPI   PO413984  14.245   3.437   5.293  0.1472 -0.0689  0.1067
  959loPI   GL113985  14.176   3.487   5.820  0.2264 -0.0559 -0.0756
  959loPI   GL213986  14.385   3.461   6.156 -0.2114  0.1503 -0.0257
  959loPI   C1A13987  14.086   3.102   6.104 -0.1382 -0.1284 -0.0329
  959loPI   C2A13988  14.143   2.762   6.565 -0.0899  0.1635  0.1292
  959loPI   C3A13989  14.082   2.796   6.977 -0.0637 -0.0173 -0.2436
  959loPI   C4A13990  13.984   2.836   7.453  0.0782 -0.1001 -0.1106
  959loPI   C5A13991  13.756   3.056   7.713 -0.1641  0.1191  0.1034
  959loPI   C6A13992  13.502   3.407   7.963  0.0940 -0.3074  0.2448
  959loPI   C1B13993  14.318   3.375   6.464  0.1128  0.1053 -0.0961
  959loPI   C2B13994  14.322   3.214   6.872 -0.2052 -0.0863  0.2944
  959loPI   C3B13995  14.254   3.193   7.247  0.1476  0.1056  0.2701
  959loPI   C4B13996  14.237   3.236   7.659  0.0358 -0.1799 -0.0781
  960loPI    C113997  15.568   3.865   5.483  0.0060  0.1257 -0.1425
  960loPI    C213998  15.549   3.624   5.164 -0.0769 -0.0448 -0.0102
  960loPI    C313999  15.337   3.963   5.171 -0.1130 -0.0647 -0.1158
  960loPI   PO414000  15.488   3.772   5.695 -0.0335  0.0730  0.1971
  960loPI   GL114001  15.347   3.939   6.103  0.1538  0.1647  0.0114
  960loPI   GL214002  15.420   4.244   6.074  0.4266  0.0839  0.2855
  960loPI   C1A14003  15.219   3.647   6.464  0.0375 -0.4278  0.3616
  960loPI   C2A14004  15.275   3.592   6.818  0.1144 -0.3227 -0.0249
  960loPI   C3A14005  15.238   3.516   7.217 -0.0683  0.2709 -0.1855
  960loPI   C4A14006  15.249   3.363   7.685  0.2375  0.1666 -0.0699
  960loPI   C5A14007  15.085   3.606   8.090  0.1144 -0.1968  0.0681
  960loPI   C6A14008  15.301   4.018   8.272 -0.1466 -0.0413 -0.1188
  960loPI   C1B14009  15.317   4.247   6.486 -0.2396  0.0450  0.0057
  960loPI   C2B14010  15.006   4.045   6.698  0.1135 -0.0411  0.2424
  960loPI   C3B14011  14.923   3.969   7.124 -0.3345  0.1621 -0.1256
  960loPI   C4B14012  14.860   3.868   7.621 -0.2065 -0.2773  0.0624
  961loPI    C114013   1.471   8.155   5.545  0.0077 -0.0901  0.2274
  961loPI    C214014   1.138   8.227   5.336  0.1430  0.1072  0.0761
  961loPI    C314015   1.370   7.916   5.241  0.1697  0.1578 -0.0261
  961loPI   PO414016   1.392   8.116   5.833  0.1313  0.0491  0.0646
  961loPI   GL114017   1.350   8.337   6.098 -0.3287  0.0528  0.0516
  961loPI   GL214018   1.468   8.626   6.223  0.0625 -0.1690 -0.0915
  961loPI   C1A14019   1.341   8.293   6.570 -0.0232 -0.1433  0.1365
  961loPI   C2A14020   1.399   8.288   6.940  0.1328  0.1364 -0.1951
  961loPI   C3A14021   1.579   8.064   7.366  0.1453 -0.0184 -0.2491
  961loPI   C4A14022   1.385   7.933   7.828  0.0155  0.2407 -0.0968
  961loPI   C5A14023   1.195   7.773   8.218  0.1724  0.0308  0.1294
  961loPI   C6A14024   1.065   7.408   8.354 -0.1652  0.0430  0.0537
  961loPI   C1B14025   1.779   8.482   6.599 -0.0729 -0.0335 -0.1729
  961loPI   C2B14026   1.888   8.372   7.005  0.1479  0.2118  0.1831
  961loPI   C3B14027   2.062   8.236   7.386  0.0753 -0.4131 -0.2027
  961loPI   C4B14028   1.974   8.135   7.727 -0.4386  0.3254  0.3072
  962loPI    C114029   2.760   1.323   5.778  0.1596 -0.1541  0.1001
  962loPI    C214030   3.092   1.477   5.618  0.1084  0.0457  0.1826
  962loPI    C314031   2.771   1.411   5.388  0.1255  0.0767  0.1496
  962loPI   PO414032   2.901   1.149   5.992  0.2411 -0.0242 -0.1472
  962loPI   GL114033   2.928   1.262   6.437 -0.1787  0.2935 -0.0769
  962loPI   GL214034   3.059   0.962   6.397 -0.0380  0.1708 -0.1967
  962loPI   C1A14035   2.836   1.230   6.906  0.0639  0.0601 -0.1557
  962loPI   C2A14036   2.800   1.323   7.376 -0.1133  0.1252  0.3165
  962loPI   C3A14037   2.794   1.425   7.807  0.3624 -0.1164 -0.1484
  962loPI   C4A14038   2.951   1.703   8.051  0.2289  0.0725 -0.0642
  962loPI   C5A14039   3.145   2.049   8.308 -0.0854  0.0888  0.3060
  962loPI   C6A14040   3.325   2.435   8.488 -0.2971 -0.1654  0.0555
  962loPI   C1B14041   3.228   0.882   6.806 -0.2123  0.0132  0.0912
  962loPI   C2B14042   3.219   0.979   7.291 -0.0697 -0.0776  0.1912
  962loPI   C3B14043   3.052   0.982   7.662  0.1513  0.0497 -0.3220
  962loPI   C4B14044   2.809   0.980   8.029  0.0262 -0.1156  0.2148
  963loPI    C114045  17.609   7.522   5.807 -0.1255  0.0856  0.1662
  963loPI    C214046  17.662   7.896   5.939  0.0645  0.1082  0.0294
  963loPI    C314047  17.686   7.816   5.548  0.2005 -0.0767  0.0741
  963loPI   PO414048  17.744   7.404   5.938 -0.1471 -0.0452  0.2436
  963loPI   GL114049  17.783   7.413   6.250  0.2844 -0.3787 -0.2258
  963loPI   GL214050  17.494   7.327   6.340  0.3516 -0.1715  0.1532
  963loPI   C1A14051  17.885   7.529   6.705  0.0044 -0.0270 -0.0397
  963loPI   C2A14052  18.058   7.538   7.029 -0.1351 -0.0880 -0.0337
  963loPI   C3A14053  18.099   7.306   7.312 -0.0081  0.0097  0.2750
  963loPI   C4A14054  17.872   7.215   7.717  0.0709 -0.0147 -0.0022
  963loPI   C5A14055  17.460   7.256   7.937 -0.0159  0.2263 -0.0886
  963loPI   C6A14056  17.380   7.186   8.281 -0.2559  0.3241  0.1936
  963loPI   C1B14057  17.437   7.341   6.724  0.0016 -0.1003 -0.2791
  963loPI   C2B14058  17.597   7.447   7.146 -0.1073  0.1187 -0.1072
  963loPI   C3B14059  17.437   7.511   7.516  0.1193  0.2044 -0.0955
  963loPI   C4B14060  17.700   7.647   7.928  0.0167  0.3181  0.2666
  964loPI    C114061   3.429   8.032   5.680  0.3193  0.0736 -0.0122
  964loPI    C214062   3.297   8.220   5.354 -0.0256 -0.3456 -0.1233
  964loPI    C314063   3.642   8.331   5.522 -0.1017  0.2212 -0.3173
  964loPI   PO414064   3.160   7.967   5.834  0.0060  0.0564 -0.1661
  964loPI   GL114065   3.149   7.985   6.293  0.2133 -0.0737  0.0406
  964loPI   GL214066   3.410   7.762   6.217  0.1578 -0.0963  0.2330
  964loPI   C1A14067   3.147   8.314   6.589 -0.1676  0.1391 -0.0419
  964loPI   C2A14068   3.173   8.294   6.992  0.3003  0.4554 -0.1725
  964loPI   C3A14069   3.062   8.329   7.461 -0.0616  0.0023  0.0369
  964loPI   C4A14070   3.224   8.288   7.830 -0.1038 -0.1888 -0.0139
  964loPI   C5A14071   3.531   8.016   7.987  0.4263  0.0575  0.0719
  964loPI   C6A14072   3.548   7.687   8.220  0.4223 -0.2339 -0.1379
  964loPI   C1B14073   3.432   7.871   6.697 -0.2794  0.0281 -0.1508
  964loPI   C2B14074   3.444   7.940   7.138 -0.3895 -0.1164  0.0475
  964loPI   C3B14075   3.366   7.865   7.550 -0.0807 -0.1838 -0.0630
  964loPI   C4B14076   3.216   7.600   7.782  0.1801 -0.0500 -0.2045
  965loPI    C114077   9.859  13.858   5.834  0.0922  0.0685  0.0009
  965loPI    C214078  10.134  14.023   5.595  0.2623 -0.0238  0.1301
  965loPI    C314079   9.788  13.894   5.442  0.2326  0.2174 -0.0124
  965loPI   PO414080  10.041  13.708   5.989 -0.0681 -0.2007 -0.0974
  965loPI   GL114081  10.266  13.596   6.378 -0.0601  0.0833 -0.1802
  965loPI   GL214082  10.448  13.808   6.400  0.0738 -0.0057 -0.0179
  965loPI   C1A14083  10.518  13.398   6.754  0.3803  0.0472 -0.0363
  965loPI   C2A14084  10.473  13.471   7.199 -0.0109  0.3303  0.0462
  965loPI   C3A14085  10.425  13.613   7.654  0.2856 -0.5945  0.1812
  965loPI   C4A14086  10.285  13.750   7.973  0.2459  0.2183 -0.0096
  965loPI   C5A14087  10.393  13.826   8.374 -0.0493 -0.0353 -0.0514
  965loPI   C6A14088  10.241  13.932   8.793 -0.0808  0.0700 -0.0150
  965loPI   C1B14089  10.512  13.856   6.826  0.1648 -0.2483 -0.3509
  965loPI   C2B14090  10.632  13.960   7.272  0.0338 -0.0811 -0.1156
  965loPI   C3B14091  10.791  14.072   7.658  0.1172 -0.3822  0.0596
  965loPI   C4B14092  10.733  14.195   8.138  0.0339  0.1920  0.2173
  966loPI    C114093   0.196   2.458   5.448 -0.1163 -0.0800 -0.2385
  966loPI    C214094   0.547   2.463   5.255 -0.0081 -0.3945 -0.0568
  966loPI    C314095   0.226   2.299   5.082 -0.1457  0.1523 -0.3441
  966loPI   PO414096   0.282   2.377   5.674 -0.2766 -0.0471  0.2730
  966loPI   GL114097   0.064   2.562   6.066  0.0142  0.7552  0.1116
  966loPI   GL214098  -0.085   2.931   6.147  0.3836  0.1014  0.3461
  966loPI   C1A14099   0.154   2.304   6.413  0.1063 -0.2425 -0.1225
  966loPI   C2A14100   0.190   2.216   6.848 -0.0999  0.0319 -0.2364
  966loPI   C3A14101   0.371   2.157   7.271  0.1236 -0.2378  0.1957
  966loPI   C4A14102   0.333   1.954   7.688 -0.2552  0.0297 -0.0454
  966loPI   C5A14103   0.487   1.656   7.990  0.1964  0.2123 -0.1174
  966loPI   C6A14104   0.568   1.265   8.200  0.1195  0.1284 -0.0496
  966loPI   C1B14105  -0.054   3.151   6.527 -0.1472 -0.1762  0.0786
  966loPI   C2B14106  -0.076   3.115   6.899 -0.0128 -0.0567  0.1214
  966loPI   C3B14107  -0.214   2.978   7.294  0.1499  0.0966 -0.3710
  966loPI   C4B14108  -0.446   2.905   7.603  0.0456 -0.2386  0.2055
  967loPI    C114109  12.858   2.994   5.060  0.0498  0.2452  0.0064
  967loPI    C214110  12.496   2.982   4.890 -0.0905  0.0975  0.3079
  967loPI    C314111  12.816   3.084   4.673 -0.2642 -0.0835 -0.0408
  967loPI   PO414112  12.765   2.917   5.338 -0.4022  0.2117  0.0965
  967loPI   GL114113  12.636   3.025   5.796  0.3506  0.0643 -0.1443
  967loPI   GL214114  12.377   2.868   5.800 -0.2044 -0.3211  0.1619
  967loPI   C1A14115  12.822   3.222   6.137  0.0599 -0.2640  0.0949
  967loPI   C2A14116  12.864   3.338   6.470  0.0140  0.0309  0.1955
  967loPI   C3A14117  12.898   3.355   6.929 -0.1716 -0.0677  0.1667
  967loPI   C4A14118  12.835   3.409   7.306 -0.0330 -0.1211  0.0545
  967loPI   C5A14119  12.976   3.352   7.734 -0.0266 -0.1716 -0.2042
  967loPI   C6A14120  12.990   3.615   8.219  0.2666  0.2125  0.1318
  967loPI   C1B14121  12.332   2.995   6.185 -0.0305  0.0852 -0.1378
  967loPI   C2B14122  12.454   3.126   6.673  0.1600  0.0222 -0.0159
  967loPI   C3B14123  12.349   3.249   7.130  0.1935  0.0235  0.0092
  967loPI   C4B14124  12.433   3.244   7.624 -0.1513  0.0499 -0.1688
  968loPI    C114125  13.923   4.676   5.349  0.1649  0.1086  0.1816
  968loPI    C214126  14.127   4.332   5.339 -0.2144 -0.1187  0.0454
  968loPI    C314127  14.215   4.624   5.081  0.0010 -0.1758  0.0524
  968loPI   PO414128  13.826   4.671   5.653  0.1204 -0.0363 -0.4319
  968loPI   GL114129  13.970   4.808   5.961 -0.0783  0.0011 -0.0783
  968loPI   GL214130  13.865   4.618   6.237  0.0003  0.0003  0.0641
  968loPI   C1A14131  13.950   5.106   6.349 -0.2382 -0.0070  0.0435
  968loPI   C2A14132  14.113   5.344   6.729 -0.1766  0.3969  0.0589
  968loPI   C3A14133  14.054   5.437   7.127  0.1766  0.1732  0.1388
  968loPI   C4A14134  13.781   5.457   7.575 -0.0489  0.0007 -0.0692
  968loPI   C5A14135  13.366   5.330   7.838 -0.0032  0.0318  0.0821
  968loPI   C6A14136  12.974   5.361   8.068  0.0807 -0.1210  0.0246
  968loPI   C1B14137  13.631   4.796   6.594  0.2723  0.2099  0.0408
  968loPI   C2B14138  13.747   4.983   6.949 -0.3120 -0.1594  0.2246
  968loPI   C3B14139  13.795   4.939   7.366  0.0240  0.0098  0.1573
  968loPI   C4B14140  13.820   4.955   7.727  0.1125  0.1018 -0.4350
  969loPI    C114141   2.104   5.069   5.818 -0.1511  0.0107  0.1733
  969loPI    C214142   2.289   5.184   5.483  0.1202 -0.3317  0.2001
  969loPI    C314143   1.923   5.025   5.464 -0.0830  0.1281  0.1230
  969loPI   PO414144   2.082   5.304   6.053  0.1327  0.2243 -0.0050
  969loPI   GL114145   1.876   5.281   6.445 -0.1917 -0.2118 -0.1654
  969loPI   GL214146   2.106   5.555   6.504  0.0955 -0.0674  0.1455
  969loPI   C1A14147   1.529   4.940   6.560  0.1913 -0.1404  0.2125
  969loPI   C2A14148   1.124   4.754   6.682 -0.2327  0.0880  0.2510
  969loPI   C3A14149   0.870   4.593   7.056  0.2681 -0.0037 -0.0582
  969loPI   C4A14150   0.766   4.678   7.445  0.1461  0.0970  0.2402
  969loPI   C5A14151   0.869   4.909   7.682 -0.0379 -0.2002  0.0027
  969loPI   C6A14152   1.190   5.176   7.899  0.3525 -0.0160 -0.2094
  969loPI   C1B14153   2.028   5.558   6.970 -0.1256  0.1062  0.1470
  969loPI   C2B14154   2.028   5.536   7.470 -0.0083 -0.0356 -0.1827
  969loPI   C3B14155   1.970   5.246   7.831  0.1215 -0.0174  0.0927
  969loPI   C4B14156   2.277   5.022   8.163  0.0944 -0.2888 -0.0431
  970loPI    C114157   0.031   6.949   5.642 -0.1029  0.0458  0.0256
  970loPI    C214158  -0.020   6.577   5.779  0.0927 -0.0428 -0.1359
  970loPI    C314159   0.129   6.636   5.413  0.0425  0.1953 -0.1196
  970loPI   PO414160   0.208   7.075   5.859  0.0386  0.0303  0.1663
  970loPI   GL114161   0.294   7.015   6.258 -0.2655 -0.0471 -0.0243
  970loPI   GL214162   0.308   7.320   6.455  0.0220  0.1632 -0.0679
  970loPI   C1A14163   0.306   6.717   6.590 -0.0768 -0.0598  0.1722
  970loPI   C2A14164   0.190   6.656   7.024 -0.4372  0.1452  0.0621
  970loPI   C3A14165   0.004   6.738   7.360  0.0469  0.2059 -0.0421
  970loPI   C4A14166  -0.018   6.678   7.771 -0.1647 -0.1649 -0.2443
  970loPI   C5A14167   0.103   6.441   8.095  0.0935  0.2987 -0.3729
  970loPI   C6A14168   0.268   6.440   8.434  0.2362  0.0595 -0.0767
  970loPI   C1B14169   0.441   7.135   6.756 -0.1983 -0.0645  0.1020
  970loPI   C2B14170   0.577   7.150   7.218  0.1465  0.3306 -0.0137
  970loPI   C3B14171   0.421   7.048   7.635 -0.0539  0.1418  0.0631
  970loPI   C4B14172   0.410   6.822   8.086  0.0480 -0.0350  0.0442
  971loPI    C114173   6.069  13.948   5.837  0.0437 -0.0495 -0.1292
  971loPI    C214174   5.912  13.834   5.487 -0.2975 -0.1182  0.0418
  971loPI    C314175   5.758  14.146   5.683  0.0621  0.0867  0.0068
  971loPI   PO414176   6.075  13.762   5.945  0.0924  0.1028 -0.0276
  971loPI   GL114177   6.349  13.661   6.297  0.1188  0.0972  0.0867
  971loPI   GL214178   6.191  13.342   6.192  0.1104  0.3880  0.4101
  971loPI   C1A14179   6.587  13.271   6.516  0.0692  0.0929  0.0608
  971loPI   C2A14180   6.680  13.233   6.898 -0.3472 -0.0922 -0.0226
  971loPI   C3A14181   6.553  13.195   7.288 -0.0869 -0.0859 -0.0387
  971loPI   C4A14182   6.320  12.892   7.534 -0.1864  0.1177 -0.1899
  971loPI   C5A14183   6.035  12.516   7.649 -0.1684  0.1995 -0.0149
  971loPI   C6A14184   5.648  12.318   7.377  0.0396  0.1586 -0.1531
  971loPI   C1B14185   6.057  13.425   6.623 -0.2464  0.0251 -0.0960
  971loPI   C2B14186   6.252  13.488   7.005  0.1199 -0.1077 -0.3335
  971loPI   C3B14187   6.135  13.391   7.508 -0.2763  0.1146 -0.0066
  971loPI   C4B14188   6.441  13.289   7.802  0.0987 -0.2103 -0.2013
  972loPI    C114189   4.912   4.077   5.562  0.0249  0.0382  0.3034
  972loPI    C214190   5.088   4.035   5.205  0.4172  0.0748  0.4873
  972loPI    C314191   4.774   4.280   5.246  0.1738 -0.1621  0.1065
  972loPI   PO414192   5.107   4.013   5.690 -0.2037 -0.2568 -0.0264
  972loPI   GL114193   5.280   3.950   6.032  0.0582 -0.1152  0.1516
  972loPI   GL214194   5.132   4.186   6.210  0.2545 -0.1644 -0.0200
  972loPI   C1A14195   5.411   3.811   6.501  0.2510 -0.3290 -0.0312
  972loPI   C2A14196   5.229   3.896   6.946  0.0213 -0.2541  0.2304
  972loPI   C3A14197   5.221   3.970   7.367 -0.1824  0.0059 -0.0917
  972loPI   C4A14198   5.378   4.368   7.641 -0.1318  0.3676 -0.2202
  972loPI   C5A14199   5.790   4.474   7.704  0.1832 -0.0206 -0.3136
  972loPI   C6A14200   6.017   4.585   8.085 -0.0690  0.0804  0.0849
  972loPI   C1B14201   5.221   4.257   6.658 -0.0608 -0.2028  0.0642
  972loPI   C2B14202   5.293   4.417   6.991  0.0608 -0.0251  0.0300
  972loPI   C3B14203   5.620   4.549   7.246  0.5302  0.2259 -0.1965
  972loPI   C4B14204   5.517   4.852   7.549  0.0846  0.1510  0.0051
  973loPI    C114205  16.679  15.648   5.872  0.0555  0.2084  0.0913
  973loPI    C214206  16.311  15.537   5.762  0.2547 -0.0919 -0.2962
  973loPI    C314207  16.448  15.899   5.663  0.1477 -0.0664 -0.3531
  973loPI   PO414208  16.738  15.515   6.103  0.0009 -0.2965 -0.1860
  973loPI   GL114209  17.106  15.476   6.331  0.0080  0.0123 -0.1508
  973loPI   GL214210  17.394  15.777   6.377 -0.0617  0.1055  0.1051
  973loPI   C1A14211  16.794  15.390   6.733  0.0393  0.3851  0.0398
  973loPI   C2A14212  16.618  15.207   7.078 -0.1905 -0.0847 -0.2250
  973loPI   C3A14213  16.571  15.118   7.435 -0.0878 -0.0074  0.7298
  973loPI   C4A14214  16.759  15.044   7.737  0.0598  0.1227  0.0525
  973loPI   C5A14215  16.984  14.810   8.072  0.1593 -0.0067  0.2233
  973loPI   C6A14216  17.343  14.776   7.858  0.0333  0.1510  0.0232
  973loPI   C1B14217  17.377  15.804   6.748 -0.0084 -0.0583  0.0312
  973loPI   C2B14218  17.130  15.614   7.013  0.1097  0.0568 -0.0574
  973loPI   C3B14219  17.098  15.449   7.474 -0.1488 -0.0060 -0.0845
  973loPI   C4B14220  17.311  15.282   7.950  0.1216  0.1119 -0.0531
  974loPI    C114221  11.731  10.299   5.070  0.0561 -0.0169  0.0367
  974loPI    C214222  12.098  10.253   4.917  0.0557 -0.2319  0.0964
  974loPI    C314223  11.846  10.520   4.758  0.2332 -0.0923  0.0474
  974loPI   PO414224  11.757  10.329   5.335 -0.4563  0.2002 -0.0028
  974loPI   GL114225  11.566  10.232   5.676  0.3012 -0.1313  0.0893
  974loPI   GL214226  11.709   9.951   5.648 -0.1738 -0.0294  0.3240
  974loPI   C1A14227  11.464  10.194   6.072  0.4326 -0.2470  0.3835
  974loPI   C2A14228  11.453  10.232   6.553  0.1087 -0.1652 -0.0946
  974loPI   C3A14229  11.360  10.247   6.902 -0.1284 -0.1437 -0.0874
  974loPI   C4A14230  11.361  10.373   7.367  0.1021  0.1496 -0.0667
  974loPI   C5A14231  11.244  10.552   7.808  0.0176 -0.0073  0.3825
  974loPI   C6A14232  11.075  10.367   8.188  0.2826 -0.0766  0.2893
  974loPI   C1B14233  11.795   9.815   6.043  0.1851 -0.3653 -0.1588
  974loPI   C2B14234  11.740   9.798   6.453 -0.2137  0.1291  0.2728
  974loPI   C3B14235  11.688   9.773   6.898  0.0493 -0.1087  0.0420
  974loPI   C4B14236  11.649   9.870   7.289  0.0913 -0.1461 -0.0992
  975loPI    C114237   0.100   4.138   5.652  0.1843  0.1574  0.1022
  975loPI    C214238   0.378   3.857   5.598 -0.0726 -0.0282 -0.3075
  975loPI    C314239   0.299   4.117   5.306 -0.0971  0.2384 -0.0678
  975loPI   PO414240  -0.086   4.119   5.808 -0.0776  0.1290 -0.1280
  975loPI   GL114241  -0.356   4.099   6.102  0.0556  0.0752  0.0245
  975loPI   GL214242  -0.345   4.268   6.415 -0.1161  0.0811 -0.0588
  975loPI   C1A14243  -0.240   3.760   6.373 -0.0591 -0.2756 -0.1802
  975loPI   C2A14244   0.095   3.626   6.638  0.0043 -0.0721 -0.3332
  975loPI   C3A14245   0.140   3.567   7.013 -0.1065 -0.1654 -0.1420
  975loPI   C4A14246   0.169   3.322   7.403  0.2661 -0.0495  0.1492
  975loPI   C5A14247   0.214   3.405   7.856 -0.1567  0.3825  0.2422
  975loPI   C6A14248   0.245   3.238   8.203  0.1150 -0.6008  0.1037
  975loPI   C1B14249  -0.186   4.038   6.811 -0.1484  0.2108 -0.1570
  975loPI   C2B14250  -0.149   3.944   7.196  0.0566 -0.2034  0.1347
  975loPI   C3B14251   0.053   3.850   7.562  0.1010 -0.1884  0.0252
  975loPI   C4B14252  -0.043   3.852   7.958 -0.2184 -0.1440  0.3363
  976loPI    C114253  14.535   1.991   5.062 -0.4406 -0.0445  0.0598
  976loPI    C214254  14.664   1.804   4.733 -0.0155 -0.1617  0.2852
  976loPI    C314255  14.390   2.094   4.704 -0.0951 -0.2734 -0.1520
  976loPI   PO414256  14.470   1.808   5.257 -0.1322 -0.1906 -0.0139
  976loPI   GL114257  14.358   1.776   5.646  0.2381 -0.2979  0.0886
  976loPI   GL214258  14.298   2.011   5.782  0.3552 -0.1558 -0.0150
  976loPI   C1A14259  14.288   1.421   5.937  0.1491  0.0973  0.1288
  976loPI   C2A14260  14.302   1.303   6.349 -0.3336 -0.1195 -0.1763
  976loPI   C3A14261  14.336   1.432   6.799 -0.0191 -0.0368 -0.1530
  976loPI   C4A14262  14.363   1.473   7.249 -0.0669  0.0441  0.0406
  976loPI   C5A14263  14.480   1.213   7.697  0.1196  0.0454  0.0493
  976loPI   C6A14264  14.621   1.192   8.184 -0.0029  0.2038  0.0835
  976loPI   C1B14265  14.101   2.213   6.078  0.1511  0.0935 -0.0363
  976loPI   C2B14266  13.968   2.310   6.488 -0.2039 -0.2207 -0.0267
  976loPI   C3B14267  13.970   2.297   6.927 -0.0159  0.1522 -0.2513
  976loPI   C4B14268  13.976   2.338   7.286  0.1583 -0.2425  0.1584
  977loPI    C114269   0.870   8.745   5.909  0.0813  0.0306  0.1033
  977loPI    C214270   0.963   8.365   5.828  0.1673  0.0658  0.0357
  977loPI    C314271   0.821   8.602   5.539  0.1650  0.1001  0.0648
  977loPI   PO414272   1.060   8.823   6.008 -0.1250 -0.0515 -0.1258
  977loPI   GL114273   1.046   9.033   6.452 -0.1441  0.5325  0.0212
  977loPI   GL214274   0.916   9.250   6.278 -0.1480  0.1654  0.0063
  977loPI   C1A14275   0.984   9.095   6.923 -0.0486  0.0994 -0.0029
  977loPI   C2A14276   1.048   8.983   7.353  0.0214 -0.1236  0.3054
  977loPI   C3A14277   1.223   8.689   7.737 -0.1141 -0.2352 -0.0022
  977loPI   C4A14278   1.572   8.417   7.896 -0.0396  0.0162 -0.1251
  977loPI   C5A14279   1.615   8.182   8.246  0.1766  0.0223 -0.0412
  977loPI   C6A14280   1.578   8.184   8.770  0.1576  0.0671  0.3048
  977loPI   C1B14281   0.697   9.433   6.550  0.0542 -0.1436  0.0723
  977loPI   C2B14282   0.911   9.756   6.959 -0.0081 -0.0561 -0.3013
  977loPI   C3B14283   1.060   9.833   7.328  0.0223 -0.1699  0.0613
  977loPI   C4B14284   1.405   9.817   7.590  0.1851 -0.0567  0.1492
  978loPI    C114285   7.304   8.947   5.627 -0.0386 -0.0638 -0.4992
  978loPI    C214286   7.663   9.114   5.688 -0.1176 -0.1150  0.1908
  978loPI    C314287   7.621   8.823   5.416  0.2373  0.2637 -0.2889
  978loPI   PO414288   7.273   8.842   5.888  0.2407 -0.2402  0.0198
  978loPI   GL114289   7.135   8.803   6.176  0.4798  0.3925  0.1458
  978loPI   GL214290   6.984   8.526   6.317  0.0651 -0.2949 -0.0139
  978loPI   C1A14291   7.142   9.115   6.542 -0.0440  0.0381 -0.1677
  978loPI   C2A14292   7.062   9.149   6.994  0.4313  0.1764 -0.0831
  978loPI   C3A14293   7.169   9.027   7.420  0.0011 -0.2836 -0.2594
  978loPI   C4A14294   7.383   9.133   7.718  0.3798 -0.1523 -0.0340
  978loPI   C5A14295   7.596   9.407   8.041 -0.1808 -0.1131  0.0374
  978loPI   C6A14296   7.516   9.659   8.400 -0.1497  0.0235  0.0174
  978loPI   C1B14297   7.042   8.655   6.666 -0.2800  0.1703 -0.2530
  978loPI   C2B14298   7.021   8.638   7.062  0.0075  0.1264  0.5309
  978loPI   C3B14299   6.897   8.610   7.414  0.2764 -0.2038  0.1963
  978loPI   C4B14300   6.471   8.705   7.637 -0.0210 -0.0111 -0.0043
  979loPI    C114301   2.022   8.766   5.960  0.4411 -0.2187 -0.0189
  979loPI    C214302   1.990   8.713   5.565  0.2368  0.0271 -0.0372
  979loPI    C314303   1.763   8.498   5.815  0.0904  0.1408 -0.0710
  979loPI   PO414304   2.247   8.878   6.016 -0.0343 -0.2416  0.0570
  979loPI   GL114305   2.483   9.257   6.166  0.0319  0.0080  0.1623
  979loPI   GL214306   2.330   9.150   6.493 -0.0983 -0.1301 -0.0854
  979loPI   C1A14307   2.856   9.205   6.532 -0.1449 -0.1972  0.3061
  979loPI   C2A14308   2.954   9.192   6.966  0.1292 -0.0993 -0.1016
  979loPI   C3A14309   2.938   9.125   7.425  0.1464  0.0855 -0.0932
  979loPI   C4A14310   2.838   9.208   7.809  0.0342  0.2676  0.0492
  979loPI   C5A14311   2.808   9.111   8.282 -0.0450 -0.0227  0.1773
  979loPI   C6A14312   2.899   8.712   8.464 -0.3541  0.1645  0.0255
  979loPI   C1B14313   2.383   9.039   6.870  0.2424 -0.2838 -0.0232
  979loPI   C2B14314   2.436   9.137   7.365  0.0936 -0.2761  0.1532
  979loPI   C3B14315   2.416   9.431   7.655 -0.1414  0.1192  0.1677
  979loPI   C4B14316   2.427   9.499   8.083 -0.1605  0.1347 -0.1579
  980loPI    C114317  13.664  11.730   5.119 -0.2725 -0.0353 -0.2947
  980loPI    C214318  13.926  11.856   4.843  0.1048 -0.0860  0.0311
  980loPI    C314319  13.755  12.119   5.092 -0.0206 -0.0750 -0.0655
  980loPI   PO414320  13.807  11.557   5.286 -0.1823  0.0757  0.0847
  980loPI   GL114321  13.857  11.356   5.668 -0.0434  0.1190  0.2446
  980loPI   GL214322  13.497  11.232   5.716 -0.0087  0.2169  0.2449
  980loPI   C1A14323  13.730  11.681   5.939 -0.1229 -0.1289  0.1810
  980loPI   C2A14324  13.699  12.005   6.275 -0.0916 -0.2468  0.0399
  980loPI   C3A14325  13.606  12.032   6.703 -0.3439  0.0770  0.1293
  980loPI   C4A14326  13.555  11.902   7.123 -0.0560 -0.2659 -0.0945
  980loPI   C5A14327  13.370  11.743   7.395  0.1464  0.1590 -0.2154
  980loPI   C6A14328  13.496  11.440   7.747  0.0029  0.1734 -0.1639
  980loPI   C1B14329  13.570  11.240   6.145  0.2645 -0.3147  0.2376
  980loPI   C2B14330  13.543  11.113   6.590 -0.1024 -0.0110 -0.0502
  980loPI   C3B14331  13.589  10.885   6.948 -0.0690 -0.0117  0.0270
  980loPI   C4B14332  13.690  10.638   7.436 -0.0692  0.0114  0.0245
  981loPI    C114333   4.027   3.361   5.556  0.0454 -0.0494 -0.0351
  981loPI    C214334   4.061   3.743   5.442 -0.0244 -0.0337 -0.0036
  981loPI    C314335   3.792   3.505   5.266 -0.0815 -0.0293  0.0769
  981loPI   PO414336   3.943   3.345   5.788  0.1051  0.2341  0.0030
  981loPI   GL114337   3.961   3.432   6.119  0.2723  0.2858  0.3459
  981loPI   GL214338   4.107   3.122   6.316  0.3336 -0.1262  0.1668
  981loPI   C1A14339   3.993   3.631   6.528 -0.0310 -0.1782  0.0767
  981loPI   C2A14340   4.154   3.553   6.976 -0.1190  0.3545 -0.2245
  981loPI   C3A14341   4.195   3.505   7.429  0.0449 -0.1440  0.2715
  981loPI   C4A14342   4.424   3.295   7.835  0.0110 -0.1327  0.2528
  981loPI   C5A14343   4.443   3.124   8.209  0.3577  0.1833 -0.1156
  981loPI   C6A14344   4.489   2.896   8.557  0.1525 -0.1155  0.0179
  981loPI   C1B14345   4.390   3.293   6.591  0.0570 -0.0784  0.1968
  981loPI   C2B14346   4.473   3.153   6.996 -0.0120  0.2239  0.1529
  981loPI   C3B14347   4.455   3.044   7.405  0.1341 -0.1155  0.2410
  981loPI   C4B14348   4.444   2.753   7.762 -0.1012  0.2894 -0.3164
  982loPI    C114349   3.508  12.286   5.715 -0.0691 -0.2143  0.1206
  982loPI    C214350   3.891  12.336   5.820 -0.0328 -0.0893 -0.0661
  982loPI    C314351   3.733  12.559   5.528 -0.1807 -0.3090 -0.1566
  982loPI   PO414352   3.381  12.161   5.880  0.0907  0.1189  0.0459
  982loPI   GL114353   3.126  12.212   6.181  0.2212  0.3012  0.0005
  982loPI   GL214354   2.790  12.258   6.185 -0.1633 -0.0226 -0.2352
  982loPI   C1A14355   2.942  12.101   6.704 -0.0771 -0.0182 -0.0410
  982loPI   C2A14356   2.904  12.066   7.126  0.1126  0.0646 -0.0632
  982loPI   C3A14357   3.010  12.157   7.619  0.1097 -0.3048 -0.1698
  982loPI   C4A14358   3.071  12.191   8.078  0.3813  0.1466 -0.3137
  982loPI   C5A14359   3.049  11.927   8.451 -0.1002 -0.0325 -0.0723
  982loPI   C6A14360   2.787  11.885   8.856 -0.1529 -0.1066  0.1482
  982loPI   C1B14361   2.697  12.540   6.658  0.2653 -0.1511  0.0223
  982loPI   C2B14362   2.797  12.767   7.013  0.0995  0.0301  0.0597
  982loPI   C3B14363   2.965  12.622   7.381  0.0220  0.0604 -0.0233
  982loPI   C4B14364   2.993  12.632   7.792 -0.0070  0.1412 -0.0514
  983loPI    C114365  10.338   2.249   5.194  0.0954 -0.0933  0.0109
  983loPI    C214366  10.502   1.921   5.033  0.1063  0.0044 -0.1798
  983loPI    C314367  10.108   1.935   5.100  0.1304 -0.1137 -0.0064
  983loPI   PO414368  10.587   2.397   5.282 -0.0462  0.1505  0.1347
  983loPI   GL114369  10.764   2.417   5.725 -0.1054 -0.1734 -0.1283
  983loPI   GL214370  10.457   2.323   5.765 -0.0444 -0.2846  0.3580
  983loPI   C1A14371  10.868   2.428   6.082 -0.0131 -0.2237  0.2243
  983loPI   C2A14372  10.821   2.404   6.563 -0.2624  0.0089 -0.1321
  983loPI   C3A14373  10.865   2.484   7.024 -0.1560  0.0811 -0.0910
  983loPI   C4A14374  10.942   2.525   7.485  0.0331 -0.3021 -0.2212
  983loPI   C5A14375  11.200   2.598   7.781 -0.1669 -0.0491 -0.2107
  983loPI   C6A14376  11.633   2.405   7.810  0.0185 -0.1791 -0.1461
  983loPI   C1B14377  10.374   2.299   6.164 -0.2238  0.0447  0.0346
  983loPI   C2B14378  10.282   2.290   6.569  0.0175 -0.0965 -0.3048
  983loPI   C3B14379  10.367   2.291   6.975 -0.1839  0.1297 -0.0940
  983loPI   C4B14380  10.407   2.259   7.440  0.0635  0.0938 -0.0340
  984loPI    C114381  10.843   8.948   5.222  0.1516  0.0585 -0.2144
  984loPI    C214382  10.847   8.590   5.044  0.1812 -0.0259 -0.0454
  984loPI    C314383  11.136   8.856   4.966  0.2253 -0.0839 -0.0801
  984loPI   PO414384  10.825   8.929   5.419 -0.0319 -0.4037  0.1974
  984loPI   GL114385  10.911   8.708   5.832 -0.1492  0.1065 -0.2428
  984loPI   GL214386  11.206   8.614   5.874 -0.2011  0.0738  0.2430
  984loPI   C1A14387  10.961   8.883   6.209  0.1001 -0.1763  0.1568
  984loPI   C2A14388  11.115   9.004   6.575 -0.1159 -0.2127 -0.1156
  984loPI   C3A14389  11.104   8.894   7.088 -0.1170 -0.0217 -0.2990
  984loPI   C4A14390  11.239   8.616   7.361  0.0191  0.1362  0.1591
  984loPI   C5A14391  11.104   8.587   7.763  0.0826 -0.2294  0.2045
  984loPI   C6A14392  11.354   8.405   7.936  0.3039 -0.0225  0.1373
  984loPI   C1B14393  11.449   8.905   5.998  0.0108  0.1514 -0.1240
  984loPI   C2B14394  11.829   8.864   6.404  0.2164  0.0119  0.0366
  984loPI   C3B14395  11.934   8.650   6.761 -0.2240  0.1156  0.0024
  984loPI   C4B14396  11.890   8.417   7.110 -0.1859  0.0634 -0.0929
  985loPI    C114397   2.259   2.225   5.726  0.2491 -0.0944  0.0249
  985loPI    C214398   2.307   2.616   5.794  0.1373 -0.0575 -0.1032
  985loPI    C314399   2.077   2.493   5.491  0.0973 -0.2236 -0.0066
  985loPI   PO414400   2.412   2.138   5.978  0.0419  0.1406 -0.1203
  985loPI   GL114401   2.170   1.975   6.323  0.3488  0.1545  0.2653
  985loPI   GL214402   2.327   1.743   6.407  0.0503 -0.0360 -0.2748
  985loPI   C1A14403   2.336   2.222   6.627 -0.0370 -0.2275  0.0844
  985loPI   C2A14404   2.317   2.176   7.018  0.0534 -0.0738  0.0412
  985loPI   C3A14405   2.250   1.953   7.469  0.4395 -0.1134  0.1273
  985loPI   C4A14406   2.225   1.884   7.932  0.0059  0.0735  0.0858
  985loPI   C5A14407   2.195   1.983   8.427 -0.0197 -0.2585  0.1269
  985loPI   C6A14408   2.390   1.880   8.805  0.3063  0.1146 -0.1978
  985loPI   C1B14409   2.359   1.682   6.896  0.2303  0.0340 -0.2085
  985loPI   C2B14410   2.349   1.497   7.232  0.0386 -0.2168  0.0175
  985loPI   C3B14411   2.145   1.406   7.612 -0.1729  0.1850  0.0096
  985loPI   C4B14412   1.984   1.052   7.908 -0.0533 -0.1364  0.0009
  986loPI    C114413  14.872   9.451   5.253  0.0144 -0.0791 -0.1234
  986loPI    C214414  14.861   9.292   4.887 -0.1991  0.0785 -0.1879
  986loPI    C314415  14.676   9.639   4.959 -0.1268  0.0671  0.0609
  986loPI   PO414416  14.802   9.242   5.392  0.1534 -0.4863  0.2542
  986loPI   GL114417  14.839   8.973   5.780  0.2697  0.2109 -0.1849
  986loPI   GL214418  14.942   9.092   6.046 -0.0153 -0.3764 -0.0204
  986loPI   C1A14419  14.497   9.008   6.109  0.1967 -0.1968 -0.0773
  986loPI   C2A14420  14.480   9.127   6.555  0.1517 -0.0794 -0.2117
  986loPI   C3A14421  14.435   9.182   7.036  0.2889 -0.4032  0.1053
  986loPI   C4A14422  14.336   9.099   7.453 -0.2669 -0.1471 -0.1854
  986loPI   C5A14423  14.150   9.154   7.772 -0.1099 -0.3327 -0.0772
  986loPI   C6A14424  13.988   8.907   8.068  0.3142 -0.2504 -0.1353
  986loPI   C1B14425  14.929   9.242   6.415  0.4376  0.1041 -0.0415
  986loPI   C2B14426  14.859   9.241   6.905 -0.1987 -0.0698  0.2562
  986loPI   C3B14427  14.906   9.272   7.332  0.1865 -0.1508  0.0695
  986loPI   C4B14428  14.888   9.017   7.781  0.0268  0.1600  0.0397
  987loPI    C114429  17.853  17.346   5.690  0.1190  0.1877 -0.2891
  987loPI    C214430  17.857  17.700   5.878 -0.0406  0.0786 -0.0751
  987loPI    C314431  18.148  17.607   5.619  0.1700  0.2425  0.0990
  987loPI   PO414432  17.818  17.165   5.912  0.1234  0.1708 -0.0443
  987loPI   GL114433  17.735  17.462   6.269 -0.1165 -0.0818  0.1414
  987loPI   GL214434  17.439  17.351   6.264 -0.1638 -0.1061  0.1078
  987loPI   C1A14435  17.631  17.233   6.696  0.0657  0.1177 -0.0171
  987loPI   C2A14436  17.313  17.257   7.052 -0.1046 -0.0031 -0.2275
  987loPI   C3A14437  17.290  17.069   7.405 -0.1864  0.2828 -0.2868
  987loPI   C4A14438  17.021  16.928   7.702  0.0972 -0.1766 -0.0061
  987loPI   C5A14439  16.627  16.851   7.868  0.2107  0.1081 -0.0884
  987loPI   C6A14440  16.522  17.003   8.335  0.1285  0.0464 -0.1482
  987loPI   C1B14441  17.143  17.335   6.600 -0.1380 -0.2355  0.1950
  987loPI   C2B14442  16.833  17.153   6.913  0.0441  0.0319 -0.0312
  987loPI   C3B14443  16.773  17.248   7.318 -0.0506 -0.0155 -0.1045
  987loPI   C4B14444  16.728  17.341   7.836 -0.0707 -0.1372 -0.2528
  988loPI    C114445  11.428   8.498   5.146 -0.2458  0.2249 -0.1563
  988loPI    C214446  11.688   8.802   5.122  0.0228  0.0037 -0.1056
  988loPI    C314447  11.560   8.621   4.789  0.1108 -0.0331 -0.1197
  988loPI   PO414448  11.498   8.376   5.441 -0.1660  0.0667  0.2561
  988loPI   GL114449  11.669   8.614   5.699  0.1263  0.0708  0.0088
  988loPI   GL214450  11.633   8.429   6.031 -0.0415 -0.1096  0.2003
  988loPI   C1A14451  11.943   8.939   5.819  0.0109  0.1076 -0.0704
  988loPI   C2A14452  12.242   8.959   6.172 -0.1799  0.1917 -0.0865
  988loPI   C3A14453  12.386   9.025   6.508 -0.1099  0.1182  0.1329
  988loPI   C4A14454  12.308   9.020   6.963 -0.1564  0.3344  0.3161
  988loPI   C5A14455  12.198   8.858   7.352  0.0492  0.2790 -0.0574
  988loPI   C6A14456  12.116   8.843   7.833  0.1245 -0.1097 -0.3208
  988loPI   C1B14457  11.381   8.548   6.338  0.0289  0.1009  0.2965
  988loPI   C2B14458  11.441   8.650   6.797  0.1270  0.0223 -0.2370
  988loPI   C3B14459  11.682   8.903   7.188  0.1755  0.1863  0.1969
  988loPI   C4B14460  11.738   9.020   7.566 -0.0666  0.4188 -0.0773
  989loPI    C114461  16.187  12.081   5.385 -0.0264 -0.0698  0.1066
  989loPI    C214462  15.916  12.178   5.663 -0.0655 -0.0290  0.0543
  989loPI    C314463  15.803  12.127   5.283  0.0439  0.2638 -0.0206
  989loPI   PO414464  16.317  11.932   5.538 -0.0138  0.0068 -0.0975
  989loPI   GL114465  16.389  11.599   5.929 -0.0320  0.2298 -0.0485
  989loPI   GL214466  16.111  11.693   6.036  0.3364  0.4332  0.1513
  989loPI   C1A14467  16.410  11.272   6.180 -0.3014 -0.0897 -0.1586
  989loPI   C2A14468  16.420  11.140   6.596  0.2309 -0.3289 -0.1641
  989loPI   C3A14469  16.419  11.074   7.003  0.2191 -0.2310  0.1262
  989loPI   C4A14470  16.188  11.070   7.389  0.1945  0.2666 -0.0708
  989loPI   C5A14471  15.873  11.283   7.715  0.1111 -0.1104 -0.3823
  989loPI   C6A14472  15.855  11.382   8.168  0.1565 -0.0869 -0.0196
  989loPI   C1B14473  16.215  11.611   6.485  0.4225  0.2818 -0.0494
  989loPI   C2B14474  16.243  11.522   6.898  0.0171 -0.0026 -0.1040
  989loPI   C3B14475  15.939  11.460   7.073  0.1527 -0.2808 -0.1657
  989loPI   C4B14476  15.518  11.525   6.976 -0.3226 -0.0679 -0.0825
  990loPI    C114477   3.107   0.084   5.664 -0.0038 -0.0207  0.0090
  990loPI    C214478   2.841   0.064   5.366  0.0548 -0.0442 -0.0419
  990loPI    C314479   3.089  -0.242   5.433 -0.1408 -0.1525  0.2025
  990loPI   PO414480   3.016   0.079   5.859  0.0568 -0.0420  0.2188
  990loPI   GL114481   2.752   0.179   6.157 -0.1699  0.0733 -0.0419
  990loPI   GL214482   2.487   0.216   6.180  0.2977  0.0949  0.0194
  990loPI   C1A14483   2.981   0.436   6.458 -0.2865 -0.0008 -0.0807
  990loPI   C2A14484   3.290   0.244   6.795 -0.0102 -0.1373  0.1239
  990loPI   C3A14485   3.299   0.326   7.204 -0.0394  0.0527 -0.1238
  990loPI   C4A14486   3.454   0.515   7.620 -0.3188  0.2102  0.4203
  990loPI   C5A14487   3.715   0.667   7.917  0.0716 -0.2063  0.0901
  990loPI   C6A14488   3.619   0.640   8.371  0.4058 -0.2094 -0.1958
  990loPI   C1B14489   2.588   0.213   6.655 -0.0176  0.0195  0.3251
  990loPI   C2B14490   2.801   0.167   7.064 -0.3553  0.0741 -0.2407
  990loPI   C3B14491   2.832  -0.096   7.488 -0.2204  0.0484 -0.0368
  990loPI   C4B14492   2.961  -0.312   7.887 -0.1584  0.2259  0.1715
  991loPI    C114493  12.863  12.082   5.495 -0.0242 -0.1071  0.2364
  991loPI    C214494  12.495  12.089   5.338 -0.0044  0.1717  0.1985
  991loPI    C314495  12.575  12.295   5.672  0.1212  0.1249  0.1979
  991loPI   PO414496  12.936  11.801   5.559 -0.2125 -0.0258 -0.2306
  991loPI   GL114497  13.172  11.630   5.930  0.0051 -0.1759  0.1163
  991loPI   GL214498  13.269  12.013   5.949  0.2703  0.0126  0.0865
  991loPI   C1A14499  12.997  11.396   6.368 -0.0977 -0.0692  0.3161
  991loPI   C2A14500  12.896  11.282   6.756  0.3094 -0.2569 -0.1606
  991loPI   C3A14501  12.896  11.201   7.185  0.0256  0.1680 -0.0832
  991loPI   C4A14502  12.874  11.364   7.668  0.0856  0.3504  0.1181
  991loPI   C5A14503  12.618  11.490   8.011 -0.1279  0.1237 -0.4026
  991loPI   C6A14504  12.360  11.725   8.286 -0.0952 -0.1437 -0.0058
  991loPI   C1B14505  12.943  11.947   6.254 -0.0578 -0.0426 -0.0809
  991loPI   C2B14506  12.594  11.715   6.482  0.2648 -0.4699  0.0236
  991loPI   C3B14507  12.507  11.792   6.988  0.0327  0.0601  0.1521
  991loPI   C4B14508  12.832  11.772   7.313  0.0075  0.2461  0.0560
  992loPI    C114509   9.845   3.998   5.368 -0.4542  0.1791 -0.2011
  992loPI    C214510  10.046   4.042   5.025  0.0654 -0.0990  0.0552
  992loPI    C314511   9.926   3.679   5.140  0.1220 -0.0443  0.2908
  992loPI   PO414512   9.955   4.132   5.565 -0.1283  0.1872 -0.1929
  992loPI   GL114513  10.191   4.497   5.857  0.1227  0.4241 -0.0631
  992loPI   GL214514  10.083   4.737   5.914 -0.0057 -0.1068  0.2232
  992loPI   C1A14515  10.246   4.232   6.140  0.0845  0.1612  0.1019
  992loPI   C2A14516  10.330   4.266   6.611  0.4254 -0.2106 -0.1955
  992loPI   C3A14517  10.264   4.213   6.984  0.0421 -0.1024 -0.0511
  992loPI   C4A14518  10.362   4.233   7.511  0.0015 -0.1830  0.2549
  992loPI   C5A14519  10.417   4.008   7.882 -0.0580  0.1491 -0.0806
  992loPI   C6A14520  10.405   3.986   8.368 -0.1014  0.1213  0.2125
  992loPI   C1B14521  10.194   4.625   6.369 -0.0253  0.1223  0.0574
  992loPI   C2B14522  10.219   4.736   6.855  0.1655  0.1365 -0.0604
  992loPI   C3B14523  10.257   4.675   7.329  0.0372  0.1986  0.2142
  992loPI   C4B14524  10.093   4.567   7.625 -0.2772 -0.2292 -0.1472
  993loPI    C114525   4.352   2.421   5.656 -0.0200 -0.1932  0.0774
  993loPI    C214526   4.145   2.347   5.322 -0.0509  0.2335 -0.0033
  993loPI    C314527   4.542   2.394   5.305  0.0018 -0.1500  0.0858
  993loPI   PO414528   4.203   2.288   5.876 -0.1782  0.0302  0.2363
  993loPI   GL114529   3.967   2.342   6.181  0.1020 -0.2650 -0.1111
  993loPI   GL214530   4.132   2.453   6.354  0.1481 -0.2191  0.0786
  993loPI   C1A14531   3.627   2.234   6.470  0.2141 -0.1822  0.1269
  993loPI   C2A14532   3.626   2.206   6.884  0.1028 -0.4472 -0.2856
  993loPI   C3A14533   3.673   2.466   7.133 -0.0630  0.2430  0.0156
  993loPI   C4A14534   3.546   2.904   7.343  0.1320 -0.0904  0.1567
  993loPI   C5A14535   3.489   3.228   7.730  0.0374  0.1017  0.0047
  993loPI   C6A14536   3.429   3.570   7.971 -0.1702 -0.2314 -0.1418
  993loPI   C1B14537   4.076   2.266   6.722 -0.0540  0.3579 -0.0509
  993loPI   C2B14538   4.132   2.148   7.173 -0.2977 -0.0970 -0.0948
  993loPI   C3B14539   4.196   2.020   7.631  0.2390 -0.1811  0.0098
  993loPI   C4B14540   4.406   2.101   8.026 -0.1043  0.1591 -0.1154
  994loPI    C114541   4.853  17.474   5.777 -0.2512  0.0031  0.1473
  994loPI    C214542   4.888  17.144   5.553  0.0080  0.0303  0.1444
  994loPI    C314543   4.797  17.493   5.381  0.5322  0.1164  0.0258
  994loPI   PO414544   4.718  17.450   5.894 -0.2553 -0.0467 -0.1705
  994loPI   GL114545   4.622  17.028   6.141 -0.0499 -0.0573 -0.2224
  994loPI   GL214546   4.545  17.307   6.439  0.2443  0.1520 -0.1120
  994loPI   C1A14547   4.613  16.908   6.663 -0.3018  0.0687  0.3495
  994loPI   C2A14548   4.634  16.782   7.079 -0.3749 -0.0887  0.3223
  994loPI   C3A14549   4.634  16.868   7.545 -0.1004 -0.3525 -0.3187
  994loPI   C4A14550   4.396  16.591   7.858 -0.1584  0.0051 -0.2869
  994loPI   C5A14551   4.064  16.644   8.068 -0.2782  0.2385 -0.0371
  994loPI   C6A14552   3.762  16.448   8.389  0.1009 -0.0765 -0.0236
  994loPI   C1B14553   4.403  17.282   6.891  0.1944  0.1604  0.2405
  994loPI   C2B14554   4.371  17.247   7.351 -0.2084  0.0317 -0.0750
  994loPI   C3B14555   4.465  17.436   7.771 -0.2089 -0.1119 -0.4624
  994loPI   C4B14556   4.700  17.347   8.098 -0.0327 -0.2091  0.1233
  995loPI    C114557   4.474  17.830   5.630  0.0441 -0.0348  0.1765
  995loPI    C214558   4.074  17.825   5.629  0.0432 -0.2605 -0.1787
  995loPI    C314559   4.272  18.025   5.345  0.1864 -0.0184  0.0860
  995loPI   PO414560   4.471  17.863   5.959  0.0695 -0.5109  0.0140
  995loPI   GL114561   4.810  17.772   6.278 -0.0874  0.0688 -0.0967
  995loPI   GL214562   4.973  18.076   6.278 -0.2668  0.3473 -0.0627
  995loPI   C1A14563   4.707  17.672   6.739  0.0166 -0.3524  0.2869
  995loPI   C2A14564   4.721  17.763   7.073  0.3201  0.2705 -0.0228
  995loPI   C3A14565   4.786  17.770   7.506 -0.0167  0.2330 -0.1195
  995loPI   C4A14566   4.898  17.796   8.005 -0.0219  0.0190  0.1875
  995loPI   C5A14567   4.757  17.709   8.496 -0.1030  0.0589 -0.0456
  995loPI   C6A14568   4.605  17.292   8.547  0.0391  0.1858  0.0919
  995loPI   C1B14569   5.022  18.050   6.722 -0.2179 -0.2710  0.2898
  995loPI   C2B14570   4.955  18.170   7.128  0.0115  0.0637 -0.0149
  995loPI   C3B14571   5.033  18.215   7.601 -0.0206 -0.2029 -0.0668
  995loPI   C4B14572   5.369  18.225   7.927  0.0968  0.2095  0.2506
  996loPI    C114573   9.438  16.037   5.357 -0.1179  0.2095 -0.0522
  996loPI    C214574   9.831  16.109   5.347 -0.0551 -0.0900  0.1348
  996loPI    C314575   9.636  16.013   5.011 -0.0016  0.2154  0.0135
  996loPI   PO414576   9.476  16.056   5.689 -0.2558 -0.1576 -0.1673
  996loPI   GL114577   9.362  16.263   6.086  0.1639  0.2677  0.0741
  996loPI   GL214578   9.543  16.420   6.009  0.3653  0.1460 -0.0112
  996loPI   C1A14579   9.046  16.185   6.430  0.1270  0.1904 -0.0509
  996loPI   C2A14580   8.916  15.800   6.707  0.0854  0.1164  0.0238
  996loPI   C3A14581   8.731  15.743   7.169  0.0332 -0.2021  0.0794
  996loPI   C4A14582   8.750  15.875   7.579  0.3540  0.1824 -0.1614
  996loPI   C5A14583   8.724  16.057   7.997  0.0522  0.2486  0.0478
  996loPI   C6A14584   8.343  16.288   8.267 -0.0468 -0.2212  0.0822
  996loPI   C1B14585   9.641  16.386   6.431  0.0572 -0.1121  0.1072
  996loPI   C2B14586   9.762  16.501   6.865 -0.0276 -0.0913  0.1740
  996loPI   C3B14587   9.757  16.856   7.218 -0.1136 -0.1532 -0.4525
  996loPI   C4B14588   9.896  17.013   7.610 -0.0335 -0.1899 -0.0514
  997loPI    C114589   5.364   0.290   5.185  0.2220  0.0678  0.2204
  997loPI    C214590   5.432   0.671   5.287 -0.0352  0.2051 -0.1004
  997loPI    C314591   5.303   0.582   4.919  0.0728 -0.2002 -0.0461
  997loPI   PO414592   5.359   0.153   5.479 -0.0038  0.0287  0.1630
  997loPI   GL114593   5.667   0.270   5.955 -0.1006  0.1342 -0.2620
  997loPI   GL214594   5.475   0.166   6.121  0.1055 -0.0006 -0.2268
  997loPI   C1A14595   5.960   0.113   6.227 -0.0354 -0.0981 -0.1309
  997loPI   C2A14596   6.231  -0.258   6.406  0.3281 -0.1092 -0.1355
  997loPI   C3A14597   6.219  -0.292   6.863  0.1345  0.0429 -0.0424
  997loPI   C4A14598   6.380  -0.212   7.300 -0.0245 -0.1847  0.1100
  997loPI   C5A14599   6.314  -0.225   7.660  0.1654 -0.0896  0.0972
  997loPI   C6A14600   6.310  -0.005   8.091 -0.3050 -0.1219  0.2817
  997loPI   C1B14601   5.542   0.235   6.567  0.0205  0.2920  0.1071
  997loPI   C2B14602   5.458   0.108   6.968  0.0845 -0.0351 -0.3646
  997loPI   C3B14603   5.551   0.083   7.399 -0.1133 -0.1781 -0.0435
  997loPI   C4B14604   5.897   0.128   7.667 -0.0874  0.1654 -0.2012
  998loPI    C114605  14.563   4.449   5.636  0.1812 -0.1275  0.0295
  998loPI    C214606  14.644   4.448   5.245 -0.0574  0.0906 -0.0229
  998loPI    C314607  14.934   4.529   5.509  0.0585  0.1443 -0.1652
  998loPI   PO414608  14.386   4.651   5.650 -0.3906  0.0280 -0.1910
  998loPI   GL114609  14.459   4.887   5.929  0.1133 -0.0091 -0.1666
  998loPI   GL214610  14.370   5.197   6.028 -0.0871  0.2797  0.0388
  998loPI   C1A14611  14.379   4.761   6.373  0.1742  0.2807  0.2575
  998loPI   C2A14612  14.216   4.873   6.760  0.0112  0.0302 -0.0796
  998loPI   C3A14613  14.262   5.000   7.153 -0.0001 -0.0798 -0.0968
  998loPI   C4A14614  14.317   5.190   7.523 -0.1085  0.1456  0.0111
  998loPI   C5A14615  14.224   5.272   7.888  0.0455  0.0086 -0.3734
  998loPI   C6A14616  13.797   5.420   8.127 -0.0871  0.2728  0.1875
  998loPI   C1B14617  14.548   5.185   6.490 -0.3707  0.0814 -0.0741
  998loPI   C2B14618  14.573   5.267   6.866 -0.2106 -0.0379  0.1374
  998loPI   C3B14619  14.765   5.278   7.221 -0.1894 -0.1094 -0.1505
  998loPI   C4B14620  14.922   5.209   7.680 -0.0137 -0.2691 -0.0648
  999loPI    C114621   9.555  17.416   5.420 -0.1172 -0.0182  0.1132
  999loPI    C214622   9.829  17.593   5.188 -0.1358 -0.3690 -0.1873
  999loPI    C314623   9.440  17.627   5.100 -0.1685 -0.1879  0.0181
  999loPI   PO414624   9.522  17.483   5.648 -0.0352 -0.0202 -0.0486
  999loPI   GL114625   9.629  17.731   5.984  0.0933 -0.0582 -0.0539
  999loPI   GL214626   9.496  18.016   6.049 -0.5797  0.2367 -0.2460
  999loPI   C1A14627   9.407  17.610   6.402  0.1342 -0.1089 -0.1436
  999loPI   C2A14628   9.249  17.540   6.910  0.2909 -0.2682  0.1075
  999loPI   C3A14629   9.169  17.752   7.249  0.1902 -0.0785 -0.0392
  999loPI   C4A14630   9.211  17.868   7.641 -0.1639 -0.2636 -0.0482
  999loPI   C5A14631   9.033  17.937   8.064 -0.1506  0.2073  0.0896
  999loPI   C6A14632   8.824  18.051   8.357  0.0545  0.0932 -0.1331
  999loPI   C1B14633   9.291  18.169   6.425 -0.0879 -0.3988 -0.1453
  999loPI   C2B14634   9.327  18.081   6.810  0.0067 -0.0415  0.1281
  999loPI   C3B14635   9.392  18.223   7.251  0.1598 -0.0555  0.0151
  999loPI   C4B14636   9.544  18.322   7.708 -0.1289  0.0880  0.0459
 1000loPI    C114637  16.879  13.192   4.924  0.0036  0.0497  0.1639
 1000loPI    C214638  16.568  13.010   4.750  0.1083 -0.1156  0.1482
 1000loPI    C314639  16.544  13.398   4.846 -0.1733 -0.1733  0.3218
 1000loPI   PO414640  16.911  13.027   5.177 -0.2354 -0.2058 -0.2025
 1000loPI   GL114641  16.919  13.152   5.575 -0.0668  0.0529 -0.0158
 1000loPI   GL214642  16.633  13.047   5.811  0.1218 -0.4442  0.2298
 1000loPI   C1A14643  16.989  13.290   6.120  0.1489  0.0144 -0.0998
 1000loPI   C2A14644  16.997  13.289   6.652 -0.0804 -0.1628 -0.1647
 1000loPI   C3A14645  16.673  13.265   6.986 -0.0096 -0.0076  0.0604
 1000loPI   C4A14646  16.517  13.194   7.369 -0.2948 -0.3060 -0.0335
 1000loPI   C5A14647  16.693  13.281   7.792  0.0023  0.0058  0.0852
 1000loPI   C6A14648  16.644  13.553   8.055  0.0499  0.0283  0.0437
 1000loPI   C1B14649  16.479  13.102   6.276 -0.0171 -0.0334  0.1259
 1000loPI   C2B14650  16.386  12.932   6.733  0.0257 -0.0854 -0.0350
 1000loPI   C3B14651  16.047  12.911   7.200 -0.0342 -0.1471  0.1692
 1000loPI   C4B14652  15.840  12.786   7.511 -0.1288  0.0903  0.0424
 1001loPI    C114653   3.426   4.650   5.637  0.3059  0.0450 -0.0507
 1001loPI    C214654   3.769   4.777   5.474  0.2271  0.1619 -0.1270
 1001loPI    C314655   3.424   4.956   5.379  0.1621  0.1367  0.0578
 1001loPI   PO414656   3.516   4.630   5.889  0.0703 -0.3134 -0.2221
 1001loPI   GL114657   3.434   4.525   6.288 -0.0954 -0.5042  0.0308
 1001loPI   GL214658   3.190   4.379   6.191 -0.3341 -0.0635  0.0010
 1001loPI   C1A14659   3.357   4.448   6.684  0.0384 -0.2105 -0.1116
 1001loPI   C2A14660   3.468   4.161   6.978  0.1592  0.1386  0.0565
 1001loPI   C3A14661   3.205   3.905   7.272  0.0657  0.0608 -0.2481
 1001loPI   C4A14662   3.229   3.971   7.815  0.0150  0.0127 -0.1814
 1001loPI   C5A14663   3.366   4.275   8.118  0.1800  0.1063  0.1166
 1001loPI   C6A14664   3.319   4.540   8.321  0.0148  0.0451 -0.0956
 1001loPI   C1B14665   3.007   4.022   6.455 -0.4641 -0.1831  0.0453
 1001loPI   C2B14666   3.140   3.751   6.787 -0.1233  0.0301  0.1334
 1001loPI   C3B14667   3.238   3.266   6.786  0.2308  0.2553  0.0456
 1001loPI   C4B14668   3.311   2.760   6.859 -0.0906 -0.1414  0.0424
 1002loPI    C114669   9.225   6.779   5.477  0.0339  0.0229  0.3757
 1002loPI    C214670   9.264   6.462   5.717 -0.0829  0.0802  0.4714
 1002loPI    C314671   9.376   6.438   5.334 -0.2234 -0.1208  0.4418
 1002loPI   PO414672   9.174   6.979   5.618 -0.3288 -0.0517 -0.1760
 1002loPI   GL114673   9.161   7.073   6.080 -0.2620  0.1192 -0.3588
 1002loPI   GL214674   9.441   6.817   6.030  0.0005  0.0925 -0.1662
 1002loPI   C1A14675   9.082   6.994   6.494  0.0854  0.3218  0.1239
 1002loPI   C2A14676   9.098   7.093   6.973  0.0612  0.0965 -0.1614
 1002loPI   C3A14677   9.253   7.106   7.422  0.0416  0.0664 -0.0052
 1002loPI   C4A14678   9.218   6.943   7.870  0.1263 -0.0507 -0.3727
 1002loPI   C5A14679   9.020   6.757   8.164  0.0474 -0.1068  0.0820
 1002loPI   C6A14680   8.586   6.629   8.011 -0.1283  0.2909  0.0200
 1002loPI   C1B14681   9.264   6.550   6.236 -0.3018 -0.0348  0.5164
 1002loPI   C2B14682   9.378   6.564   6.616 -0.0185  0.0724  0.5409
 1002loPI   C3B14683   9.421   6.748   7.099  0.2480 -0.1163 -0.0511
 1002loPI   C4B14684   9.402   6.502   7.512 -0.0662  0.1544 -0.1652
 1003loPI    C114685  11.895   4.898   5.223  0.1259 -0.2882  0.1238
 1003loPI    C214686  12.272   4.807   5.124  0.1723  0.0605 -0.0331
 1003loPI    C314687  11.995   4.848   4.838  0.0990  0.1656  0.0521
 1003loPI   PO414688  11.979   5.043   5.505 -0.0315 -0.2249 -0.1215
 1003loPI   GL114689  12.099   5.087   5.878 -0.1770 -0.2952  0.0404
 1003loPI   GL214690  11.982   4.826   5.957 -0.0536  0.1666 -0.0410
 1003loPI   C1A14691  12.071   5.160   6.326  0.1153  0.0783 -0.1231
 1003loPI   C2A14692  11.905   5.172   6.763 -0.1714 -0.2148  0.2717
 1003loPI   C3A14693  11.922   5.190   7.254 -0.0001 -0.0558  0.0378
 1003loPI   C4A14694  12.110   5.068   7.675  0.0989  0.2024  0.0542
 1003loPI   C5A14695  12.188   5.075   8.067  0.0580  0.2494 -0.0415
 1003loPI   C6A14696  12.302   4.747   8.361  0.0654 -0.3208 -0.0199
 1003loPI   C1B14697  11.638   4.784   6.226 -0.0875  0.0561 -0.0175
 1003loPI   C2B14698  11.545   4.766   6.640  0.0709  0.0989  0.1273
 1003loPI   C3B14699  11.603   4.872   7.106  0.0570 -0.0100 -0.1073
 1003loPI   C4B14700  11.652   4.837   7.568 -0.0430  0.0221  0.2285
 1004loPI    C114701   5.597  11.815   5.878 -0.1569  0.0003 -0.0696
 1004loPI    C214702   5.412  12.016   5.586 -0.0752 -0.0033 -0.1244
 1004loPI    C314703   5.446  11.618   5.564 -0.1210 -0.0097 -0.0807
 1004loPI   PO414704   5.641  12.020   6.100 -0.2450 -0.0891 -0.1645
 1004loPI   GL114705   5.362  12.141   6.458 -0.3660 -0.1388 -0.0834
 1004loPI   GL214706   5.430  11.742   6.449  0.0190  0.2622 -0.0701
 1004loPI   C1A14707   5.494  12.158   6.877  0.1023 -0.1589  0.0595
 1004loPI   C2A14708   5.233  12.171   7.194  0.1323 -0.0398 -0.1846
 1004loPI   C3A14709   5.270  12.102   7.672  0.3771 -0.1340 -0.0528
 1004loPI   C4A14710   5.666  12.218   7.954 -0.2325  0.0406  0.1566
 1004loPI   C5A14711   6.114  12.065   8.089  0.2957  0.0376  0.3081
 1004loPI   C6A14712   6.082  11.666   8.348 -0.1708 -0.4204  0.1247
 1004loPI   C1B14713   5.420  11.657   6.901 -0.2106 -0.2797  0.1210
 1004loPI   C2B14714   5.417  11.692   7.273  0.3777 -0.0864  0.1869
 1004loPI   C3B14715   5.564  11.703   7.750  0.1076 -0.1044 -0.0728
 1004loPI   C4B14716   5.541  11.790   8.172 -0.1453  0.2543  0.1788
 1005loPI    C114717   0.687   5.828   5.780  0.2347 -0.1677  0.0428
 1005loPI    C214718   0.541   5.542   5.542 -0.0130 -0.1214  0.1363
 1005loPI    C314719   0.657   5.892   5.386  0.1127 -0.2025  0.0460
 1005loPI   PO414720   0.553   5.839   5.899 -0.0592 -0.2613 -0.2619
 1005loPI   GL114721   0.506   6.051   6.304 -0.1438 -0.1317  0.1372
 1005loPI   GL214722   0.781   6.176   6.505  0.2189  0.1470  0.1717
 1005loPI   C1A14723   0.396   6.228   6.765 -0.0672 -0.0755 -0.1544
 1005loPI   C2A14724   0.437   6.267   7.276 -0.2341  0.0178  0.1047
 1005loPI   C3A14725   0.465   6.485   7.675  0.2494 -0.0754 -0.1282
 1005loPI   C4A14726   0.553   6.219   8.046  0.0528 -0.0504 -0.1102
 1005loPI   C5A14727   0.305   5.886   8.285  0.1675  0.0335 -0.0511
 1005loPI   C6A14728   0.260   5.438   8.279  0.3089 -0.2107 -0.0342
 1005loPI   C1B14729   0.878   6.174   6.947 -0.2612 -0.3176 -0.3222
 1005loPI   C2B14730   1.095   6.308   7.352  0.2114 -0.2011  0.4485
 1005loPI   C3B14731   1.321   6.254   7.605 -0.1353  0.3320  0.1326
 1005loPI   C4B14732   1.623   6.488   7.904  0.0292  0.4064  0.0668
 1006loPI    C114733   0.056  13.033   5.415 -0.0701  0.2007 -0.0100
 1006loPI    C214734   0.117  13.386   5.236 -0.0799  0.1686 -0.0768
 1006loPI    C314735  -0.103  13.366   5.569 -0.0291  0.2339 -0.0392
 1006loPI   PO414736   0.328  12.967   5.459 -0.2833  0.1272 -0.1952
 1006loPI   GL114737   0.316  13.060   5.953 -0.1816  0.0067  0.1598
 1006loPI   GL214738   0.281  12.828   5.933 -0.0200 -0.0871  0.1093
 1006loPI   C1A14739   0.298  13.393   6.102 -0.2433 -0.1431 -0.2455
 1006loPI   C2A14740   0.429  13.490   6.460 -0.1659 -0.0400 -0.1592
 1006loPI   C3A14741   0.427  13.540   6.897  0.2753  0.2873  0.1081
 1006loPI   C4A14742   0.422  13.632   7.364  0.0325  0.0339 -0.2479
 1006loPI   C5A14743   0.440  13.673   7.836  0.3374  0.3272  0.1814
 1006loPI   C6A14744   0.622  13.976   8.076  0.0829 -0.3526 -0.1160
 1006loPI   C1B14745   0.522  12.896   6.326 -0.0431  0.1166 -0.0029
 1006loPI   C2B14746   0.488  13.055   6.729 -0.0477  0.1185 -0.3650
 1006loPI   C3B14747   0.523  13.181   7.199  0.1442  0.1720  0.1627
 1006loPI   C4B14748   0.449  13.168   7.628 -0.1501 -0.0917  0.0180
 1007loPI    C114749  13.129   2.233   5.032  0.2434  0.1182  0.0308
 1007loPI    C214750  12.970   2.310   4.673  0.2767  0.0475  0.0008
 1007loPI    C314751  13.115   2.609   4.897  0.0702  0.1168  0.0435
 1007loPI   PO414752  12.911   2.166   5.242 -0.1000  0.0973  0.2693
 1007loPI   GL114753  12.823   2.270   5.655 -0.0285  0.1331 -0.1632
 1007loPI   GL214754  12.734   2.516   5.710  0.1817 -0.2907  0.2634
 1007loPI   C1A14755  12.657   2.080   6.066 -0.1762 -0.0098 -0.1983
 1007loPI   C2A14756  12.618   2.201   6.531  0.0835  0.1368  0.2280
 1007loPI   C3A14757  12.694   2.292   6.915 -0.2945 -0.1447 -0.1752
 1007loPI   C4A14758  12.600   2.392   7.317  0.0091  0.0121 -0.0413
 1007loPI   C5A14759  12.357   2.584   7.776 -0.0197  0.1396 -0.2201
 1007loPI   C6A14760  12.205   2.514   8.192 -0.0096 -0.0136 -0.1496
 1007loPI   C1B14761  12.738   2.706   6.118 -0.1253  0.1359  0.1094
 1007loPI   C2B14762  12.766   2.781   6.492  0.0298 -0.3062 -0.0360
 1007loPI   C3B14763  12.856   2.738   6.944  0.2258 -0.1101  0.1067
 1007loPI   C4B14764  12.758   2.928   7.336 -0.1123  0.0062  0.0138
 1008loPI    C114765   0.173  10.531   5.952  0.1858  0.0972 -0.0990
 1008loPI    C214766   0.362  10.617   5.610  0.0421  0.2893 -0.1315
 1008loPI    C314767  -0.035  10.576   5.613  0.0562  0.1558 -0.0120
 1008loPI   PO414768   0.317  10.653   6.100  0.1560  0.2079 -0.1421
 1008loPI   GL114769   0.407  10.819   6.455  0.0692 -0.2217 -0.1616
 1008loPI   GL214770   0.330  11.104   6.638  0.0770  0.2110 -0.0042
 1008loPI   C1A14771   0.703  10.828   6.761  0.1317  0.1136 -0.1873
 1008loPI   C2A14772   0.752  10.948   7.173  0.2601 -0.1827  0.1080
 1008loPI   C3A14773   0.926  11.147   7.508 -0.0847 -0.1347  0.0775
 1008loPI   C4A14774   0.691  10.955   7.846  0.2325 -0.0734  0.0385
 1008loPI   C5A14775   0.618  10.902   8.247  0.2590 -0.1733  0.2680
 1008loPI   C6A14776   0.841  10.970   8.612  0.3338 -0.4681 -0.2051
 1008loPI   C1B14777   0.298  11.259   7.093  0.0077  0.1653  0.0066
 1008loPI   C2B14778   0.373  11.276   7.474 -0.2038  0.0387 -0.1830
 1008loPI   C3B14779   0.418  11.353   7.909 -0.1184  0.1897  0.0180
 1008loPI   C4B14780   0.729  11.360   8.304  0.1626  0.2679  0.0516
 1009loPI    C114781   9.854  10.844   5.719  0.2953  0.0698  0.0431
 1009loPI    C214782   9.537  10.988   5.522  0.1238 -0.1513  0.1527
 1009loPI    C314783   9.904  11.118   5.432  0.0047  0.0973  0.0149
 1009loPI   PO414784   9.744  10.871   5.964  0.0590 -0.1251  0.1442
 1009loPI   GL114785   9.604  11.031   6.382 -0.0090 -0.0579  0.0554
 1009loPI   GL214786   9.404  10.774   6.333  0.0809 -0.0687  0.3611
 1009loPI   C1A14787   9.847  11.020   6.731 -0.4493  0.2784 -0.1279
 1009loPI   C2A14788   9.872  11.112   7.193 -0.0807 -0.1867  0.0539
 1009loPI   C3A14789   9.692  11.150   7.532 -0.0939 -0.1056  0.0436
 1009loPI   C4A14790   9.790  11.248   7.936  0.0351  0.1185 -0.2251
 1009loPI   C5A14791   9.952  11.002   8.273 -0.1970  0.0705 -0.3027
 1009loPI   C6A14792  10.113  11.196   8.574  0.1157  0.1926 -0.0289
 1009loPI   C1B14793   9.356  10.820   6.752 -0.2309  0.3254  0.1069
 1009loPI   C2B14794   9.437  10.719   7.137 -0.2064  0.0526 -0.2436
 1009loPI   C3B14795   9.402  10.726   7.709  0.0276 -0.1899  0.0667
 1009loPI   C4B14796   9.535  10.784   8.136 -0.2059  0.0378  0.0597
 1010loPI    C114797  12.547  10.086   5.229  0.0802 -0.0619  0.2252
 1010loPI    C214798  12.689  10.327   4.943 -0.0882  0.1771  0.3390
 1010loPI    C314799  12.608   9.944   4.860 -0.1277  0.2419  0.0696
 1010loPI   PO414800  12.344  10.126   5.327  0.1159 -0.0859 -0.1607
 1010loPI   GL114801  12.211  10.297   5.640 -0.0069 -0.1479  0.3236
 1010loPI   GL214802  12.485  10.415   5.762  0.1918 -0.2035  0.0194
 1010loPI   C1A14803  11.965  10.277   5.953 -0.1656 -0.0968 -0.1899
 1010loPI   C2A14804  12.013  10.341   6.402 -0.0868 -0.2034 -0.1713
 1010loPI   C3A14805  11.846  10.257   6.824  0.0885  0.3410 -0.0178
 1010loPI   C4A14806  11.866  10.350   7.240  0.1325 -0.2790  0.0291
 1010loPI   C5A14807  11.882  10.183   7.739 -0.1425  0.3392  0.2558
 1010loPI   C6A14808  11.960   9.885   8.212  0.0130  0.1066  0.4185
 1010loPI   C1B14809  12.503  10.387   6.227  0.1113  0.3758 -0.2471
 1010loPI   C2B14810  12.500  10.411   6.679  0.1612 -0.0029  0.0135
 1010loPI   C3B14811  12.355  10.353   7.129  0.3601  0.0235 -0.0004
 1010loPI   C4B14812  12.422  10.428   7.590 -0.0732 -0.1555 -0.2412
 1011loPI    C114813   4.018   8.801   5.506 -0.2194 -0.0193 -0.0488
 1011loPI    C214814   4.178   8.526   5.264  0.0941 -0.0092  0.1408
 1011loPI    C314815   3.939   8.809   5.114  0.0346 -0.1864 -0.1063
 1011loPI   PO414816   3.939   8.646   5.752 -0.1699 -0.0431  0.0673
 1011loPI   GL114817   3.875   8.776   6.208  0.2842  0.1116 -0.4388
 1011loPI   GL214818   3.726   9.044   6.388  0.0628 -0.1751  0.0377
 1011loPI   C1A14819   3.655   8.438   6.514 -0.0785  0.0158  0.0299
 1011loPI   C2A14820   3.641   8.364   6.958 -0.2589  0.3455  0.3071
 1011loPI   C3A14821   3.560   8.318   7.409  0.1067  0.1731 -0.1337
 1011loPI   C4A14822   3.631   8.564   7.739  0.1580 -0.0577  0.2538
 1011loPI   C5A14823   3.481   8.449   8.236  0.0612  0.0648  0.2327
 1011loPI   C6A14824   3.165   8.271   8.337 -0.3061  0.2284 -0.1032
 1011loPI   C1B14825   3.905   9.007   6.746  0.1308  0.0579  0.1943
 1011loPI   C2B14826   3.832   8.816   7.073  0.2362  0.1354 -0.2456
 1011loPI   C3B14827   3.798   8.948   7.507  0.1782 -0.1517  0.1003
 1011loPI   C4B14828   3.873   9.182   7.863 -0.0003 -0.0012 -0.4617
 1012loPI    C114829   8.782   5.146   5.225  0.1968 -0.0591 -0.0539
 1012loPI    C214830   8.573   5.122   4.885  0.3880 -0.2242 -0.1617
 1012loPI    C314831   8.612   5.474   5.071 -0.2080 -0.2349  0.0047
 1012loPI   PO414832   8.804   4.913   5.427 -0.2746 -0.2232  0.1771
 1012loPI   GL114833   8.557   4.838   5.752  0.2124  0.0980  0.2396
 1012loPI   GL214834   8.345   5.169   5.813  0.1530  0.0232 -0.2287
 1012loPI   C1A14835   8.646   4.559   6.119 -0.2140 -0.1864 -0.0868
 1012loPI   C2A14836   8.767   4.572   6.525  0.0011 -0.0776 -0.2455
 1012loPI   C3A14837   8.847   4.541   6.976  0.1302 -0.1161  0.0606
 1012loPI   C4A14838   8.988   4.398   7.435 -0.1069  0.0207 -0.1013
 1012loPI   C5A14839   9.016   4.463   7.859  0.0742 -0.0426 -0.0296
 1012loPI   C6A14840   9.240   4.773   8.113 -0.1488  0.1586 -0.0306
 1012loPI   C1B14841   8.495   5.091   6.191 -0.0903  0.1929 -0.0814
 1012loPI   C2B14842   8.357   5.353   6.566  0.1459 -0.1241 -0.0087
 1012loPI   C3B14843   8.320   5.355   6.984 -0.0219  0.3924  0.0604
 1012loPI   C4B14844   8.485   5.375   7.436 -0.3723  0.2193 -0.0744
 1013loPI    C114845  16.551   8.312   5.526 -0.2878  0.2240 -0.4398
 1013loPI    C214846  16.936   8.416   5.553 -0.2668  0.0557 -0.0068
 1013loPI    C314847  16.656   8.697   5.503 -0.1248  0.2217  0.1169
 1013loPI   PO414848  16.588   8.070   5.717 -0.0968  0.1422  0.2038
 1013loPI   GL114849  16.579   7.991   6.047  0.0813 -0.2853 -0.0316
 1013loPI   GL214850  16.779   7.828   6.389  0.0643 -0.1850  0.0359
 1013loPI   C1A14851  16.418   8.139   6.447 -0.1848  0.4435 -0.0781
 1013loPI   C2A14852  16.349   8.138   6.803  0.1891  0.1121 -0.2213
 1013loPI   C3A14853  16.306   8.123   7.315 -0.0429  0.2353 -0.2083
 1013loPI   C4A14854  16.311   8.329   7.663 -0.2820 -0.3083 -0.0391
 1013loPI   C5A14855  16.555   8.575   7.975  0.0343 -0.0568 -0.1830
 1013loPI   C6A14856  16.913   8.757   7.862 -0.1061 -0.1408 -0.1757
 1013loPI   C1B14857  16.803   7.997   6.810 -0.2343 -0.1716  0.1308
 1013loPI   C2B14858  16.765   7.894   7.270 -0.4471 -0.0732  0.1895
 1013loPI   C3B14859  16.835   7.802   7.710  0.0100 -0.0002  0.3581
 1013loPI   C4B14860  16.613   7.878   8.113 -0.1909  0.1612  0.1813
 1014loPI    C114861   7.009   6.732   5.645  0.1684  0.2533 -0.0570
 1014loPI    C214862   6.689   6.943   5.530 -0.1317 -0.2014 -0.0783
 1014loPI    C314863   6.966   6.838   5.261 -0.0605  0.0264 -0.0962
 1014loPI   PO414864   7.033   6.848   5.954  0.0965  0.2093 -0.0248
 1014loPI   GL114865   7.166   6.847   6.287 -0.2264  0.0051 -0.1241
 1014loPI   GL214866   6.836   6.677   6.342  0.1056 -0.1515 -0.0270
 1014loPI   C1A14867   7.287   6.800   6.679 -0.0936 -0.1561  0.0769
 1014loPI   C2A14868   7.255   6.829   7.037  0.1844 -0.0292 -0.2492
 1014loPI   C3A14869   7.234   6.760   7.440  0.0117 -0.0168 -0.4527
 1014loPI   C4A14870   7.290   6.581   7.866  0.2329 -0.0283 -0.0503
 1014loPI   C5A14871   7.385   6.585   8.326 -0.0239 -0.0193 -0.0832
 1014loPI   C6A14872   7.548   6.796   8.812 -0.4327  0.0659 -0.0350
 1014loPI   C1B14873   6.757   6.744   6.818 -0.3991 -0.1293  0.1291
 1014loPI   C2B14874   6.869   6.439   7.126  0.0608  0.3179  0.0068
 1014loPI   C3B14875   6.928   6.281   7.501 -0.0933 -0.0608  0.1256
 1014loPI   C4B14876   7.161   6.078   7.776  0.2162 -0.0276 -0.0043
 1015loPI    C114877  13.771   8.381   5.081 -0.0548  0.1481  0.0259
 1015loPI    C214878  14.000   8.575   4.817 -0.0692  0.0554 -0.0552
 1015loPI    C314879  13.734   8.305   4.691 -0.2204  0.1590  0.0387
 1015loPI   PO414880  14.005   8.320   5.284 -0.0226  0.1288 -0.1225
 1015loPI   GL114881  14.235   8.095   5.617  0.1123  0.0437 -0.3869
 1015loPI   GL214882  14.445   8.046   5.971 -0.0363  0.0207  0.1735
 1015loPI   C1A14883  14.437   8.497   5.910 -0.1239  0.1389  0.0307
 1015loPI   C2A14884  14.413   8.602   6.284  0.2154  0.2325  0.0674
 1015loPI   C3A14885  14.195   8.759   6.673  0.0498  0.1874 -0.1251
 1015loPI   C4A14886  14.299   8.703   7.137 -0.1847 -0.3001  0.1458
 1015loPI   C5A14887  13.978   8.774   7.456 -0.1542  0.1580 -0.0996
 1015loPI   C6A14888  13.796   8.471   7.725  0.0475  0.0166 -0.1952
 1015loPI   C1B14889  14.518   8.088   6.383  0.3676 -0.4584  0.2657
 1015loPI   C2B14890  14.522   8.324   6.773  0.3182  0.0867  0.0873
 1015loPI   C3B14891  14.612   8.324   7.194 -0.1755 -0.0601  0.0697
 1015loPI   C4B14892  14.975   8.362   7.307 -0.0107  0.2000  0.0580
 1016loPI    C114893  17.725  12.010   5.581 -0.0212  0.0000 -0.0603
 1016loPI    C214894  18.121  12.046   5.545 -0.0063 -0.0471  0.0523
 1016loPI    C314895  17.883  12.154   5.243  0.0971 -0.1087 -0.0522
 1016loPI   PO414896  17.637  11.926   5.765  0.4015 -0.0754  0.1357
 1016loPI   GL114897  17.353  12.089   6.029  0.1804  0.2331  0.0806
 1016loPI   GL214898  17.108  12.248   6.122 -0.0119  0.0479  0.0140
 1016loPI   C1A14899  17.435  11.925   6.513 -0.0298  0.1849  0.0819
 1016loPI   C2A14900  17.326  11.937   6.917  0.0633  0.1327  0.0331
 1016loPI   C3A14901  17.276  11.935   7.353 -0.1103 -0.0769 -0.0047
 1016loPI   C4A14902  17.404  12.063   7.749  0.1030  0.0836 -0.1033
 1016loPI   C5A14903  17.514  12.410   7.941 -0.2030 -0.1404  0.2218
 1016loPI   C6A14904  17.801  12.655   8.128 -0.1909  0.0951  0.0341
 1016loPI   C1B14905  17.049  12.342   6.509  0.1474  0.0975 -0.2257
 1016loPI   C2B14906  16.903  12.188   6.895  0.2388  0.4195  0.1701
 1016loPI   C3B14907  16.798  12.092   7.251  0.0233  0.0368 -0.0866
 1016loPI   C4B14908  16.841  11.813   7.633  0.1680 -0.0413 -0.1313
 1017loPI    C114909  17.942  14.461   5.609 -0.0282  0.1283  0.0104
 1017loPI    C214910  18.175  14.266   5.349  0.0349  0.0355  0.1350
 1017loPI    C314911  18.263  14.642   5.453  0.0511  0.0474  0.0789
 1017loPI   PO414912  17.850  14.228   5.772  0.2829  0.1263  0.1471
 1017loPI   GL114913  17.679  14.012   6.087  0.1042 -0.2643  0.0024
 1017loPI   GL214914  17.988  13.758   5.957  0.3932 -0.1010 -0.1430
 1017loPI   C1A14915  17.558  13.987   6.587  0.3374  0.1360  0.1143
 1017loPI   C2A14916  17.415  13.998   7.089 -0.1170  0.1336  0.0912
 1017loPI   C3A14917  17.401  13.915   7.540 -0.3593 -0.0041 -0.2071
 1017loPI   C4A14918  17.504  13.764   7.904  0.1316 -0.0868  0.2091
 1017loPI   C5A14919  17.864  13.653   8.156 -0.0150  0.0246 -0.0311
 1017loPI   C6A14920  18.298  13.590   8.309 -0.1592 -0.1526  0.1146
 1017loPI   C1B14921  17.909  13.709   6.419 -0.2546 -0.0823  0.4620
 1017loPI   C2B14922  17.878  13.802   6.892 -0.0122 -0.0777  0.2772
 1017loPI   C3B14923  17.904  13.889   7.210 -0.0255  0.0576 -0.0150
 1017loPI   C4B14924  17.917  13.712   7.664 -0.3344  0.0603 -0.0702
 1018loPI    C114925   0.940   2.935   5.630 -0.1648 -0.0381  0.2912
 1018loPI    C214926   0.690   2.643   5.740  0.0092 -0.2313  0.1814
 1018loPI    C314927   1.007   2.560   5.510 -0.1521  0.1063 -0.1751
 1018loPI   PO414928   0.924   3.141   5.890 -0.3266  0.2409  0.2983
 1018loPI   GL114929   0.790   3.256   6.294 -0.0122  0.0300 -0.0320
 1018loPI   GL214930   0.442   3.302   6.358 -0.1611 -0.0709 -0.1110
 1018loPI   C1A14931   0.985   3.327   6.611  0.0245 -0.5886  0.2805
 1018loPI   C2A14932   1.155   3.358   6.957 -0.1158 -0.0792  0.0987
 1018loPI   C3A14933   1.218   3.243   7.344 -0.1901  0.0014  0.0791
 1018loPI   C4A14934   1.098   3.004   7.652 -0.0401 -0.3322  0.0200
 1018loPI   C5A14935   1.229   3.034   8.072  0.1030 -0.0415 -0.0022
 1018loPI   C6A14936   1.635   3.012   8.206 -0.0353 -0.0920 -0.1224
 1018loPI   C1B14937   0.486   3.241   6.811  0.1823  0.2743  0.0440
 1018loPI   C2B14938   0.753   3.184   7.090  0.1377  0.0784 -0.2395
 1018loPI   C3B14939   0.777   3.346   7.566  0.0207  0.0015 -0.1758
 1018loPI   C4B14940   0.726   3.407   8.006 -0.1652 -0.5202 -0.0114
 1019loPI    C114941   3.388  14.381   5.568  0.1721 -0.1169  0.0157
 1019loPI    C214942   3.675  14.236   5.329 -0.1725 -0.3173 -0.2869
 1019loPI    C314943   3.469  14.561   5.219 -0.0425 -0.1530 -0.0541
 1019loPI   PO414944   3.396  14.171   5.759 -0.2718 -0.0148 -0.1212
 1019loPI   GL114945   3.237  14.190   6.133  0.0428 -0.3412 -0.1828
 1019loPI   GL214946   3.173  14.481   6.360 -0.4574  0.0299  0.0936
 1019loPI   C1A14947   2.952  13.938   6.365  0.0110  0.1569 -0.1721
 1019loPI   C2A14948   2.836  13.813   6.762  0.2286 -0.2234  0.0296
 1019loPI   C3A14949   2.795  13.709   7.185 -0.0833  0.1291 -0.3379
 1019loPI   C4A14950   2.732  13.882   7.510 -0.1437  0.0851 -0.0251
 1019loPI   C5A14951   2.807  13.581   7.964  0.1696 -0.2850 -0.0341
 1019loPI   C6A14952   2.610  13.795   8.360 -0.0195 -0.1078 -0.1475
 1019loPI   C1B14953   3.255  14.193   6.766  0.1408 -0.0994  0.1436
 1019loPI   C2B14954   3.171  14.076   7.268  0.2830  0.1727 -0.3191
 1019loPI   C3B14955   3.144  14.081   7.722  0.1294  0.1766  0.0588
 1019loPI   C4B14956   3.277  13.801   8.086 -0.0536 -0.2221 -0.0414
 1020loPI    C114957   8.038  16.776   5.680  0.0356  0.0810  0.1431
 1020loPI    C214958   8.291  17.080   5.739  0.1912  0.0066 -0.1219
 1020loPI    C314959   8.272  16.902   5.381 -0.1837 -0.0397 -0.0832
 1020loPI   PO414960   7.788  16.848   5.822 -0.1371  0.0764 -0.0414
 1020loPI   GL114961   7.628  16.758   6.225 -0.4057 -0.2053  0.1932
 1020loPI   GL214962   7.600  16.568   6.420 -0.2065  0.1179 -0.0486
 1020loPI   C1A14963   7.602  17.014   6.581  0.1532  0.0050 -0.0257
 1020loPI   C2A14964   7.570  16.895   6.990 -0.0443 -0.0194 -0.3425
 1020loPI   C3A14965   7.687  16.987   7.358  0.0469 -0.0536 -0.1167
 1020loPI   C4A14966   7.794  17.153   7.690  0.1323 -0.2372 -0.0359
 1020loPI   C5A14967   7.724  16.962   8.089 -0.0435 -0.1642  0.1679
 1020loPI   C6A14968   7.403  16.669   8.212  0.3206  0.0195 -0.1016
 1020loPI   C1B14969   7.545  16.420   6.931  0.0569 -0.1557  0.2631
 1020loPI   C2B14970   7.490  16.441   7.299 -0.0565  0.1401  0.0025
 1020loPI   C3B14971   7.647  16.647   7.687  0.1210 -0.0445  0.0155
 1020loPI   C4B14972   7.888  16.501   8.156 -0.0665 -0.3180 -0.0255
 1021loPI    C114973  17.071   7.677   5.836  0.0728  0.1976 -0.1583
 1021loPI    C214974  16.874   7.726   5.491 -0.0239 -0.0404 -0.1390
 1021loPI    C314975  17.235   7.552   5.493 -0.0754 -0.1470 -0.1073
 1021loPI   PO414976  16.880   7.589   5.975 -0.0862 -0.1963 -0.4430
 1021loPI   GL114977  16.747   7.389   6.203  0.2812  0.4380  0.1323
 1021loPI   GL214978  17.037   7.311   6.381 -0.1354  0.0388  0.0802
 1021loPI   C1A14979  16.610   7.144   6.514  0.0987  0.0385 -0.1143
 1021loPI   C2A14980  16.598   7.091   6.932 -0.0513  0.0281 -0.1453
 1021loPI   C3A14981  16.558   7.092   7.383  0.1347  0.2261 -0.3278
 1021loPI   C4A14982  16.507   6.915   7.819  0.0800 -0.1539 -0.1130
 1021loPI   C5A14983  16.281   6.572   8.055  0.0554 -0.2405 -0.1305
 1021loPI   C6A14984  15.952   6.394   8.122  0.0261 -0.1445  0.0561
 1021loPI   C1B14985  16.898   7.455   6.758 -0.1485 -0.1499  0.0629
 1021loPI   C2B14986  17.050   7.441   7.126 -0.3238 -0.2712  0.1373
 1021loPI   C3B14987  16.965   7.398   7.502 -0.0765  0.0463  0.0920
 1021loPI   C4B14988  16.609   7.405   7.815 -0.2654 -0.0123 -0.2678
 1022loPI    C114989  17.487  10.475   5.756  0.0833 -0.1119 -0.1971
 1022loPI    C214990  17.698  10.255   6.015  0.2139  0.0835 -0.1354
 1022loPI    C314991  17.638  10.122   5.643 -0.0640 -0.2475  0.0218
 1022loPI   PO414992  17.222  10.507   5.958 -0.1635 -0.2603  0.3356
 1022loPI   GL114993  17.205  10.700   6.279 -0.0408  0.0494  0.0155
 1022loPI   GL214994  17.218  10.867   6.447  0.1858  0.1257  0.1765
 1022loPI   C1A14995  17.452  10.406   6.567  0.1361 -0.1026  0.0886
 1022loPI   C2A14996  17.695  10.508   6.886 -0.3272  0.0876 -0.3708
 1022loPI   C3A14997  17.760  10.609   7.383  0.0158  0.2516 -0.0949
 1022loPI   C4A14998  17.555  10.650   7.782 -0.2509  0.0170  0.5740
 1022loPI   C5A14999  17.188  10.713   8.137  0.1044 -0.3344 -0.1561
 1022loPI   C6A15000  17.027  10.755   8.509  0.1799 -0.0081  0.0858
 1022loPI   C1B15001  17.362  10.883   6.858 -0.0593  0.1762 -0.4615
 1022loPI   C2B15002  17.390  10.955   7.398 -0.0214 -0.1233 -0.1694
 1022loPI   C3B15003  17.268  11.130   7.885  0.1796  0.3309 -0.0273
 1022loPI   C4B15004  17.101  11.272   8.214 -0.2655  0.0866 -0.0954
 1023loPI    C115005   5.289  15.578   5.806 -0.0052 -0.0962  0.0016
 1023loPI    C215006   5.579  15.446   5.565 -0.0781  0.0665 -0.1778
 1023loPI    C315007   5.214  15.284   5.546 -0.0624  0.0240 -0.1190
 1023loPI   PO415008   5.409  15.635   6.028 -0.0923 -0.0997  0.3238
 1023loPI   GL115009   5.700  15.765   6.305  0.1814 -0.1331 -0.1677
 1023loPI   GL215010   5.588  15.958   6.373 -0.1853 -0.2699 -0.0385
 1023loPI   C1A15011   5.730  15.451   6.558 -0.1952 -0.2674  0.0335
 1023loPI   C2A15012   5.823  15.402   7.032  0.1157  0.1633  0.2166
 1023loPI   C3A15013   5.887  15.409   7.447  0.2446 -0.0778 -0.1112
 1023loPI   C4A15014   5.969  15.396   7.866 -0.0099  0.1994  0.0719
 1023loPI   C5A15015   5.854  15.608   8.289 -0.0423 -0.0714 -0.0865
 1023loPI   C6A15016   5.655  16.010   8.249  0.0382  0.0761  0.1902
 1023loPI   C1B15017   5.821  15.906   6.772  0.2367  0.1024  0.0993
 1023loPI   C2B15018   5.844  15.884   7.100 -0.0005  0.0304 -0.4167
 1023loPI   C3B15019   5.922  15.867   7.538  0.1525 -0.0509  0.1913
 1023loPI   C4B15020   6.167  15.922   7.941  0.1565 -0.2122  0.0888
 1024loPI    C115021  16.778  14.463   5.350  0.1596  0.1129  0.1009
 1024loPI    C215022  17.122  14.653   5.276  0.1147  0.0634 -0.2557
 1024loPI    C315023  16.898  14.521   4.973 -0.1232 -0.0796 -0.0223
 1024loPI   PO415024  16.569  14.596   5.562 -0.0565 -0.1228  0.0594
 1024loPI   GL115025  16.509  14.663   5.961 -0.2549  0.2607  0.2303
 1024loPI   GL215026  16.339  14.354   6.037  0.1647 -0.1717  0.0255
 1024loPI   C1A15027  16.630  14.781   6.320  0.0349  0.0949  0.1445
 1024loPI   C2A15028  16.739  14.799   6.653  0.1458 -0.0374  0.0651
 1024loPI   C3A15029  16.655  14.646   7.065 -0.1504 -0.0162 -0.3827
 1024loPI   C4A15030  16.551  14.599   7.512 -0.1613  0.1466  0.1863
 1024loPI   C5A15031  16.455  14.487   7.790 -0.2907 -0.2826  0.0205
 1024loPI   C6A15032  16.026  14.408   8.034  0.0266 -0.0854 -0.1520
 1024loPI   C1B15033  16.209  14.272   6.371 -0.3193  0.1759 -0.2154
 1024loPI   C2B15034  16.160  14.153   6.849 -0.0213 -0.0628 -0.0511
 1024loPI   C3B15035  16.247  14.179   7.259 -0.0473  0.1648  0.1191
 1024loPI   C4B15036  16.131  14.102   7.671 -0.1395 -0.0854  0.0042
 1025loPI    C115037   2.647  17.412   5.812 -0.1757 -0.0652 -0.0265
 1025loPI    C215038   2.491  17.672   6.074 -0.1259 -0.0283 -0.0332
 1025loPI    C315039   2.591  17.794   5.706 -0.1385 -0.0659 -0.0491
 1025loPI   PO415040   2.511  17.199   5.877  0.3454 -0.0148 -0.3521
 1025loPI   GL115041   2.375  17.184   6.284 -0.3199 -0.4790 -0.0803
 1025loPI   GL215042   2.079  17.359   6.228  0.0435  0.0937 -0.0463
 1025loPI   C1A15043   2.454  17.041   6.697 -0.3270 -0.0792 -0.1978
 1025loPI   C2A15044   2.495  16.910   7.173  0.0177  0.3007  0.2642
 1025loPI   C3A15045   2.260  16.562   7.364 -0.2553  0.1519  0.1439
 1025loPI   C4A15046   2.277  16.302   7.728 -0.0547  0.2288  0.2061
 1025loPI   C5A15047   2.524  16.217   8.034  0.0476  0.1070 -0.1088
 1025loPI   C6A15048   2.722  16.247   8.374 -0.0578 -0.1678  0.1603
 1025loPI   C1B15049   1.709  17.452   6.510  0.0418 -0.1849  0.1935
 1025loPI   C2B15050   1.583  17.417   6.994  0.0434  0.3222  0.0483
 1025loPI   C3B15051   1.589  17.611   7.377 -0.2035 -0.0142  0.2739
 1025loPI   C4B15052   1.744  17.906   7.762 -0.0640 -0.1323  0.1711
 1026loPI    C115053  15.600   4.633   5.285  0.0605 -0.2828 -0.0701
 1026loPI    C215054  15.980   4.702   5.390  0.0561 -0.0664 -0.1902
 1026loPI    C315055  15.879   4.684   5.003 -0.1376  0.3688 -0.1651
 1026loPI   PO415056  15.437   4.821   5.397  0.0190  0.0663 -0.1208
 1026loPI   GL115057  15.236   4.867   5.805  0.0284  0.0842 -0.1071
 1026loPI   GL215058  14.895   4.976   5.744 -0.3201  0.0328  0.2341
 1026loPI   C1A15059  15.316   4.787   6.271  0.0463  0.0548 -0.1656
 1026loPI   C2A15060  15.377   4.686   6.766  0.3205  0.0469  0.0924
 1026loPI   C3A15061  15.187   4.429   7.031 -0.0221  0.1994 -0.1525
 1026loPI   C4A15062  15.077   4.502   7.412 -0.2836 -0.2811  0.0101
 1026loPI   C5A15063  15.139   4.788   7.802  0.4454 -0.1779  0.2363
 1026loPI   C6A15064  15.198   5.089   8.150  0.1868  0.1348  0.0508
 1026loPI   C1B15065  14.901   5.062   6.149 -0.0928 -0.0062 -0.1694
 1026loPI   C2B15066  15.112   5.089   6.568 -0.0840 -0.0167  0.1925
 1026loPI   C3B15067  15.260   5.105   6.937  0.0801 -0.0624 -0.1842
 1026loPI   C4B15068  15.195   4.961   7.308 -0.1261  0.1002 -0.1709
 1027loPI    C115069   2.231  10.480   6.046  0.1400  0.1907 -0.3029
 1027loPI    C215070   2.617  10.458   6.149  0.1314  0.1400 -0.2813
 1027loPI    C315071   2.402  10.123   6.106 -0.1132  0.1797  0.4698
 1027loPI   PO415072   2.194  10.668   6.230  0.1486  0.3481 -0.0767
 1027loPI   GL115073   2.387  10.964   6.526 -0.1398  0.1138 -0.1466
 1027loPI   GL215074   2.615  10.725   6.577  0.1079  0.1621  0.2260
 1027loPI   C1A15075   2.228  10.860   6.923 -0.1914  0.1452 -0.2545
 1027loPI   C2A15076   2.165  11.035   7.312  0.1158 -0.1250 -0.2678
 1027loPI   C3A15077   2.070  11.084   7.707 -0.0278  0.0524  0.2499
 1027loPI   C4A15078   2.042  10.826   7.970  0.1514  0.4825 -0.1917
 1027loPI   C5A15079   1.981  10.716   8.385 -0.3247  0.1000 -0.0936
 1027loPI   C6A15080   2.179  10.603   8.860  0.0579 -0.0349  0.0366
 1027loPI   C1B15081   2.950  10.645   6.922  0.1151 -0.0246  0.2944
 1027loPI   C2B15082   3.085  10.646   7.385  0.1674 -0.0164  0.1402
 1027loPI   C3B15083   2.926  10.505   7.771 -0.0352  0.5099  0.0085
 1027loPI   C4B15084   2.818  10.431   8.184  0.0593  0.1467 -0.1122
 1028loPI    C115085   7.739  13.735   6.106 -0.0027  0.0956  0.0980
 1028loPI    C215086   7.984  13.624   5.809 -0.0364  0.2418  0.0144
 1028loPI    C315087   7.587  13.595   5.763 -0.0373  0.0414  0.1353
 1028loPI   PO415088   7.776  13.942   6.219 -0.1148  0.2786 -0.1061
 1028loPI   GL115089   7.737  13.954   6.592 -0.0818  0.2928 -0.0889
 1028loPI   GL215090   8.036  13.789   6.672  0.1230 -0.1120 -0.2116
 1028loPI   C1A15091   7.493  13.984   6.905  0.2058  0.3292 -0.2484
 1028loPI   C2A15092   7.423  13.850   7.323 -0.2155  0.0408 -0.1668
 1028loPI   C3A15093   7.650  13.770   7.671  0.1358 -0.2353 -0.0322
 1028loPI   C4A15094   7.725  13.895   8.178 -0.0815 -0.1181  0.0149
 1028loPI   C5A15095   8.036  14.033   8.464 -0.2244 -0.2745  0.2207
 1028loPI   C6A15096   8.258  14.113   8.789  0.1415  0.0085 -0.1403
 1028loPI   C1B15097   7.924  14.073   7.071  0.1028 -0.1199 -0.0100
 1028loPI   C2B15098   7.774  14.265   7.471  0.1135 -0.0531 -0.1111
 1028loPI   C3B15099   8.014  14.209   7.931  0.1601 -0.1205 -0.1245
 1028loPI   C4B15100   8.231  14.451   8.306 -0.0925 -0.1842  0.1008
 1029loPI    C115101   1.072   1.646   5.566 -0.0544 -0.2727  0.1786
 1029loPI    C215102   1.201   1.982   5.392 -0.2210 -0.2081  0.1780
 1029loPI    C315103   1.093   1.670   5.167 -0.0929 -0.2529  0.1777
 1029loPI   PO415104   1.036   1.678   5.762  0.0076 -0.0048 -0.0796
 1029loPI   GL115105   0.840   1.763   6.060  0.1197 -0.0806 -0.0297
 1029loPI   GL215106   0.925   1.464   6.181 -0.0275 -0.0004 -0.1032
 1029loPI   C1A15107   0.542   1.887   6.496 -0.1027  0.1158  0.0013
 1029loPI   C2A15108   0.582   1.870   6.920  0.0518 -0.0408 -0.1403
 1029loPI   C3A15109   0.658   1.722   7.336 -0.2395 -0.0470  0.3884
 1029loPI   C4A15110   0.826   1.396   7.667  0.0224 -0.0543 -0.1281
 1029loPI   C5A15111   0.983   1.357   8.039  0.1173  0.0333  0.1165
 1029loPI   C6A15112   1.185   1.297   8.363 -0.1106  0.2138  0.2284
 1029loPI   C1B15113   0.908   1.411   6.683 -0.0182  0.0310  0.0380
 1029loPI   C2B15114   0.827   1.304   7.149 -0.0181  0.3186 -0.1140
 1029loPI   C3B15115   0.555   1.083   7.397 -0.3952 -0.0204  0.1739
 1029loPI   C4B15116   0.398   0.985   7.773  0.3743  0.1701 -0.4324
 1030loPI    C115117  16.011   7.268   5.480 -0.0329  0.0082 -0.2207
 1030loPI    C215118  16.304   6.996   5.480 -0.2631 -0.2447 -0.1009
 1030loPI    C315119  16.286   7.270   5.189  0.0152 -0.3077 -0.1809
 1030loPI   PO415120  16.017   7.360   5.823 -0.0917  0.1762  0.1246
 1030loPI   GL115121  15.708   7.347   6.164 -0.1045 -0.0226 -0.1998
 1030loPI   GL215122  15.563   7.594   6.386  0.1030  0.0143  0.0120
 1030loPI   C1A15123  15.498   7.040   6.553  0.1144 -0.0361 -0.0618
 1030loPI   C2A15124  15.523   6.851   6.991  0.1368  0.1786  0.0248
 1030loPI   C3A15125  15.592   6.593   7.398 -0.3235  0.1094 -0.1188
 1030loPI   C4A15126  15.714   6.265   7.581  0.0130 -0.0618 -0.2312
 1030loPI   C5A15127  15.748   5.899   7.836  0.0500  0.2256  0.4109
 1030loPI   C6A15128  15.712   5.901   8.306 -0.1804 -0.0314  0.4255
 1030loPI   C1B15129  15.585   7.398   6.882  0.1040 -0.1894  0.1801
 1030loPI   C2B15130  15.502   7.210   7.314 -0.1661 -0.1704 -0.0033
 1030loPI   C3B15131  15.658   7.032   7.581 -0.0915 -0.0781 -0.0209
 1030loPI   C4B15132  15.591   6.701   7.906 -0.3416  0.1225  0.3827
 1031loPI    C115133  11.517   1.037   5.225  0.0157 -0.0254 -0.0500
 1031loPI    C215134  11.837   0.954   5.000 -0.0123 -0.0977 -0.0633
 1031loPI    C315135  11.483   0.788   4.914  0.0267 -0.3092  0.1722
 1031loPI   PO415136  11.575   0.921   5.517 -0.1783  0.2138 -0.3986
 1031loPI   GL115137  11.665   0.687   5.867 -0.0466 -0.2977 -0.3644
 1031loPI   GL215138  11.846   0.399   5.765 -0.1251 -0.0101  0.0857
 1031loPI   C1A15139  11.572   0.736   6.216 -0.0978 -0.0960 -0.0135
 1031loPI   C2A15140  11.505   0.846   6.603  0.1245  0.2186 -0.1311
 1031loPI   C3A15141  11.584   0.823   7.074  0.2308  0.0961 -0.4231
 1031loPI   C4A15142  11.619   0.713   7.545  0.0386 -0.1277 -0.5077
 1031loPI   C5A15143  11.533   0.608   7.922 -0.2655 -0.1536 -0.0794
 1031loPI   C6A15144  11.418   0.449   8.324  0.1367  0.0076  0.1225
 1031loPI   C1B15145  12.178   0.388   6.160  0.3843  0.0559  0.0696
 1031loPI   C2B15146  12.280   0.349   6.579 -0.0841  0.0808 -0.0184
 1031loPI   C3B15147  12.261   0.374   7.030 -0.3197  0.3037 -0.0851
 1031loPI   C4B15148  12.449   0.398   7.437  0.0571 -0.1273 -0.1371
 1032loPI    C115149  12.401  11.591   5.307  0.2160 -0.2088  0.0872
 1032loPI    C215150  12.714  11.722   5.095  0.1069 -0.2253 -0.0864
 1032loPI    C315151  12.452  11.470   4.929 -0.0567 -0.1287  0.0228
 1032loPI   PO415152  12.412  11.467   5.615  0.0480 -0.2092  0.1541
 1032loPI   GL115153  12.516  11.349   6.079 -0.5612  0.0141  0.0716
 1032loPI   GL215154  12.729  11.111   6.101 -0.1552 -0.3150  0.4298
 1032loPI   C1A15155  12.468  11.218   6.500 -0.1254 -0.2285 -0.0044
 1032loPI   C2A15156  12.360  11.212   6.980 -0.1275 -0.0476 -0.0516
 1032loPI   C3A15157  12.355  11.380   7.360 -0.3155  0.1219  0.0448
 1032loPI   C4A15158  12.214  11.572   7.691  0.0366 -0.0090 -0.0241
 1032loPI   C5A15159  12.005  11.877   7.937 -0.0580  0.1351  0.0112
 1032loPI   C6A15160  11.710  12.170   8.022 -0.1990  0.0141  0.3264
 1032loPI   C1B15161  12.710  10.807   6.444  0.0287  0.1339  0.0587
 1032loPI   C2B15162  12.669  10.853   6.911  0.0783 -0.1783  0.0870
 1032loPI   C3B15163  12.608  10.760   7.247  0.0144 -0.1099  0.0777
 1032loPI   C4B15164  12.427  10.983   7.630  0.1298 -0.0134  0.1576
 1033loPI    C115165   4.552  12.173   5.743 -0.2326  0.3146 -0.0764
 1033loPI    C215166   4.216  12.006   5.605  0.0458 -0.1974 -0.1596
 1033loPI    C315167   4.547  12.007   5.380  0.1248  0.2435 -0.0526
 1033loPI   PO415168   4.438  12.382   5.950  0.2114 -0.0448 -0.0867
 1033loPI   GL115169   4.476  12.597   6.344 -0.0170 -0.0758  0.1736
 1033loPI   GL215170   4.487  12.234   6.460  0.3651  0.1198  0.1278
 1033loPI   C1A15171   4.351  12.536   6.831 -0.0671  0.0758  0.2950
 1033loPI   C2A15172   4.280  12.592   7.271 -0.0853  0.4748 -0.1087
 1033loPI   C3A15173   4.363  12.358   7.588 -0.0813 -0.2150 -0.2867
 1033loPI   C4A15174   4.307  12.166   8.012 -0.2497  0.1219  0.2251
 1033loPI   C5A15175   4.402  11.952   8.388 -0.1636 -0.3100  0.0214
 1033loPI   C6A15176   4.837  11.933   8.640 -0.0023  0.0114 -0.0294
 1033loPI   C1B15177   4.544  11.939   6.785  0.0630 -0.1189  0.0964
 1033loPI   C2B15178   4.256  12.021   7.098 -0.1085 -0.1198 -0.0145
 1033loPI   C3B15179   4.272  11.844   7.539 -0.1172  0.0462  0.0434
 1033loPI   C4B15180   4.215  11.678   7.983 -0.0745  0.3629 -0.2919
 1034loPI    C115181  13.653  13.791   5.477 -0.0432  0.0624  0.0971
 1034loPI    C215182  13.783  13.657   5.124  0.1266 -0.0177  0.1889
 1034loPI    C315183  13.962  13.538   5.461 -0.0060  0.0931  0.2995
 1034loPI   PO415184  13.646  14.060   5.552 -0.2885  0.0799 -0.0268
 1034loPI   GL115185  13.658  14.266   5.873 -0.1042 -0.1274  0.0741
 1034loPI   GL215186  13.284  14.124   5.928 -0.1225 -0.0061 -0.3674
 1034loPI   C1A15187  13.789  14.316   6.291  0.1385 -0.1243 -0.0293
 1034loPI   C2A15188  13.683  14.364   6.688  0.0920  0.0756 -0.2337
 1034loPI   C3A15189  13.802  14.310   7.127  0.3348  0.0283 -0.3741
 1034loPI   C4A15190  13.549  14.363   7.486 -0.1190  0.1047  0.0900
 1034loPI   C5A15191  13.531  14.235   7.913 -0.3437 -0.2992 -0.0980
 1034loPI   C6A15192  13.445  13.902   8.044  0.1069 -0.0078  0.0762
 1034loPI   C1B15193  13.305  14.053   6.411 -0.2290  0.0423 -0.3211
 1034loPI   C2B15194  13.403  13.977   6.807 -0.3769  0.0535 -0.1939
 1034loPI   C3B15195  13.450  13.887   7.271  0.0012  0.2665  0.0471
 1034loPI   C4B15196  13.499  13.579   7.628  0.1168 -0.4589  0.2320
 1035loPI    C115197  12.432   5.976   5.485 -0.0782  0.0881  0.1431
 1035loPI    C215198  12.542   6.334   5.346  0.1401  0.0090  0.1082
 1035loPI    C315199  12.323   6.090   5.118  0.1408  0.0492  0.0644
 1035loPI   PO415200  12.575   5.932   5.667  0.0504 -0.2345  0.1544
 1035loPI   GL115201  12.713   5.772   6.005 -0.1960  0.0858  0.0187
 1035loPI   GL215202  12.974   5.812   5.965  0.2391 -0.1162 -0.2389
 1035loPI   C1A15203  12.671   5.761   6.404  0.0310 -0.0906 -0.0408
 1035loPI   C2A15204  12.596   5.750   6.751  0.1279 -0.0579 -0.0300
 1035loPI   C3A15205  12.717   5.776   7.176 -0.0967 -0.0285  0.2292
 1035loPI   C4A15206  12.479   5.850   7.607 -0.3470  0.1879  0.0900
 1035loPI   C5A15207  12.412   5.879   8.013  0.0210 -0.0136 -0.3874
 1035loPI   C6A15208  12.115   5.569   8.177  0.0380  0.1066  0.0969
 1035loPI   C1B15209  13.070   5.497   6.279  0.0925 -0.1065 -0.0103
 1035loPI   C2B15210  13.273   5.155   6.698 -0.0012  0.0541 -0.0552
 1035loPI   C3B15211  13.268   5.043   7.066 -0.1094 -0.0923 -0.2764
 1035loPI   C4B15212  13.337   4.874   7.549 -0.0109 -0.0852 -0.0101
 1036loPI    C115213   5.674   3.199   5.653 -0.1038 -0.2261  0.1899
 1036loPI    C215214   5.560   2.870   5.456 -0.0909 -0.0559 -0.1070
 1036loPI    C315215   5.596   3.218   5.262  0.1245  0.0722  0.1554
 1036loPI   PO415216   5.847   3.180   5.745  0.1373 -0.2345 -0.0731
 1036loPI   GL115217   6.225   3.272   6.107 -0.1704  0.1058  0.0727
 1036loPI   GL215218   5.865   3.160   6.243 -0.1550 -0.1386  0.1516
 1036loPI   C1A15219   6.331   3.034   6.444 -0.0753 -0.0877 -0.1914
 1036loPI   C2A15220   6.386   2.984   6.899 -0.0259  0.0306 -0.1337
 1036loPI   C3A15221   6.455   2.993   7.400  0.0748 -0.0042  0.1059
 1036loPI   C4A15222   6.660   3.298   7.763  0.1006 -0.1013 -0.2456
 1036loPI   C5A15223   7.087   3.371   7.686  0.1349  0.2703  0.3616
 1036loPI   C6A15224   7.375   3.136   7.457  0.1269 -0.0220 -0.0399
 1036loPI   C1B15225   5.893   3.118   6.644 -0.0978  0.1095 -0.0018
 1036loPI   C2B15226   5.836   3.002   7.013  0.1370  0.0842 -0.0807
 1036loPI   C3B15227   5.951   3.019   7.418 -0.1147  0.2480 -0.1201
 1036loPI   C4B15228   6.043   2.786   7.788 -0.0413  0.0697 -0.2326
 1037loPI    C115229  14.838   5.262   5.324 -0.0460 -0.0851  0.2553
 1037loPI    C215230  14.581   4.966   5.245  0.1350 -0.1605 -0.0677
 1037loPI    C315231  14.974   4.907   5.201  0.1981  0.0145  0.2323
 1037loPI   PO415232  14.675   5.377   5.585 -0.1540 -0.2817 -0.3045
 1037loPI   GL115233  14.767   5.488   5.984  0.1005  0.1370 -0.1880
 1037loPI   GL215234  14.551   5.745   5.952  0.1149  0.0086 -0.1414
 1037loPI   C1A15235  14.959   5.543   6.382 -0.0089 -0.1410 -0.0157
 1037loPI   C2A15236  15.016   5.577   6.833  0.3179 -0.1983 -0.0072
 1037loPI   C3A15237  15.186   5.469   7.209 -0.3364  0.1386  0.0646
 1037loPI   C4A15238  15.426   5.411   7.625  0.2266 -0.0397  0.0802
 1037loPI   C5A15239  15.688   5.415   8.016  0.0065 -0.1207  0.2305
 1037loPI   C6A15240  15.887   5.422   8.408 -0.3601 -0.2134 -0.0608
 1037loPI   C1B15241  14.418   5.651   6.286 -0.6952 -0.1157 -0.0617
 1037loPI   C2B15242  14.474   5.732   6.771 -0.0991 -0.0463  0.1620
 1037loPI   C3B15243  14.468   5.670   7.185 -0.2915 -0.2480  0.0273
 1037loPI   C4B15244  14.198   5.703   7.514  0.0202  0.2315 -0.0886
 1038loPI    C115245  11.070   2.354   5.292  0.1022 -0.0535  0.1697
 1038loPI    C215246  11.023   2.039   5.051  0.1139  0.0917 -0.0245
 1038loPI    C315247  11.193   2.374   4.912  0.1586  0.1628  0.1976
 1038loPI   PO415248  11.214   2.240   5.508 -0.0439 -0.0858  0.2235
 1038loPI   GL115249  11.102   2.062   5.897 -0.0918  0.0643  0.0174
 1038loPI   GL215250  11.242   1.802   5.766 -0.0450  0.0492  0.2297
 1038loPI   C1A15251  11.212   2.133   6.285 -0.1438  0.0231  0.0879
 1038loPI   C2A15252  11.235   2.204   6.790 -0.1782 -0.2091  0.1156
 1038loPI   C3A15253  11.362   2.259   7.224 -0.0831  0.0853 -0.0759
 1038loPI   C4A15254  11.257   2.111   7.653  0.3526  0.0072 -0.0208
 1038loPI   C5A15255  11.132   1.824   7.907  0.3282 -0.2458  0.1637
 1038loPI   C6A15256  11.061   1.421   7.892 -0.1431 -0.0357  0.3543
 1038loPI   C1B15257  11.231   1.614   6.132 -0.0629 -0.2139  0.0353
 1038loPI   C2B15258  11.214   1.739   6.604  0.1279 -0.1411 -0.2817
 1038loPI   C3B15259  11.210   1.738   7.028  0.1361  0.1019 -0.0372
 1038loPI   C4B15260  11.234   1.653   7.459 -0.1222  0.1533  0.3450
 1039loPI    C115261   1.479   4.731   5.627  0.0652  0.3326  0.0759
 1039loPI    C215262   1.247   4.501   5.396  0.3002  0.0908  0.0759
 1039loPI    C315263   1.268   4.895   5.329 -0.1657  0.1299  0.1245
 1039loPI   PO415264   1.388   4.658   5.868 -0.1780  0.2384  0.0318
 1039loPI   GL115265   1.438   4.572   6.265  0.1757  0.2468  0.1076
 1039loPI   GL215266   1.729   4.505   6.376 -0.0863  0.0040  0.1529
 1039loPI   C1A15267   1.274   4.351   6.574 -0.4885 -0.0082 -0.1860
 1039loPI   C2A15268   1.298   4.298   7.092  0.1154 -0.1496 -0.1130
 1039loPI   C3A15269   1.384   4.233   7.493  0.0020  0.1970 -0.1903
 1039loPI   C4A15270   1.509   4.054   7.855  0.0771 -0.4249  0.0424
 1039loPI   C5A15271   1.812   3.639   7.922  0.3682  0.1688  0.2715
 1039loPI   C6A15272   2.031   3.329   8.143  0.0136  0.1772 -0.1118
 1039loPI   C1B15273   1.653   4.568   6.835 -0.3172 -0.2959  0.0197
 1039loPI   C2B15274   1.816   4.571   7.251  0.0508  0.0541 -0.0240
 1039loPI   C3B15275   1.853   4.412   7.670  0.2435 -0.0348  0.0110
 1039loPI   C4B15276   1.780   4.665   8.030 -0.1476  0.0720  0.0179
 1040loPI    C115277   6.830   8.391   5.657  0.3038  0.1537  0.2377
 1040loPI    C215278   7.053   8.189   5.392 -0.1105 -0.3509  0.2574
 1040loPI    C315279   6.705   8.352   5.279  0.0218  0.0023  0.3438
 1040loPI   PO415280   6.938   8.221   5.904  0.1352  0.1880  0.0769
 1040loPI   GL115281   7.256   8.060   6.012 -0.3649  0.0500 -0.0257
 1040loPI   GL215282   7.393   8.352   6.161  0.3035  0.0673 -0.0419
 1040loPI   C1A15283   7.154   7.990   6.451 -0.0688 -0.0431 -0.0840
 1040loPI   C2A15284   7.105   8.114   6.847  0.0485 -0.0098  0.0595
 1040loPI   C3A15285   7.152   8.129   7.297 -0.2121  0.1047 -0.3179
 1040loPI   C4A15286   6.979   8.131   7.690  0.0199  0.0602  0.0994
 1040loPI   C5A15287   6.853   8.407   8.014 -0.0240 -0.3773  0.1550
 1040loPI   C6A15288   6.416   8.640   8.116 -0.0159  0.2195  0.0178
 1040loPI   C1B15289   7.498   8.484   6.535  0.4102  0.2544  0.0587
 1040loPI   C2B15290   7.508   8.441   6.953  0.4070  0.1926 -0.3127
 1040loPI   C3B15291   7.470   8.633   7.315  0.0971 -0.0075  0.1053
 1040loPI   C4B15292   7.267   8.608   7.718  0.0928 -0.3055 -0.0410
 1041loPI    C115293  13.302   0.506   5.272 -0.0255 -0.0823 -0.0049
 1041loPI    C215294  13.695   0.492   5.197 -0.0494 -0.0469 -0.1376
 1041loPI    C315295  13.432   0.402   4.908 -0.1381 -0.1142 -0.0365
 1041loPI   PO415296  13.243   0.518   5.494  0.0291  0.0272 -0.2059
 1041loPI   GL115297  12.967   0.674   5.823  0.1374 -0.2779  0.0749
 1041loPI   GL215298  12.734   0.471   5.809 -0.1798 -0.1979 -0.1710
 1041loPI   C1A15299  13.061   0.755   6.247  0.0884  0.1088  0.3160
 1041loPI   C2A15300  13.000   0.819   6.626  0.0570  0.4460 -0.1619
 1041loPI   C3A15301  12.844   0.993   7.025  0.2018 -0.1876 -0.3485
 1041loPI   C4A15302  12.781   0.906   7.465 -0.0760  0.0964  0.1745
 1041loPI   C5A15303  12.889   0.811   7.793  0.2777 -0.1183  0.0531
 1041loPI   C6A15304  13.205   1.017   7.869  0.0449 -0.1671  0.3980
 1041loPI   C1B15305  12.609   0.575   6.233 -0.0060 -0.0457  0.1977
 1041loPI   C2B15306  12.511   0.717   6.777 -0.0316 -0.2745 -0.4804
 1041loPI   C3B15307  12.381   0.846   7.147  0.2661 -0.3495 -0.2204
 1041loPI   C4B15308  12.153   0.744   7.509 -0.3245 -0.0614  0.0891
 1042loPI    C115309  13.659   8.874   5.461 -0.2429  0.0860 -0.1981
 1042loPI    C215310  13.693   8.897   5.063  0.0556 -0.0714 -0.1840
 1042loPI    C315311  14.011   8.802   5.286 -0.0561  0.2289  0.1113
 1042loPI   PO415312  13.366   8.819   5.479  0.1237 -0.0033 -0.1729
 1042loPI   GL115313  13.170   8.596   5.743 -0.1892  0.1840  0.0135
 1042loPI   GL215314  13.484   8.593   5.908 -0.1602  0.0475 -0.0167
 1042loPI   C1A15315  13.035   8.552   6.122 -0.3808 -0.2189 -0.4540
 1042loPI   C2A15316  13.104   8.626   6.617 -0.1764  0.2346  0.1146
 1042loPI   C3A15317  13.074   8.550   7.007 -0.0985  0.2724 -0.1214
 1042loPI   C4A15318  12.989   8.642   7.427 -0.0315 -0.1921 -0.0112
 1042loPI   C5A15319  13.126   8.657   7.742  0.3657  0.2654  0.0391
 1042loPI   C6A15320  13.062   9.006   8.005 -0.1765 -0.0603 -0.1288
 1042loPI   C1B15321  13.506   8.674   6.264  0.2385  0.3517  0.3194
 1042loPI   C2B15322  13.698   8.716   6.663  0.3560 -0.0252 -0.1600
 1042loPI   C3B15323  13.613   8.599   7.052 -0.3243  0.1604 -0.0866
 1042loPI   C4B15324  13.489   8.611   7.388  0.3429 -0.2174  0.0134
 1043loPI    C115325  10.141   0.094   5.282 -0.0199 -0.0747  0.1627
 1043loPI    C215326  10.452  -0.110   5.429  0.1327 -0.0436 -0.1112
 1043loPI    C315327  10.273  -0.233   5.093 -0.0674  0.0146 -0.0274
 1043loPI   PO415328  10.140   0.216   5.548  0.1255 -0.2336 -0.1793
 1043loPI   GL115329   9.983   0.179   5.993 -0.2412 -0.1854  0.1097
 1043loPI   GL215330   9.971   0.388   6.009 -0.1344 -0.1602 -0.1438
 1043loPI   C1A15331  10.209   0.058   6.337  0.0290  0.1524  0.1190
 1043loPI   C2A15332  10.220   0.159   6.740 -0.0533 -0.0279  0.3287
 1043loPI   C3A15333  10.182   0.163   7.178  0.1525 -0.0381 -0.1946
 1043loPI   C4A15334  10.238  -0.141   7.480 -0.2408  0.2560 -0.5108
 1043loPI   C5A15335  10.511  -0.209   7.900 -0.3535 -0.1266 -0.1080
 1043loPI   C6A15336  10.959  -0.238   8.095  0.2736 -0.0972 -0.2319
 1043loPI   C1B15337   9.825   0.420   6.479 -0.0184  0.1400 -0.3182
 1043loPI   C2B15338   9.753   0.485   6.908  0.1779  0.0042  0.3307
 1043loPI   C3B15339   9.879   0.463   7.396  0.0232 -0.2222  0.0993
 1043loPI   C4B15340  10.016   0.706   7.746 -0.0897  0.0030 -0.2362
 1044loPI    C115341   9.478  10.524   5.758 -0.0093 -0.0334 -0.0096
 1044loPI    C215342   9.685  10.183   5.735  0.0226 -0.0223  0.1050
 1044loPI    C315343   9.665  10.427   5.418  0.1095 -0.0669  0.0649
 1044loPI   PO415344   9.294  10.425   5.940  0.0775 -0.0969 -0.2629
 1044loPI   GL115345   9.374  10.219   6.275  0.0386 -0.0460 -0.2518
 1044loPI   GL215346   9.752  10.434   6.189  0.1985  0.1475  0.2351
 1044loPI   C1A15347   9.411  10.336   6.651  0.3986 -0.0703  0.5097
 1044loPI   C2A15348   9.560  10.158   7.035 -0.2310 -0.0516  0.1766
 1044loPI   C3A15349   9.658  10.262   7.438  0.0561  0.2085  0.3963
 1044loPI   C4A15350   9.834  10.150   7.798  0.1645 -0.0425 -0.0518
 1044loPI   C5A15351   9.938  10.239   8.164  0.1772 -0.2240 -0.0370
 1044loPI   C6A15352  10.199  10.345   8.580 -0.0965  0.1514 -0.1762
 1044loPI   C1B15353   9.866  10.576   6.560  0.3546  0.1204 -0.3132
 1044loPI   C2B15354   9.887  10.550   7.007  0.0643  0.2222  0.0237
 1044loPI   C3B15355   9.922  10.674   7.366  0.0256  0.1642 -0.1592
 1044loPI   C4B15356   9.950  10.673   7.837  0.1686  0.0362  0.0911
 1045loPI    C115357   9.370   0.792   5.112 -0.0746  0.1299  0.0217
 1045loPI    C215358   9.234   0.530   4.843  0.1492  0.0129  0.0199
 1045loPI    C315359   9.018   0.855   4.933 -0.1664 -0.2081  0.0774
 1045loPI   PO415360   9.407   0.804   5.360  0.3432 -0.2373 -0.1885
 1045loPI   GL115361   9.568   0.510   5.714  0.0860  0.1957  0.1782
 1045loPI   GL215362   9.702   0.801   5.810 -0.1803  0.2159  0.0632
 1045loPI   C1A15363   9.503   0.587   6.178 -0.0430 -0.1690 -0.1380
 1045loPI   C2A15364   9.393   0.644   6.613 -0.0676 -0.1228 -0.1452
 1045loPI   C3A15365   9.393   0.804   6.933  0.0140  0.2765 -0.0089
 1045loPI   C4A15366   9.503   0.802   7.350 -0.0354  0.1864  0.0985
 1045loPI   C5A15367   9.406   0.860   7.765  0.3205 -0.1165  0.0137
 1045loPI   C6A15368   9.158   0.835   8.028  0.2207  0.0404 -0.0861
 1045loPI   C1B15369   9.921   0.863   6.135 -0.0219 -0.0508  0.0472
 1045loPI   C2B15370   9.820   0.862   6.614  0.0894 -0.0257 -0.1111
 1045loPI   C3B15371   9.856   0.935   7.045  0.2992 -0.0976 -0.4331
 1045loPI   C4B15372   9.711   1.231   7.483  0.2430  0.3458 -0.2414
 1046loPI    C115373  14.765  17.715   5.318  0.2205  0.0866 -0.2394
 1046loPI    C215374  14.790  17.407   5.065  0.3594  0.1082 -0.2528
 1046loPI    C315375  14.492  17.671   5.029  0.1055 -0.1515 -0.0972
 1046loPI   PO415376  14.745  17.552   5.574 -0.0754  0.0883  0.2191
 1046loPI   GL115377  14.685  17.585   5.958 -0.0595  0.1788 -0.2023
 1046loPI   GL215378  14.904  17.318   6.133 -0.0482  0.1151 -0.0645
 1046loPI   C1A15379  14.378  17.417   6.304  0.0737 -0.1266 -0.0328
 1046loPI   C2A15380  14.151  17.114   6.580  0.2035 -0.2394 -0.1588
 1046loPI   C3A15381  14.171  16.934   7.020  0.4222 -0.0668  0.1002
 1046loPI   C4A15382  13.985  17.046   7.308 -0.0574 -0.1654 -0.0932
 1046loPI   C5A15383  13.878  17.219   7.748 -0.1217  0.4207  0.0490
 1046loPI   C6A15384  14.061  17.196   8.093 -0.0293 -0.2482 -0.2768
 1046loPI   C1B15385  15.137  17.340   6.414  0.1090 -0.2083  0.0464
 1046loPI   C2B15386  15.029  17.445   6.778  0.0954 -0.1988 -0.1623
 1046loPI   C3B15387  14.922  17.445   7.169 -0.2554 -0.2991  0.2104
 1046loPI   C4B15388  14.645  17.308   7.450  0.3104  0.1092  0.2731
 1047loPI    C115389   0.756  10.494   5.954  0.1301 -0.0610 -0.0287
 1047loPI    C215390   0.911  10.592   6.309 -0.0587  0.0187  0.0329
 1047loPI    C315391   0.816  10.878   6.047  0.1634 -0.0441 -0.1190
 1047loPI   PO415392   0.619  10.258   6.014  0.0190  0.0671 -0.3066
 1047loPI   GL115393   0.526  10.339   6.446 -0.1172  0.2620  0.1579
 1047loPI   GL215394   0.527  10.008   6.474  0.3838 -0.1399  0.0018
 1047loPI   C1A15395   0.354  10.420   6.792  0.5113  0.2891 -0.2196
 1047loPI   C2A15396   0.333  10.700   7.082  0.3487 -0.0849  0.1750
 1047loPI   C3A15397   0.259  10.766   7.461 -0.1625 -0.2051  0.0502
 1047loPI   C4A15398   0.136  10.683   7.985 -0.0702  0.2116 -0.0440
 1047loPI   C5A15399   0.331  10.502   8.411  0.1544  0.0751 -0.0992
 1047loPI   C6A15400   0.487  10.188   8.676  0.1592  0.0345  0.3202
 1047loPI   C1B15401   0.464   9.912   6.942  0.0183  0.0033  0.1204
 1047loPI   C2B15402   0.541   9.890   7.274 -0.0415  0.0112 -0.0588
 1047loPI   C3B15403   0.378   9.973   7.714 -0.0294 -0.1155 -0.0148
 1047loPI   C4B15404   0.523  10.123   8.131 -0.0546  0.2341 -0.2319
 1048loPI    C115405   6.903   1.805   5.636  0.0611 -0.0226  0.0393
 1048loPI    C215406   6.928   2.161   5.456 -0.0717 -0.1060 -0.1475
 1048loPI    C315407   6.919   1.826   5.237  0.0962 -0.2277  0.0285
 1048loPI   PO415408   6.703   1.726   5.845  0.1811 -0.3266  0.0041
 1048loPI   GL115409   6.490   1.880   6.100  0.0470 -0.1325 -0.0126
 1048loPI   GL215410   6.543   2.215   6.033 -0.0394 -0.1037 -0.1324
 1048loPI   C1A15411   6.516   1.999   6.551  0.2377  0.0301  0.2711
 1048loPI   C2A15412   6.521   2.421   6.783  0.0027 -0.0506  0.2036
 1048loPI   C3A15413   6.583   2.554   7.044 -0.0789  0.0608  0.1786
 1048loPI   C4A15414   6.551   2.558   7.535  0.2625 -0.1243  0.2526
 1048loPI   C5A15415   6.548   2.809   7.903 -0.0356 -0.0719 -0.0405
 1048loPI   C6A15416   6.522   3.175   8.213 -0.1972  0.0891 -0.0338
 1048loPI   C1B15417   6.289   2.386   6.361 -0.0989 -0.0800  0.2794
 1048loPI   C2B15418   6.053   2.621   6.737 -0.2977 -0.0504 -0.1133
 1048loPI   C3B15419   6.094   2.559   7.117 -0.2937 -0.1200  0.0717
 1048loPI   C4B15420   6.143   2.325   7.507 -0.1082  0.4670 -0.1797
 1049loPI    C115421   7.999   2.697   5.678  0.1586 -0.2512 -0.1059
 1049loPI    C215422   7.728   2.581   5.408  0.0392 -0.0509 -0.0742
 1049loPI    C315423   7.966   2.892   5.330 -0.0649  0.0719  0.0910
 1049loPI   PO415424   7.805   2.733   5.895 -0.1761  0.0507  0.1332
 1049loPI   GL115425   7.714   2.920   6.257  0.2252 -0.1002 -0.2706
 1049loPI   GL215426   7.783   2.569   6.414 -0.0336  0.2310 -0.4903
 1049loPI   C1A15427   8.096   2.941   6.555  0.1062 -0.3140 -0.0844
 1049loPI   C2A15428   8.289   2.848   6.941 -0.1303  0.0508  0.1214
 1049loPI   C3A15429   8.440   2.826   7.342 -0.3233  0.0295  0.1565
 1049loPI   C4A15430   8.331   3.013   7.729  0.2235 -0.2563  0.0242
 1049loPI   C5A15431   8.082   3.324   7.929  0.2198  0.0581 -0.2626
 1049loPI   C6A15432   7.683   3.633   7.867  0.1367  0.0372 -0.3641
 1049loPI   C1B15433   7.954   2.513   6.858 -0.2382  0.1941 -0.1976
 1049loPI   C2B15434   8.084   2.453   7.285  0.2118 -0.1344 -0.0395
 1049loPI   C3B15435   8.002   2.596   7.686 -0.3054  0.0979 -0.0407
 1049loPI   C4B15436   8.342   2.365   7.931  0.0001 -0.2205  0.2698
 1050loPI    C115437  17.866  15.087   5.616 -0.0533 -0.0401 -0.0619
 1050loPI    C215438  17.976  15.472   5.622 -0.0412 -0.0439 -0.0286
 1050loPI    C315439  17.605  15.371   5.510  0.0416 -0.0438 -0.3107
 1050loPI   PO415440  17.938  14.938   5.835  0.0895  0.0222 -0.0192
 1050loPI   GL115441  17.977  14.977   6.177  0.1739 -0.0677  0.0797
 1050loPI   GL215442  18.097  15.380   6.088 -0.1734 -0.1355 -0.1347
 1050loPI   C1A15443  18.019  14.995   6.637 -0.0850  0.0839 -0.2514
 1050loPI   C2A15444  17.984  15.052   7.122 -0.0116  0.2909  0.3473
 1050loPI   C3A15445  18.024  15.141   7.532  0.1742  0.3346  0.0641
 1050loPI   C4A15446  17.881  15.172   7.922 -0.1477  0.2689 -0.2594
 1050loPI   C5A15447  17.675  14.831   8.231 -0.0183 -0.0655 -0.4876
 1050loPI   C6A15448  17.626  14.373   8.345  0.1218  0.0536 -0.0360
 1050loPI   C1B15449  18.258  15.461   6.499 -0.0683 -0.0183  0.0096
 1050loPI   C2B15450  18.246  15.482   7.098 -0.0756 -0.0586 -0.1054
 1050loPI   C3B15451  18.423  15.432   7.525  0.3691 -0.3008  0.2160
 1050loPI   C4B15452  18.286  15.467   7.931  0.0383 -0.2861 -0.2289
 1051loPI    C115453  11.944   1.469   4.998 -0.1233  0.0081 -0.1148
 1051loPI    C215454  12.016   1.860   4.955  0.0236  0.0280  0.2712
 1051loPI    C315455  12.320   1.601   4.965 -0.0888 -0.1459 -0.3620
 1051loPI   PO415456  11.704   1.506   5.214  0.2781 -0.0234 -0.0431
 1051loPI   GL115457  11.581   1.443   5.626 -0.0074  0.1857 -0.0858
 1051loPI   GL215458  11.727   1.164   5.896 -0.0290 -0.1887  0.0728
 1051loPI   C1A15459  11.753   1.730   5.998  0.0106 -0.3421  0.2104
 1051loPI   C2A15460  11.634   1.865   6.350  0.0311 -0.3027 -0.0424
 1051loPI   C3A15461  11.687   1.900   6.719  0.1504 -0.1071 -0.0751
 1051loPI   C4A15462  11.696   1.916   7.184  0.3271 -0.1476 -0.0186
 1051loPI   C5A15463  11.736   1.886   7.545  0.2449 -0.2060  0.3899
 1051loPI   C6A15464  11.921   1.985   7.946 -0.1198 -0.2109 -0.0410
 1051loPI   C1B15465  11.677   1.324   6.290  0.2044 -0.0350 -0.2135
 1051loPI   C2B15466  11.582   1.403   6.708  0.2352 -0.0713 -0.1106
 1051loPI   C3B15467  11.619   1.452   7.169 -0.0413  0.3869 -0.1477
 1051loPI   C4B15468  11.618   1.366   7.620 -0.2015 -0.0804 -0.2541
 1052loPI    C115469   8.310  17.494   5.424 -0.0139 -0.0998 -0.0161
 1052loPI    C215470   8.207  17.361   5.061  0.2851 -0.1178 -0.0968
 1052loPI    C315471   8.223  17.754   5.133 -0.2824 -0.1132  0.0495
 1052loPI   PO415472   8.558  17.450   5.466 -0.1432  0.0183 -0.0451
 1052loPI   GL115473   8.693  17.363   5.893  0.2318  0.2548  0.1733
 1052loPI   GL215474   8.431  17.562   5.998 -0.0251  0.1244  0.2469
 1052loPI   C1A15475   8.567  17.162   6.262 -0.1052  0.3389 -0.1065
 1052loPI   C2A15476   8.424  17.216   6.708 -0.0116  0.6032  0.0918
 1052loPI   C3A15477   8.615  17.429   7.063 -0.0076  0.0080  0.0404
 1052loPI   C4A15478   8.698  17.570   7.550 -0.1974 -0.0015  0.2007
 1052loPI   C5A15479   8.524  17.711   7.954 -0.3257 -0.1094 -0.1738
 1052loPI   C6A15480   8.453  17.593   8.252 -0.2793 -0.0974 -0.1614
 1052loPI   C1B15481   8.384  17.748   6.492 -0.0839  0.1884 -0.1123
 1052loPI   C2B15482   8.305  17.756   6.907 -0.0747  0.0540  0.0017
 1052loPI   C3B15483   8.335  17.807   7.287  0.2973  0.0456 -0.2169
 1052loPI   C4B15484   8.240  17.872   7.552  0.1010 -0.0481  0.0623
 1053loPI    C115485  16.536  13.978   5.421  0.0863  0.1261 -0.1222
 1053loPI    C215486  16.408  14.236   5.143  0.1429 -0.0044 -0.2708
 1053loPI    C315487  16.670  13.950   5.045  0.1096 -0.0956 -0.0990
 1053loPI   PO415488  16.340  13.942   5.579 -0.0667  0.0024  0.0091
 1053loPI   GL115489  16.019  13.990   5.858 -0.1399 -0.1149 -0.2112
 1053loPI   GL215490  16.222  13.871   6.076  0.2861  0.1141  0.0983
 1053loPI   C1A15491  15.682  13.872   6.053  0.0292  0.1008  0.1615
 1053loPI   C2A15492  15.401  13.820   6.532 -0.1350 -0.0561 -0.0693
 1053loPI   C3A15493  15.304  13.690   6.944 -0.0986 -0.0147 -0.0626
 1053loPI   C4A15494  15.135  13.805   7.370 -0.2303  0.0480  0.0474
 1053loPI   C5A15495  15.161  13.944   7.806  0.0281 -0.0349  0.0196
 1053loPI   C6A15496  15.137  14.146   7.992  0.1016  0.1152  0.0159
 1053loPI   C1B15497  15.955  13.858   6.444 -0.0198 -0.0650 -0.0165
 1053loPI   C2B15498  15.864  13.795   6.854  0.3257  0.0385  0.0145
 1053loPI   C3B15499  15.758  13.854   7.203 -0.1617 -0.1650 -0.2232
 1053loPI   C4B15500  15.503  13.537   7.463 -0.1617 -0.1134 -0.2340
 1054loPI    C115501   7.845   0.306   5.503  0.0420  0.2993 -0.0799
 1054loPI    C215502   7.805  -0.050   5.324  0.0785  0.2205  0.0671
 1054loPI    C315503   7.665   0.280   5.147 -0.0716  0.1160 -0.0110
 1054loPI   PO415504   7.776   0.238   5.763 -0.0601  0.0724 -0.0330
 1054loPI   GL115505   7.471   0.399   6.093  0.2443  0.3452 -0.2271
 1054loPI   GL215506   7.754   0.439   6.206 -0.1214  0.1244  0.1433
 1054loPI   C1A15507   7.384   0.276   6.579 -0.0836 -0.2181  0.1830
 1054loPI   C2A15508   7.149   0.283   6.933 -0.0442 -0.1708  0.1352
 1054loPI   C3A15509   6.856   0.093   7.254  0.0504  0.2897  0.2004
 1054loPI   C4A15510   6.686   0.128   7.727 -0.0237  0.2590  0.2205
 1054loPI   C5A15511   6.579   0.520   7.841 -0.0340 -0.1357  0.1217
 1054loPI   C6A15512   6.208   0.523   8.127  0.3725  0.0768  0.1515
 1054loPI   C1B15513   7.809   0.582   6.610 -0.3825 -0.1942  0.2444
 1054loPI   C2B15514   8.010   0.580   6.937  0.1698  0.0596  0.1658
 1054loPI   C3B15515   7.975   0.787   7.414  0.2403  0.0725 -0.3451
 1054loPI   C4B15516   7.615   0.666   7.661 -0.0334 -0.0059  0.0974
 1055loPI    C115517  14.592   0.278   5.304  0.1176  0.0365  0.0559
 1055loPI    C215518  14.270   0.510   5.259  0.1699  0.1070  0.0446
 1055loPI    C315519  14.275   0.143   5.100  0.1343  0.1435 -0.0414
 1055loPI   PO415520  14.674   0.401   5.560  0.0633 -0.2015  0.1588
 1055loPI   GL115521  14.383   0.552   5.938 -0.0425 -0.0760  0.2410
 1055loPI   GL215522  14.166   0.436   5.853 -0.3632  0.1770 -0.0264
 1055loPI   C1A15523  14.480   0.855   6.090  0.1437 -0.2869  0.0507
 1055loPI   C2A15524  14.596   0.882   6.482  0.2429 -0.2554 -0.0965
 1055loPI   C3A15525  14.710   1.016   6.893  0.0231  0.1033 -0.3122
 1055loPI   C4A15526  14.683   0.862   7.271 -0.0893  0.0625  0.1520
 1055loPI   C5A15527  14.473   0.646   7.651 -0.3130  0.2547  0.1012
 1055loPI   C6A15528  14.085   0.514   7.804 -0.1050 -0.2550  0.1586
 1055loPI   C1B15529  13.972   0.359   6.283 -0.1034  0.0339 -0.1326
 1055loPI   C2B15530  13.801   0.252   6.686 -0.2113 -0.1743  0.1427
 1055loPI   C3B15531  13.797   0.338   7.133 -0.0263  0.4260  0.1010
 1055loPI   C4B15532  14.085   0.586   7.314 -0.0183 -0.0532  0.0256
 1056loPI    C115533  11.649   9.454   5.047  0.4498  0.0527 -0.0096
 1056loPI    C215534  11.479   9.150   4.850  0.3506  0.0256  0.1164
 1056loPI    C315535  11.397   9.528   4.746  0.1137  0.0147  0.2560
 1056loPI   PO415536  11.696   9.332   5.273  0.3898  0.0133 -0.2171
 1056loPI   GL115537  11.960   9.460   5.614  0.0161 -0.1494  0.0431
 1056loPI   GL215538  12.124   9.465   5.895 -0.0900  0.0125 -0.0470
 1056loPI   C1A15539  11.596   9.383   5.888 -0.1941 -0.1834 -0.2153
 1056loPI   C2A15540  11.483   9.243   6.341 -0.2151  0.0434 -0.0814
 1056loPI   C3A15541  11.491   9.232   6.787  0.0531 -0.1849 -0.2357
 1056loPI   C4A15542  11.445   9.331   7.222 -0.0146  0.0537  0.0707
 1056loPI   C5A15543  11.522   9.482   7.580  0.2301  0.0485 -0.0124
 1056loPI   C6A15544  11.596   9.762   7.864  0.0710 -0.2682  0.0478
 1056loPI   C1B15545  12.042   9.372   6.239  0.1593 -0.1289 -0.3313
 1056loPI   C2B15546  11.986   9.338   6.649  0.1355 -0.1365  0.1140
 1056loPI   C3B15547  11.940   9.334   7.125  0.1044 -0.0699  0.2530
 1056loPI   C4B15548  11.989   9.544   7.436 -0.0287 -0.0713 -0.0426
 1057loPI    C115549   5.706   4.730   5.300 -0.0203  0.0539 -0.0322
 1057loPI    C215550   6.077   4.818   5.181  0.0484 -0.1446  0.0312
 1057loPI    C315551   5.898   4.486   5.049 -0.1041 -0.0546  0.0084
 1057loPI   PO415552   5.694   4.791   5.479 -0.1354  0.0568  0.1052
 1057loPI   GL115553   5.815   4.867   5.848  0.1026  0.3098 -0.0540
 1057loPI   GL215554   5.704   5.034   5.936  0.0954 -0.0592  0.1442
 1057loPI   C1A15555   5.994   4.661   6.223  0.0169 -0.1003 -0.0654
 1057loPI   C2A15556   6.061   4.624   6.639  0.1652  0.1491 -0.2167
 1057loPI   C3A15557   6.090   4.509   6.983 -0.0741  0.0195  0.0798
 1057loPI   C4A15558   6.085   4.367   7.291 -0.2275 -0.0079 -0.0282
 1057loPI   C5A15559   6.358   4.444   7.703  0.0034 -0.3174 -0.1524
 1057loPI   C6A15560   6.413   4.243   8.103  0.4732 -0.0439  0.1780
 1057loPI   C1B15561   5.719   5.112   6.386 -0.0649  0.0336  0.2238
 1057loPI   C2B15562   5.820   4.999   6.869  0.1838 -0.0483  0.0965
 1057loPI   C3B15563   6.006   4.916   7.251  0.3327  0.0488 -0.0645
 1057loPI   C4B15564   6.107   4.891   7.669 -0.0936 -0.0331  0.0378
 1058loPI    C115565  15.417   2.461   5.330  0.1979 -0.0020 -0.0646
 1058loPI    C215566  15.490   2.436   4.937 -0.2373 -0.0827 -0.1457
 1058loPI    C315567  15.618   2.148   5.183  0.1072  0.0084 -0.2129
 1058loPI   PO415568  15.524   2.732   5.397  0.1777 -0.0920 -0.3076
 1058loPI   GL115569  15.513   2.875   5.849 -0.3030  0.1104 -0.1073
 1058loPI   GL215570  15.522   2.502   5.894  0.0642  0.0123  0.0023
 1058loPI   C1A15571  15.577   2.799   6.319  0.0019 -0.1447  0.1015
 1058loPI   C2A15572  15.457   2.647   6.687  0.1808 -0.3059 -0.1573
 1058loPI   C3A15573  15.414   2.625   7.095 -0.3324 -0.1861  0.2111
 1058loPI   C4A15574  15.636   2.720   7.503  0.1527  0.2182  0.2800
 1058loPI   C5A15575  15.708   2.647   7.992 -0.2397  0.1406  0.1564
 1058loPI   C6A15576  15.530   2.976   8.139  0.0606 -0.1729 -0.0519
 1058loPI   C1B15577  15.170   2.545   6.130  0.4167  0.5917  0.1098
 1058loPI   C2B15578  14.967   2.497   6.527  0.0434 -0.0772  0.0369
 1058loPI   C3B15579  14.976   2.520   6.905 -0.1644 -0.2795  0.0397
 1058loPI   C4B15580  14.985   2.562   7.374 -0.0601  0.0934  0.0269
 1059loPI    C115581   8.605   0.428   5.423 -0.2557 -0.0713  0.2213
 1059loPI    C215582   8.613   0.091   5.208 -0.2111 -0.0194  0.1415
 1059loPI    C315583   8.894   0.370   5.153 -0.2258  0.0139  0.2350
 1059loPI   PO415584   8.358   0.341   5.621  0.3271  0.0247 -0.0130
 1059loPI   GL115585   8.238   0.346   6.022 -0.1142  0.1938 -0.1306
 1059loPI   GL215586   8.490   0.093   6.050 -0.0504 -0.0736 -0.1542
 1059loPI   C1A15587   8.179   0.324   6.482 -0.0235 -0.0728  0.0338
 1059loPI   C2A15588   8.428   0.275   6.847  0.1981 -0.4461 -0.2641
 1059loPI   C3A15589   8.377   0.369   7.269  0.3481 -0.2278  0.0663
 1059loPI   C4A15590   8.206   0.383   7.720  0.1106 -0.0875 -0.1941
 1059loPI   C5A15591   7.921   0.408   8.118  0.3791  0.1860  0.1616
 1059loPI   C6A15592   7.861   0.823   8.165  0.0395 -0.2785  0.2401
 1059loPI   C1B15593   8.682   0.324   6.424 -0.0537 -0.1301 -0.1171
 1059loPI   C2B15594   8.914   0.359   6.810  0.0218  0.0462  0.1476
 1059loPI   C3B15595   8.964   0.602   7.122  0.2061  0.0641  0.0228
 1059loPI   C4B15596   9.010   0.462   7.516 -0.3171 -0.1149 -0.0352
 1060loPI    C115597  14.816  15.375   5.132  0.1803  0.1665 -0.0228
 1060loPI    C215598  14.444  15.471   5.020  0.0634 -0.1442  0.0854
 1060loPI    C315599  14.732  15.433   4.745  0.0765  0.3330  0.0237
 1060loPI   PO415600  14.806  15.044   5.340 -0.0925  0.1853 -0.1535
 1060loPI   GL115601  14.923  14.874   5.719 -0.0736 -0.0044 -0.0615
 1060loPI   GL215602  15.259  14.842   5.778 -0.2489 -0.2465  0.1425
 1060loPI   C1A15603  14.898  15.175   5.989 -0.2000 -0.1243 -0.0249
 1060loPI   C2A15604  15.049  15.263   6.334 -0.1010  0.0828  0.0570
 1060loPI   C3A15605  14.960  15.092   6.814  0.1331 -0.0079  0.1621
 1060loPI   C4A15606  15.131  15.169   7.159  0.0318  0.0022  0.0501
 1060loPI   C5A15607  15.128  15.187   7.609 -0.1307 -0.1140 -0.1972
 1060loPI   C6A15608  14.962  15.345   7.987  0.1135 -0.0764 -0.2046
 1060loPI   C1B15609  15.038  14.690   6.149 -0.3917 -0.2291 -0.0463
 1060loPI   C2B15610  14.699  14.904   6.379  0.6172  0.1175  0.0349
 1060loPI   C3B15611  14.412  14.961   6.663 -0.2503 -0.1404 -0.5941
 1060loPI   C4B15612  14.225  15.081   7.010 -0.0425 -0.0397 -0.2212
 1061loPI    C115613   2.627  13.912   5.706 -0.1106  0.2998  0.0863
 1061loPI    C215614   2.999  13.802   5.802 -0.1314  0.1843  0.0364
 1061loPI    C315615   2.907  14.190   5.771  0.0008  0.2123 -0.0144
 1061loPI   PO415616   2.394  13.820   5.879  0.0634  0.3097  0.0861
 1061loPI   GL115617   2.229  13.861   6.338 -0.0219  0.1982 -0.2998
 1061loPI   GL215618   1.997  14.030   6.267  0.1747 -0.0079 -0.2597
 1061loPI   C1A15619   2.345  14.024   6.691 -0.3824 -0.1682 -0.0309
 1061loPI   C2A15620   2.301  13.929   7.136 -0.1568  0.1648 -0.0953
 1061loPI   C3A15621   2.264  14.030   7.467  0.0543 -0.2073 -0.1207
 1061loPI   C4A15622   2.133  13.932   7.933 -0.1583  0.1879  0.1024
 1061loPI   C5A15623   1.903  13.718   8.210 -0.0589  0.0162 -0.0471
 1061loPI   C6A15624   2.043  13.363   8.533 -0.1475 -0.2017 -0.2012
 1061loPI   C1B15625   1.804  14.210   6.667 -0.3851 -0.0150  0.0865
 1061loPI   C2B15626   1.789  14.112   7.131  0.0507 -0.0137  0.0674
 1061loPI   C3B15627   1.764  14.242   7.567  0.0326  0.3565  0.2295
 1061loPI   C4B15628   1.858  14.380   7.988 -0.2073 -0.0043 -0.1598
 1062loPI    C115629   8.085   5.558   5.312  0.0916  0.2194  0.0496
 1062loPI    C215630   7.940   5.929   5.349 -0.1053  0.1899 -0.3677
 1062loPI    C315631   7.694   5.616   5.375  0.1073  0.0639  0.3008
 1062loPI   PO415632   8.312   5.602   5.496 -0.1512 -0.1543  0.1464
 1062loPI   GL115633   8.468   5.797   5.785 -0.1638  0.0107  0.0305
 1062loPI   GL215634   8.339   6.039   5.945 -0.1200 -0.1140  0.4949
 1062loPI   C1A15635   8.600   5.561   6.150  0.0763  0.1064  0.0241
 1062loPI   C2A15636   8.628   5.743   6.556  0.0263 -0.0876 -0.2966
 1062loPI   C3A15637   8.693   5.732   6.955 -0.0875  0.1946  0.1463
 1062loPI   C4A15638   8.730   5.849   7.297 -0.0167  0.2092 -0.0512
 1062loPI   C5A15639   8.681   5.873   7.740  0.0356 -0.0347 -0.1835
 1062loPI   C6A15640   8.471   6.008   8.070 -0.0517 -0.2545 -0.1933
 1062loPI   C1B15641   8.391   6.179   6.339  0.0767  0.0971 -0.1024
 1062loPI   C2B15642   8.483   6.245   6.743 -0.0246 -0.0848  0.3708
 1062loPI   C3B15643   8.493   6.263   7.179  0.0354  0.0353  0.0637
 1062loPI   C4B15644   8.554   6.345   7.586  0.1387  0.1399 -0.1849
 1063loPI    C115645   3.948   9.473   5.578  0.0909 -0.1023  0.0502
 1063loPI    C215646   3.735   9.245   5.328  0.4100 -0.2411 -0.1006
 1063loPI    C315647   3.848   9.612   5.217  0.2216 -0.1528 -0.0058
 1063loPI   PO415648   4.097   9.335   5.691  0.0781 -0.2006  0.1039
 1063loPI   GL115649   4.236   9.302   6.165  0.1810  0.0601  0.0597
 1063loPI   GL215650   4.244   8.974   6.037  0.0035 -0.0549  0.1400
 1063loPI   C1A15651   4.196   9.384   6.602 -0.1727 -0.0811 -0.0198
 1063loPI   C2A15652   4.400   9.406   7.031  0.2200  0.2698  0.2702
 1063loPI   C3A15653   4.713   9.474   7.442  0.2370  0.1061 -0.1913
 1063loPI   C4A15654   5.055   9.470   7.793 -0.0533  0.1595  0.0735
 1063loPI   C5A15655   5.399   9.532   8.100  0.1701  0.2305 -0.0219
 1063loPI   C6A15656   5.642   9.712   8.332 -0.1917 -0.0269  0.0770
 1063loPI   C1B15657   4.362   8.896   6.493 -0.1325  0.1478 -0.2677
 1063loPI   C2B15658   4.305   8.938   6.954  0.1508  0.1668  0.4508
 1063loPI   C3B15659   4.277   8.783   7.373  0.0302 -0.3324 -0.0496
 1063loPI   C4B15660   4.297   8.740   7.819  0.2599 -0.2861 -0.0388
 1064loPI    C115661  10.146   9.336   5.395  0.0633 -0.0393 -0.0166
 1064loPI    C215662  10.427   9.205   5.142 -0.0058  0.0450 -0.1385
 1064loPI    C315663  10.093   9.372   5.000  0.0171  0.2214  0.0116
 1064loPI   PO415664  10.316   9.455   5.580  0.0087  0.3665 -0.2943
 1064loPI   GL115665  10.588   9.252   5.863  0.0754  0.0506  0.1808
 1064loPI   GL215666  10.694   9.591   5.887  0.0092 -0.0136  0.0859
 1064loPI   C1A15667  10.566   9.153   6.320  0.3318  0.1941 -0.0487
 1064loPI   C2A15668  10.627   9.110   6.766 -0.2301 -0.1179  0.2090
 1064loPI   C3A15669  10.570   8.958   7.106 -0.0873 -0.0730  0.2139
 1064loPI   C4A15670  10.723   8.630   7.411  0.3166 -0.2870  0.1245
 1064loPI   C5A15671  10.632   8.444   7.784 -0.3063 -0.0491 -0.1586
 1064loPI   C6A15672  10.752   8.118   7.994  0.3158  0.1370  0.1164
 1064loPI   C1B15673  10.851   9.602   6.316  0.3796  0.1076 -0.0600
 1064loPI   C2B15674  10.850   9.537   6.710 -0.1337 -0.1403 -0.3906
 1064loPI   C3B15675  10.819   9.414   7.120 -0.2783  0.0555  0.0247
 1064loPI   C4B15676  10.867   9.157   7.447  0.0670  0.2422  0.0015
 1065loPI    C115677   9.795  12.730   5.825  0.0164  0.0351  0.2077
 1065loPI    C215678   9.969  12.374   5.877  0.1193  0.0647  0.0706
 1065loPI    C315679   9.643  12.406   5.647  0.0219  0.0350  0.2031
 1065loPI   PO415680   9.822  12.831   6.037 -0.2180 -0.1944 -0.0847
 1065loPI   GL115681   9.789  13.017   6.386 -0.0824  0.0237 -0.1907
 1065loPI   GL215682  10.199  13.119   6.544 -0.1826 -0.0194 -0.2130
 1065loPI   C1A15683   9.836  13.048   6.855  0.0344  0.0257 -0.0764
 1065loPI   C2A15684   9.782  12.900   7.419  0.0252 -0.0181 -0.0236
 1065loPI   C3A15685   9.860  12.888   7.814 -0.0914 -0.0402  0.2456
 1065loPI   C4A15686   9.906  13.048   8.273  0.3731 -0.1578 -0.2252
 1065loPI   C5A15687   9.921  12.618   8.495 -0.0616 -0.1129  0.2417
 1065loPI   C6A15688   9.847  12.623   8.863  0.1252 -0.0118  0.0111
 1065loPI   C1B15689  10.330  13.048   7.042 -0.1220 -0.0742  0.0406
 1065loPI   C2B15690  10.392  12.817   7.434  0.1436  0.1168  0.2245
 1065loPI   C3B15691  10.396  12.580   7.906 -0.0072  0.0827 -0.0525
 1065loPI   C4B15692  10.678  12.329   8.242 -0.0419  0.0674  0.2848
 1066loPI    C115693   8.521  10.239   6.080  0.0778  0.2259  0.3681
 1066loPI    C215694   8.776  10.213   5.773 -0.2802 -0.1330  0.0902
 1066loPI    C315695   8.912  10.186   6.149  0.1078 -0.1411 -0.0461
 1066loPI   PO415696   8.330  10.010   6.055 -0.1421 -0.0139 -0.2475
 1066loPI   GL115697   8.092   9.770   6.359 -0.1031 -0.1030  0.2665
 1066loPI   GL215698   7.779   9.955   6.397 -0.0013 -0.3011 -0.2285
 1066loPI   C1A15699   8.308   9.681   6.799  0.2430  0.0013  0.1107
 1066loPI   C2A15700   8.520   9.647   7.200  0.0492 -0.4284 -0.1878
 1066loPI   C3A15701   8.663   9.556   7.550 -0.1628 -0.0749 -0.2086
 1066loPI   C4A15702   8.734   9.129   7.662  0.0243 -0.0879  0.4419
 1066loPI   C5A15703   8.925   8.752   7.880  0.3366  0.0119 -0.0831
 1066loPI   C6A15704   9.087   8.317   8.095 -0.0717 -0.3605 -0.2200
 1066loPI   C1B15705   7.632   9.818   6.793  0.2155  0.3616  0.0863
 1066loPI   C2B15706   7.603   9.918   7.180 -0.4632 -0.0591 -0.0947
 1066loPI   C3B15707   7.780   9.985   7.637  0.1115  0.4927  0.1253
 1066loPI   C4B15708   7.818   9.855   7.999  0.2203  0.0846 -0.1762
 1067loPI    C115709  17.244  16.266   5.284  0.0833  0.0925  0.1940
 1067loPI    C215710  17.537  16.188   5.023 -0.3047 -0.2107 -0.1651
 1067loPI    C315711  17.156  16.124   4.921 -0.4838 -0.0903  0.3928
 1067loPI   PO415712  17.422  16.241   5.480  0.0920  0.2103 -0.0695
 1067loPI   GL115713  17.429  16.274   5.892  0.1173  0.1362  0.3613
 1067loPI   GL215714  17.711  16.168   6.145  0.2206 -0.0155  0.1098
 1067loPI   C1A15715  17.304  16.415   6.286  0.0160 -0.2140  0.0081
 1067loPI   C2A15716  17.126  16.241   6.710 -0.0558  0.2787  0.1432
 1067loPI   C3A15717  17.195  16.141   7.062 -0.0469 -0.1067  0.1415
 1067loPI   C4A15718  17.460  15.924   7.255  0.1042  0.1963  0.0040
 1067loPI   C5A15719  17.461  15.714   7.674 -0.2344  0.1465 -0.0503
 1067loPI   C6A15720  17.446  15.926   8.088 -0.0932 -0.2065 -0.1853
 1067loPI   C1B15721  17.706  16.284   6.584  0.1634  0.2449  0.4168
 1067loPI   C2B15722  17.643  16.290   6.907  0.0270  0.1887  0.1940
 1067loPI   C3B15723  17.698  16.348   7.272  0.4103  0.2041  0.0199
 1067loPI   C4B15724  17.724  16.149   7.679 -0.1594 -0.0120 -0.1898
 1068loPI    C115725   8.001   9.739   5.749  0.4701 -0.1239  0.0170
 1068loPI    C215726   7.784   9.529   5.486 -0.0238  0.1378  0.2018
 1068loPI    C315727   7.969   9.864   5.370 -0.0811  0.1495  0.1440
 1068loPI   PO415728   7.795   9.664   5.978 -0.3274  0.1775  0.0190
 1068loPI   GL115729   7.921   9.190   6.080  0.1082  0.1945 -0.1004
 1068loPI   GL215730   8.153   8.945   6.200 -0.1429 -0.0465  0.1533
 1068loPI   C1A15731   7.747   8.931   6.497  0.1218 -0.1341 -0.0004
 1068loPI   C2A15732   7.528   8.996   6.930 -0.2443 -0.2208  0.1258
 1068loPI   C3A15733   7.472   9.411   7.162  0.4495  0.3608  0.0380
 1068loPI   C4A15734   7.466   9.546   7.527 -0.1284 -0.0076  0.2386
 1068loPI   C5A15735   7.273   9.737   7.732 -0.1563  0.0308 -0.3435
 1068loPI   C6A15736   7.083   9.850   8.112 -0.2273 -0.2237 -0.0655
 1068loPI   C1B15737   8.124   9.246   6.537  0.1311 -0.1533 -0.1267
 1068loPI   C2B15738   7.859   9.347   6.893 -0.2130 -0.1463 -0.1615
 1068loPI   C3B15739   7.928   9.571   7.232 -0.2696 -0.1020  0.1020
 1068loPI   C4B15740   8.198   9.738   7.567 -0.2323 -0.0553  0.0739
 1069loPI    C115741  16.051   8.632   5.321 -0.3512  0.0521  0.0699
 1069loPI    C215742  16.127   8.900   5.033 -0.2667  0.0190  0.0613
 1069loPI    C315743  15.994   8.535   4.937  0.3512 -0.2064  0.0160
 1069loPI   PO415744  16.178   8.605   5.550 -0.1067  0.1139  0.0652
 1069loPI   GL115745  16.223   8.407   5.918  0.2548 -0.0165 -0.2105
 1069loPI   GL215746  15.822   8.604   5.972  0.1075 -0.0155  0.1897
 1069loPI   C1A15747  15.949   8.284   6.298 -0.2981 -0.0543 -0.2221
 1069loPI   C2A15748  15.879   8.344   6.659  0.1873  0.0134  0.2928
 1069loPI   C3A15749  15.821   8.259   7.017  0.0585  0.1409  0.0287
 1069loPI   C4A15750  15.875   8.269   7.430  0.0901  0.1022  0.0796
 1069loPI   C5A15751  15.885   8.103   7.824 -0.0321  0.1901 -0.1329
 1069loPI   C6A15752  15.956   7.660   8.111 -0.0128  0.1820  0.3719
 1069loPI   C1B15753  16.041   8.748   6.408 -0.1526 -0.1412 -0.2212
 1069loPI   C2B15754  16.139   8.970   6.835  0.3880  0.1643 -0.1056
 1069loPI   C3B15755  16.250   8.620   7.153 -0.0715 -0.1577 -0.1671
 1069loPI   C4B15756  16.589   8.703   7.441  0.0310 -0.2095  0.1063
 1070loPI    C115757   9.743  14.393   6.087 -0.0896  0.1048 -0.1094
 1070loPI    C215758   9.626  14.308   5.714 -0.1674  0.1473 -0.0948
 1070loPI    C315759   9.420  14.166   6.026  0.1275 -0.2238 -0.0621
 1070loPI   PO415760   9.964  14.304   6.056 -0.1657 -0.1806 -0.0055
 1070loPI   GL115761  10.247  14.239   6.479 -0.2426 -0.1910  0.0408
 1070loPI   GL215762   9.936  14.439   6.520 -0.2609 -0.2455  0.3134
 1070loPI   C1A15763   9.999  14.034   6.835 -0.5683 -0.2255  0.0820
 1070loPI   C2A15764  10.109  13.898   7.242 -0.0602 -0.4921  0.1897
 1070loPI   C3A15765  10.026  13.948   7.573 -0.2706  0.2100  0.1443
 1070loPI   C4A15766  10.116  14.236   7.970  0.2250 -0.0928 -0.4638
 1070loPI   C5A15767   9.879  14.586   8.201 -0.0561 -0.1200 -0.0801
 1070loPI   C6A15768   9.601  14.882   8.365 -0.0690 -0.0353  0.0476
 1070loPI   C1B15769   9.735  14.608   6.902 -0.2469  0.1643 -0.2071
 1070loPI   C2B15770   9.837  14.686   7.364  0.1501  0.0447 -0.1519
 1070loPI   C3B15771   9.840  14.902   7.738  0.0151  0.1946 -0.1221
 1070loPI   C4B15772   9.880  15.174   7.991 -0.2072 -0.0642 -0.0089
 1071loPI    C115773  16.327  10.487   5.207 -0.0033 -0.1044  0.1365
 1071loPI    C215774  15.953  10.430   5.076 -0.0566 -0.0083  0.2457
 1071loPI    C315775  16.260  10.262   4.883 -0.1554 -0.0811  0.1509
 1071loPI   PO415776  16.324  10.527   5.519 -0.1941  0.2858 -0.2244
 1071loPI   GL115777  16.411  10.815   5.836  0.1658 -0.1743  0.2538
 1071loPI   GL215778  16.237  11.107   5.766  0.0598 -0.1854 -0.0546
 1071loPI   C1A15779  16.279  10.748   6.164 -0.0448  0.2798  0.0627
 1071loPI   C2A15780  16.224  10.726   6.606 -0.1024  0.0961  0.0759
 1071loPI   C3A15781  16.044  10.402   6.866 -0.2337 -0.0514  0.0917
 1071loPI   C4A15782  16.112  10.028   7.219  0.1618 -0.1271  0.0634
 1071loPI   C5A15783  16.122   9.757   7.437  0.3285  0.2221 -0.1922
 1071loPI   C6A15784  16.003   9.532   7.847  0.2187 -0.0682  0.1398
 1071loPI   C1B15785  15.907  11.048   6.079 -0.0200  0.0390 -0.1537
 1071loPI   C2B15786  15.747  10.839   6.409  0.0545  0.0112 -0.2452
 1071loPI   C3B15787  15.639  10.542   6.642 -0.0601  0.1693  0.0965
 1071loPI   C4B15788  15.481  10.576   7.111  0.0872  0.0123 -0.0324
 1072loPI    C115789   8.377   7.212   5.193 -0.0103 -0.1818 -0.0045
 1072loPI    C215790   8.687   7.406   5.032  0.1593 -0.3636  0.0986
 1072loPI    C315791   8.456   7.174   4.803  0.0588 -0.1768  0.0089
 1072loPI   PO415792   8.227   7.353   5.393 -0.0530 -0.0277 -0.1076
 1072loPI   GL115793   8.129   7.461   5.825  0.0421 -0.2774 -0.0790
 1072loPI   GL215794   8.470   7.666   5.858 -0.5045  0.1533 -0.1228
 1072loPI   C1A15795   8.328   7.433   6.254 -0.1848  0.0478 -0.0030
 1072loPI   C2A15796   8.345   7.464   6.686 -0.2765  0.2230  0.0487
 1072loPI   C3A15797   8.383   7.514   7.108  0.3370  0.1501 -0.2063
 1072loPI   C4A15798   8.398   7.556   7.538 -0.0456  0.0803  0.1277
 1072loPI   C5A15799   8.540   7.507   7.960 -0.0511  0.0636  0.6661
 1072loPI   C6A15800   8.170   7.486   8.361 -0.1218  0.6092  0.0226
 1072loPI   C1B15801   8.610   7.921   6.140 -0.0065  0.2034  0.0444
 1072loPI   C2B15802   8.576   8.058   6.561  0.0607  0.1465  0.0557
 1072loPI   C3B15803   8.682   7.932   6.919  0.0723  0.2433  0.2539
 1072loPI   C4B15804   8.606   8.001   7.374 -0.1209  0.0082  0.1651
 1073loPI    C115805   1.392  16.404   5.744  0.0616 -0.1676 -0.0401
 1073loPI    C215806   1.277  16.023   5.783  0.0682 -0.1782 -0.1225
 1073loPI    C315807   1.210  16.217   5.440  0.0442 -0.0981 -0.0727
 1073loPI   PO415808   1.737  16.384   5.871  0.1605  0.1231  0.1912
 1073loPI   GL115809   1.904  16.395   6.280 -0.0475  0.0438 -0.1165
 1073loPI   GL215810   2.109  16.128   6.392 -0.0481  0.0959 -0.3920
 1073loPI   C1A15811   1.626  16.449   6.608 -0.0784 -0.0337  0.0323
 1073loPI   C2A15812   1.515  16.309   7.006  0.1865  0.0392 -0.1266
 1073loPI   C3A15813   1.388  16.102   7.352  0.0323  0.1366 -0.2902
 1073loPI   C4A15814   1.246  16.160   7.797 -0.1539  0.1080  0.0247
 1073loPI   C5A15815   0.964  16.305   8.142  0.1926  0.1612 -0.1045
 1073loPI   C6A15816   0.483  16.325   8.277 -0.2857 -0.2350  0.2783
 1073loPI   C1B15817   1.985  16.147   6.839  0.0058  0.1761 -0.2264
 1073loPI   C2B15818   1.967  16.109   7.361  0.1565  0.1543 -0.1963
 1073loPI   C3B15819   1.717  16.186   7.712  0.2164 -0.0687  0.1331
 1073loPI   C4B15820   1.712  15.983   8.049  0.1192  0.0362  0.0281
 1074loPI    C115821   8.197   9.168   5.595 -0.1352  0.0887  0.0793
 1074loPI    C215822   7.973   9.140   5.264  0.0792  0.0470 -0.0649
 1074loPI    C315823   8.263   9.415   5.287  0.0790  0.0361  0.0815
 1074loPI   PO415824   8.171   8.854   5.692  0.1779 -0.2179 -0.2093
 1074loPI   GL115825   8.282   8.475   5.998 -0.1160 -0.0728  0.0565
 1074loPI   GL215826   8.590   8.505   5.987 -0.0314  0.1863  0.3502
 1074loPI   C1A15827   7.946   8.408   6.336  0.2223  0.1988  0.0294
 1074loPI   C2A15828   7.950   8.397   6.706 -0.1111 -0.0345 -0.5389
 1074loPI   C3A15829   7.919   8.735   6.981 -0.1622 -0.2250  0.0622
 1074loPI   C4A15830   7.821   9.024   7.311  0.0145  0.2434 -0.2320
 1074loPI   C5A15831   7.917   9.276   7.675  0.2287  0.0115  0.1182
 1074loPI   C6A15832   8.326   9.456   7.957  0.4678 -0.3503  0.4032
 1074loPI   C1B15833   8.482   8.610   6.413 -0.2313 -0.2902 -0.1903
 1074loPI   C2B15834   8.421   8.841   6.803 -0.1655  0.0819  0.0723
 1074loPI   C3B15835   8.278   9.106   7.065  0.0729  0.0718  0.1052
 1074loPI   C4B15836   8.308   9.142   7.438 -0.1084 -0.0095  0.1298
 1075loPI    C115837   7.197  13.397   5.985  0.2421 -0.1246 -0.0570
 1075loPI    C215838   6.841  13.326   6.152  0.2660  0.0946  0.0899
 1075loPI    C315839   6.962  13.108   5.840  0.0610 -0.0697  0.1234
 1075loPI   PO415840   7.342  13.442   6.183  0.0136 -0.0076  0.1162
 1075loPI   GL115841   7.644  13.298   6.373  0.2199 -0.1847  0.1436
 1075loPI   GL215842   7.754  13.024   6.392 -0.2128 -0.5485  0.0823
 1075loPI   C1A15843   7.585  13.516   6.779 -0.1071  0.0767 -0.1716
 1075loPI   C2A15844   7.772  13.551   7.143 -0.1475 -0.4390 -0.1243
 1075loPI   C3A15845   8.083  13.585   7.492  0.0564  0.1520  0.0215
 1075loPI   C4A15846   8.255  13.765   7.965 -0.0252  0.0357 -0.1330
 1075loPI   C5A15847   8.508  14.048   8.318 -0.3177  0.0251  0.0184
 1075loPI   C6A15848   8.734  14.087   8.677 -0.0950 -0.1600 -0.2571
 1075loPI   C1B15849   7.608  13.026   6.834  0.1754  0.0970 -0.0686
 1075loPI   C2B15850   7.697  13.012   7.223 -0.2010 -0.2812 -0.0809
 1075loPI   C3B15851   7.660  13.278   7.659 -0.3512 -0.1955 -0.2052
 1075loPI   C4B15852   7.874  13.398   7.960 -0.0079  0.0781 -0.1180
 1076loPI    C115853   4.738  12.610   5.433  0.0814  0.0467  0.1742
 1076loPI    C215854   5.124  12.707   5.394  0.0578 -0.0421 -0.3565
 1076loPI    C315855   5.021  12.371   5.585  0.2121  0.2012  0.1763
 1076loPI   PO415856   4.671  12.867   5.489 -0.0317 -0.0631 -0.1451
 1076loPI   GL115857   4.962  12.936   5.839  0.1103  0.2065 -0.0162
 1076loPI   GL215858   4.941  12.702   6.013  0.1759 -0.2546  0.0724
 1076loPI   C1A15859   4.810  13.107   6.259  0.0468 -0.1487  0.4109
 1076loPI   C2A15860   4.797  12.885   6.629 -0.2839 -0.0917  0.2897
 1076loPI   C3A15861   4.773  12.824   6.998 -0.1294  0.3150 -0.0314
 1076loPI   C4A15862   4.759  12.865   7.424 -0.0780 -0.2230 -0.1735
 1076loPI   C5A15863   4.914  12.960   7.843 -0.0074 -0.1681  0.2445
 1076loPI   C6A15864   5.039  13.060   8.256 -0.0997 -0.2110  0.0404
 1076loPI   C1B15865   5.025  12.445   6.400  0.2288 -0.1852 -0.0392
 1076loPI   C2B15866   4.841  12.328   6.840 -0.1763  0.1599  0.1244
 1076loPI   C3B15867   4.730  12.356   7.257 -0.1270 -0.0906  0.0327
 1076loPI   C4B15868   4.829  12.407   7.647  0.0171 -0.0927 -0.1642
 1077loPI    C115869  15.715  10.057   5.554 -0.0214 -0.1064  0.0294
 1077loPI    C215870  16.011   9.872   5.749 -0.0617 -0.0948  0.1022
 1077loPI    C315871  16.079  10.035   5.390 -0.0050 -0.1778  0.0749
 1077loPI   PO415872  15.511  10.276   5.723  0.1535 -0.1141 -0.1834
 1077loPI   GL115873  15.615  10.451   6.070  0.2431 -0.0307  0.0187
 1077loPI   GL215874  15.284  10.521   6.136  0.0028  0.1180  0.4779
 1077loPI   C1A15875  15.985  10.312   6.371 -0.0403  0.1518  0.3854
 1077loPI   C2A15876  16.137   9.934   6.706  0.0340 -0.2388  0.4630
 1077loPI   C3A15877  16.412   9.699   6.990 -0.0758  0.2123 -0.1820
 1077loPI   C4A15878  16.610   9.615   7.329 -0.0686 -0.2275 -0.2321
 1077loPI   C5A15879  16.912   9.594   7.713  0.4185  0.1423  0.0683
 1077loPI   C6A15880  17.174   9.656   8.135 -0.0957  0.2521  0.1843
 1077loPI   C1B15881  15.010  10.539   6.448 -0.2546  0.2130  0.1127
 1077loPI   C2B15882  14.945  10.653   6.950  0.0079 -0.0832 -0.0018
 1077loPI   C3B15883  15.038  10.889   7.188  0.0189  0.6016 -0.1108
 1077loPI   C4B15884  14.938  11.093   7.671 -0.3039  0.0500 -0.0084
 1078loPI    C115885   9.236   5.342   5.144  0.2581 -0.0416 -0.2462
 1078loPI    C215886   9.021   5.360   4.807 -0.0246  0.0070 -0.0664
 1078loPI    C315887   9.414   5.287   4.790 -0.0697 -0.1773 -0.3937
 1078loPI   PO415888   9.144   5.527   5.287 -0.0509  0.1477  0.1384
 1078loPI   GL115889   9.243   5.689   5.774 -0.0980  0.0361  0.1493
 1078loPI   GL215890   9.369   5.926   5.773 -0.0201 -0.1288 -0.0055
 1078loPI   C1A15891   9.086   5.637   6.183 -0.0077 -0.2327 -0.1678
 1078loPI   C2A15892   9.141   5.654   6.592  0.1141 -0.0006  0.2072
 1078loPI   C3A15893   9.192   5.737   7.085  0.0389  0.0160  0.0680
 1078loPI   C4A15894   9.151   5.767   7.561  0.1819 -0.2750 -0.1890
 1078loPI   C5A15895   9.459   5.661   7.874 -0.0934 -0.1374 -0.2096
 1078loPI   C6A15896   9.482   5.841   8.310 -0.0406 -0.0355 -0.1590
 1078loPI   C1B15897   9.338   6.036   6.163 -0.2459 -0.0249 -0.0215
 1078loPI   C2B15898   9.353   6.069   6.612 -0.0622  0.0730  0.0328
 1078loPI   C3B15899   9.479   6.174   6.975 -0.0731  0.1475  0.1962
 1078loPI   C4B15900   9.569   6.032   7.372  0.2998  0.1057  0.1661
 1079loPI    C115901   7.406  12.858   5.954  0.1933 -0.3546 -0.3500
 1079loPI    C215902   7.671  13.155   5.919 -0.0640 -0.0808 -0.0481
 1079loPI    C315903   7.409  13.085   5.625 -0.0277  0.0166 -0.1044
 1079loPI   PO415904   7.281  12.894   6.274 -0.0533 -0.2166 -0.0303
 1079loPI   GL115905   7.178  12.529   6.565  0.2556 -0.1504 -0.1404
 1079loPI   GL215906   7.484  12.627   6.617  0.1283  0.0474  0.0438
 1079loPI   C1A15907   6.827  12.744   6.758 -0.2590  0.0928  0.1953
 1079loPI   C2A15908   6.744  12.752   7.114 -0.0384  0.1473  0.2081
 1079loPI   C3A15909   6.830  12.821   7.495 -0.1777 -0.0238  0.0740
 1079loPI   C4A15910   6.712  12.868   7.915  0.1981  0.1284 -0.0214
 1079loPI   C5A15911   6.333  12.880   8.213  0.0496 -0.1297  0.1387
 1079loPI   C6A15912   5.829  13.073   8.384  0.0842  0.1902 -0.1982
 1079loPI   C1B15913   7.397  12.638   7.132  0.0225 -0.3230  0.1049
 1079loPI   C2B15914   7.474  12.775   7.546  0.1635 -0.0816  0.1464
 1079loPI   C3B15915   7.226  12.566   7.936 -0.1475  0.2121 -0.0124
 1079loPI   C4B15916   7.178  12.241   8.257 -0.0018 -0.0489  0.1553
 1080POPI    C115917   3.864   7.622   5.532  0.0843 -0.0596  0.1401
 1080POPI    C215918   3.664   7.828   5.254  0.2260 -0.1367 -0.0210
 1080POPI    C315919   3.608   7.433   5.289 -0.0848 -0.0674  0.3221
 1080POPI   PO415920   3.843   7.811   5.808 -0.1697 -0.0362  0.1810
 1080POPI   GL115921   4.119   8.071   6.094 -0.4447 -0.3067  0.1662
 1080POPI   GL215922   3.943   7.944   6.258  0.0900 -0.1039  0.1177
 1080POPI   C1A15923   4.243   8.434   6.336  0.2476 -0.1858 -0.2361
 1080POPI   D2A15924   4.082   8.542   6.712  0.0798 -0.0636 -0.2626
 1080POPI   C3A15925   4.110   8.366   7.156  0.0151  0.2038  0.0123
 1080POPI   C4A15926   4.102   8.300   7.579 -0.3679 -0.2044  0.1989
 1080POPI   C1B15927   3.991   8.051   6.768 -0.1258  0.2921  0.0309
 1080POPI   C2B15928   3.918   7.919   7.274 -0.4929  0.0696  0.1317
 1080POPI   C3B15929   3.893   7.753   7.753  0.2623 -0.1735  0.0586
 1080POPI   C4B15930   4.060   7.434   7.999 -0.2574  0.1031  0.2448
 1081POPI    C115931   9.940   5.076   5.618  0.2336 -0.0307 -0.3112
 1081POPI    C215932   9.740   4.749   5.505  0.1189 -0.1099  0.1032
 1081POPI    C315933   9.704   5.087   5.295 -0.2014 -0.2104 -0.0096
 1081POPI   PO415934  10.264   4.982   5.514  0.1255 -0.1117 -0.1210
 1081POPI   GL115935  10.580   4.883   5.836 -0.3109 -0.2740  0.2853
 1081POPI   GL215936  10.660   5.100   6.019  0.1152  0.1557 -0.3124
 1081POPI   C1A15937  10.633   4.617   6.192  0.1685 -0.2520 -0.1078
 1081POPI   D2A15938  10.742   4.521   6.670 -0.0507  0.0151 -0.0252
 1081POPI   C3A15939  10.659   4.792   7.050 -0.2352 -0.0320 -0.1261
 1081POPI   C4A15940  10.540   5.069   7.310  0.1120  0.1352 -0.0473
 1081POPI   C1B15941  10.817   5.319   6.309  0.2580  0.2738 -0.0800
 1081POPI   C2B15942  10.729   5.625   6.623  0.0769 -0.3129 -0.0423
 1081POPI   C3B15943  10.737   5.684   7.052 -0.1173 -0.1294 -0.0730
 1081POPI   C4B15944  10.719   5.836   7.462  0.1357  0.1088  0.3865
 1082POPI    C115945   9.672   9.471   5.299 -0.1165 -0.0201  0.0575
 1082POPI    C215946   9.545   9.834   5.409 -0.0699 -0.0175  0.1028
 1082POPI    C315947   9.928   9.778   5.307 -0.1599  0.0282 -0.2749
 1082POPI   PO415948   9.614   9.298   5.490  0.1692 -0.1406  0.0835
 1082POPI   GL115949   9.482   9.219   5.922 -0.4306  0.0420 -0.0782
 1082POPI   GL215950   9.295   9.295   6.185 -0.0456 -0.3299 -0.0184
 1082POPI   C1A15951   9.834   9.227   6.323  0.0698 -0.2159  0.0289
 1082POPI   D2A15952  10.109   9.042   6.492  0.0455  0.3270 -0.0855
 1082POPI   C3A15953  10.133   8.917   6.909 -0.1671  0.1228  0.0311
 1082POPI   C4A15954  10.199   8.655   7.306 -0.0944  0.1676  0.0051
 1082POPI   C1B15955   9.190   9.362   6.618 -0.0834  0.2399  0.1639
 1082POPI   C2B15956   9.272   9.393   6.969  0.5070  0.0017 -0.0025
 1082POPI   C3B15957   9.354   8.952   7.104 -0.0025 -0.0265  0.2415
 1082POPI   C4B15958   9.202   8.851   7.445 -0.0330 -0.2160  0.2032
 1083POPI    C115959  10.900   1.550   5.171 -0.1178  0.1632 -0.2872
 1083POPI    C215960  11.238   1.707   5.317 -0.1587 -0.1960  0.2208
 1083POPI    C315961  11.254   1.395   5.067 -0.1086  0.0326 -0.0672
 1083POPI   PO415962  10.749   1.506   5.425 -0.0149 -0.1234  0.1795
 1083POPI   GL115963  10.787   1.489   5.848 -0.3252 -0.1111  0.0632
 1083POPI   GL215964  10.681   1.786   5.928 -0.2056  0.0760 -0.1232
 1083POPI   C1A15965  10.823   1.369   6.226 -0.1044  0.0556 -0.3121
 1083POPI   D2A15966  10.634   1.471   6.700 -0.0254  0.2930 -0.0251
 1083POPI   C3A15967  10.646   1.453   7.127 -0.0148 -0.1141  0.2072
 1083POPI   C4A15968  10.787   1.427   7.468  0.1568 -0.0775 -0.0090
 1083POPI   C1B15969  10.778   1.864   6.385 -0.0076 -0.0479  0.1463
 1083POPI   C2B15970  10.793   1.986   6.843 -0.0056  0.0627 -0.0797
 1083POPI   C3B15971  10.856   2.022   7.311  0.1529  0.1927 -0.0886
 1083POPI   C4B15972  10.765   2.138   7.732  0.0808  0.0534  0.1970
 1084POPI    C115973   5.168   6.157   5.605 -0.2081  0.2765  0.1232
 1084POPI    C215974   4.892   6.021   5.350 -0.0121  0.0807  0.0128
 1084POPI    C315975   5.090   6.359   5.269 -0.1912  0.2008  0.0734
 1084POPI   PO415976   5.149   5.944   5.819  0.0564 -0.0221  0.2865
 1084POPI   GL115977   5.145   5.943   6.203  0.0621 -0.1936  0.0577
 1084POPI   GL215978   5.043   6.263   6.454  0.3402  0.1762 -0.4083
 1084POPI   C1A15979   5.480   5.949   6.541 -0.0831 -0.0360 -0.0421
 1084POPI   D2A15980   5.636   5.935   6.985  0.2632 -0.0979  0.0250
 1084POPI   C3A15981   5.835   5.800   7.341 -0.2794  0.2264  0.0391
 1084POPI   C4A15982   6.093   5.623   7.660 -0.3541 -0.0475 -0.3492
 1084POPI   C1B15983   5.201   6.215   6.918  0.1114 -0.0886 -0.2975
 1084POPI   C2B15984   5.444   6.155   7.395  0.0901  0.1673  0.2245
 1084POPI   C3B15985   5.270   6.093   7.883 -0.3521 -0.2577 -0.2303
 1084POPI   C4B15986   5.367   5.865   8.243 -0.1395  0.0819  0.0860
 1085POPI    C115987   8.255  14.643   5.931 -0.0233  0.2093 -0.0511
 1085POPI    C215988   8.566  14.463   5.756 -0.1974 -0.0699 -0.0810
 1085POPI    C315989   8.411  14.795   5.596  0.0841  0.0728 -0.0640
 1085POPI   PO415990   8.309  14.572   6.218  0.1644 -0.3013 -0.0981
 1085POPI   GL115991   8.544  14.777   6.584 -0.0650  0.1258 -0.2233
 1085POPI   GL215992   8.645  14.396   6.561 -0.0621 -0.0368  0.0539
 1085POPI   C1A15993   8.570  14.710   6.952 -0.1530 -0.0944  0.1378
 1085POPI   D2A15994   8.710  14.396   7.162 -0.1780  0.2118  0.5453
 1085POPI   C3A15995   8.563  13.988   7.164 -0.1736  0.1848 -0.2481
 1085POPI   C4A15996   8.305  13.625   7.092  0.1067  0.0131  0.1747
 1085POPI   C1B15997   8.304  14.208   6.836  0.0669 -0.1478  0.1173
 1085POPI   C2B15998   8.221  14.463   7.211  0.2835  0.2797  0.0472
 1085POPI   C3B15999   8.365  14.457   7.567  0.2654  0.0306  0.1023
 1085POPI   C4B16000   8.565  14.047   7.702  0.1125 -0.0900  0.1644
 1086POPI    C116001   8.850   7.955   5.559 -0.1283 -0.3427  0.1954
 1086POPI    C216002   8.987   7.755   5.241 -0.0871 -0.1465  0.0880
 1086POPI    C316003   8.593   7.793   5.299 -0.0953 -0.0297 -0.0388
 1086POPI   PO416004   8.902   8.241   5.618 -0.2226  0.4249  0.0564
 1086POPI   GL116005   9.145   8.438   5.817 -0.1661  0.0151 -0.0749
 1086POPI   GL216006   9.191   8.065   5.969 -0.1090 -0.1759 -0.0410
 1086POPI   C1A16007   8.943   8.417   6.272 -0.3990  0.0096  0.1038
 1086POPI   D2A16008   8.877   8.435   6.651  0.2066 -0.3329 -0.0136
 1086POPI   C3A16009   8.611   8.379   6.968 -0.3477 -0.2014  0.1210
 1086POPI   C4A16010   8.313   8.435   7.277 -0.2338  0.3057  0.2200
 1086POPI   C1B16011   9.078   7.899   6.387 -0.0518  0.0268  0.0370
 1086POPI   C2B16012   9.147   8.005   6.857 -0.1321  0.4752  0.1000
 1086POPI   C3B16013   9.131   7.953   7.318  0.0383  0.0158 -0.2064
 1086POPI   C4B16014   9.251   7.984   7.700 -0.1193 -0.3223 -0.0311
 1087POPI    C116015   7.208  16.145   6.074 -0.0306 -0.1055  0.0696
 1087POPI    C216016   7.389  16.050   5.730 -0.0816 -0.0768  0.0346
 1087POPI    C316017   7.153  15.783   5.913  0.1344 -0.1761  0.1710
 1087POPI   PO416018   7.247  16.383   6.079 -0.2426  0.1824  0.0316
 1087POPI   GL116019   7.076  16.650   6.324  0.0746 -0.1367  0.0341
 1087POPI   GL216020   6.862  16.887   6.414 -0.0497  0.1719  0.1300
 1087POPI   C1A16021   7.173  16.721   6.778 -0.2985 -0.0392 -0.2689
 1087POPI   D2A16022   7.080  16.721   7.181 -0.3467 -0.0154 -0.0793
 1087POPI   C3A16023   7.238  16.863   7.567  0.0134  0.2025  0.1453
 1087POPI   C4A16024   7.163  17.187   7.927  0.0362 -0.0237  0.2064
 1087POPI   C1B16025   6.691  16.952   6.855  0.0271  0.0878  0.2459
 1087POPI   C2B16026   6.684  17.007   7.285  0.0236 -0.0609 -0.1131
 1087POPI   C3B16027   6.726  16.887   7.722  0.2027 -0.0411  0.0704
 1087POPI   C4B16028   6.936  16.788   8.007 -0.3231 -0.0468 -0.2791
 1088POPI    C116029   5.726  10.248   5.536 -0.1140  0.1664  0.1236
 1088POPI    C216030   5.491   9.939   5.439 -0.0718  0.1742 -0.0054
 1088POPI    C316031   5.516  10.256   5.196  0.1435  0.1331 -0.0393
 1088POPI   PO416032   5.702  10.245   5.803  0.0300 -0.1065  0.0459
 1088POPI   GL116033   5.396  10.353   6.148 -0.2310 -0.1029  0.1548
 1088POPI   GL216034   5.199  10.477   6.190 -0.0839  0.1174  0.1346
 1088POPI   C1A16035   5.327   9.983   6.409 -0.3783 -0.0385 -0.1961
 1088POPI   D2A16036   5.235   9.829   6.805  0.2354  0.1327 -0.0594
 1088POPI   C3A16037   5.572   9.598   6.992 -0.2086 -0.1395 -0.0113
 1088POPI   C4A16038   5.912   9.669   7.082  0.3282  0.1361  0.0020
 1088POPI   C1B16039   5.117  10.414   6.625  0.2597 -0.2170  0.0083
 1088POPI   C2B16040   5.020  10.348   7.043  0.0039  0.1032  0.0649
 1088POPI   C3B16041   5.233  10.384   7.422 -0.2919 -0.0404  0.1339
 1088POPI   C4B16042   5.100  10.450   7.716 -0.0294  0.2198  0.0005
 1089POPI    C116043   5.386   2.540   5.781 -0.0334 -0.0627  0.2096
 1089POPI    C216044   5.763   2.412   5.816  0.0842  0.1524 -0.2081
 1089POPI    C316045   5.626   2.698   6.059  0.1107 -0.0930  0.1031
 1089POPI   PO416046   5.260   2.360   5.774  0.1953  0.1062  0.2587
 1089POPI   GL116047   4.906   2.206   6.087 -0.1109 -0.2462  0.2485
 1089POPI   GL216048   4.651   2.424   6.163  0.0936  0.3195 -0.2865
 1089POPI   C1A16049   5.084   2.342   6.474 -0.2096 -0.2887 -0.2771
 1089POPI   D2A16050   5.516   2.575   6.603  0.1815  0.1571  0.0138
 1089POPI   C3A16051   5.625   2.554   7.103 -0.0128  0.0980 -0.0446
 1089POPI   C4A16052   5.671   2.590   7.528  0.1526 -0.0218 -0.0509
 1089POPI   C1B16053   4.560   2.290   6.587 -0.5319 -0.0484 -0.3139
 1089POPI   C2B16054   4.773   2.241   6.940 -0.1971  0.0685  0.1412
 1089POPI   C3B16055   5.162   2.337   7.007  0.0681 -0.1229  0.0664
 1089POPI   C4B16056   5.395   2.173   7.382 -0.0995 -0.1111  0.3992
 1090POPI    C116057   9.271  14.631   5.966 -0.1319  0.0901  0.1055
 1090POPI    C216058   9.435  14.730   5.615  0.1546  0.0048  0.2127
 1090POPI    C316059   9.038  14.690   5.646  0.1194  0.1056 -0.0771
 1090POPI   PO416060   9.360  14.793   6.146  0.3158  0.2329 -0.1085
 1090POPI   GL116061   9.579  14.901   6.576 -0.1272  0.0022  0.2630
 1090POPI   GL216062   9.851  15.007   6.568 -0.0926 -0.0222  0.0796
 1090POPI   C1A16063   9.377  15.039   6.873  0.0939  0.0410  0.3256
 1090POPI   D2A16064   9.509  15.117   7.198  0.0298 -0.1198  0.0899
 1090POPI   C3A16065   9.531  15.321   7.559  0.1450  0.0758 -0.0725
 1090POPI   C4A16066   9.460  15.476   7.934 -0.1147  0.0659  0.0427
 1090POPI   C1B16067   9.984  15.101   7.015  0.0725  0.3326 -0.2379
 1090POPI   C2B16068  10.040  15.306   7.424  0.0601 -0.1443 -0.0005
 1090POPI   C3B16069  10.288  15.330   7.800  0.0114  0.0263 -0.1088
 1090POPI   C4B16070  10.660  15.453   8.042 -0.1527  0.1088  0.2691
 1091POPI    C116071  16.385   2.598   5.336  0.0597 -0.0711  0.1055
 1091POPI    C216072  16.744   2.437   5.268  0.0567 -0.0493  0.0374
 1091POPI    C316073  16.483   2.476   4.968  0.0547  0.0757  0.0547
 1091POPI   PO416074  16.319   2.505   5.565  0.0896 -0.0170 -0.2005
 1091POPI   GL116075  16.023   2.661   5.964  0.1816 -0.0679 -0.3362
 1091POPI   GL216076  16.256   2.583   6.084  0.1072  0.0792 -0.1138
 1091POPI   C1A16077  15.947   2.436   6.410  0.0899 -0.2780  0.0034
 1091POPI   D2A16078  15.807   2.323   6.802  0.0841 -0.0308  0.0677
 1091POPI   C3A16079  15.961   2.524   7.115  0.4228  0.1935  0.2593
 1091POPI   C4A16080  16.088   2.852   7.305  0.2034  0.1250  0.0069
 1091POPI   C1B16081  16.383   2.199   6.339 -0.0485 -0.0298 -0.0268
 1091POPI   C2B16082  16.251   2.064   6.825  0.0772  0.0955 -0.1527
 1091POPI   C3B16083  16.058   1.975   7.255 -0.2553 -0.1301 -0.1024
 1091POPI   C4B16084  16.185   2.016   7.727  0.0443  0.0037 -0.0905
 1092POPI    C116085  17.583   4.587   5.944  0.1048  0.1463  0.1055
 1092POPI    C216086  17.436   4.786   5.630 -0.2699 -0.2137  0.0443
 1092POPI    C316087  17.731   4.522   5.578 -0.1871 -0.1190  0.0301
 1092POPI   PO416088  17.421   4.738   6.112  0.0085 -0.0608  0.0547
 1092POPI   GL116089  17.312   4.666   6.441  0.0835  0.0913 -0.0599
 1092POPI   GL216090  17.069   4.652   6.443  0.1376  0.1479 -0.1833
 1092POPI   C1A16091  17.528   4.557   6.837 -0.1495 -0.1254 -0.1722
 1092POPI   D2A16092  17.570   4.381   7.120 -0.0496  0.2247 -0.1815
 1092POPI   C3A16093  17.648   4.461   7.475  0.7059  0.0795 -0.3413
 1092POPI   C4A16094  17.789   4.359   7.760  0.1821  0.1791 -0.2075
 1092POPI   C1B16095  17.046   4.623   6.927 -0.4325 -0.0973 -0.1504
 1092POPI   C2B16096  17.133   4.486   7.356  0.0206  0.2464 -0.0999
 1092POPI   C3B16097  17.281   4.441   7.816  0.2744 -0.2297 -0.0556
 1092POPI   C4B16098  17.392   4.185   8.051 -0.4850  0.2185 -0.1119
 1093POPI    C116099   8.789  13.126   5.784 -0.2298  0.0784 -0.0217
 1093POPI    C216100   9.056  13.106   5.486 -0.0678 -0.3372  0.1433
 1093POPI    C316101   8.667  13.050   5.410 -0.1029  0.1501 -0.0782
 1093POPI   PO416102   8.879  12.953   5.978  0.4019 -0.1130 -0.0788
 1093POPI   GL116103   9.024  12.779   6.332 -0.1500  0.0514 -0.0983
 1093POPI   GL216104   9.316  12.971   6.255  0.1176 -0.1378 -0.1089
 1093POPI   C1A16105   8.966  12.722   6.723  0.0003 -0.0675 -0.2495
 1093POPI   D2A16106   8.796  12.900   7.059 -0.1215 -0.0329  0.2572
 1093POPI   C3A16107   8.704  13.280   7.144  0.1667  0.0656  0.1162
 1093POPI   C4A16108   8.580  13.495   7.495 -0.0954 -0.2679  0.3221
 1093POPI   C1B16109   9.434  12.744   6.639  0.3151 -0.0161 -0.1565
 1093POPI   C2B16110   9.555  12.671   7.066  0.0462 -0.1431 -0.0715
 1093POPI   C3B16111   9.489  12.541   7.492  0.1642 -0.4499  0.1201
 1093POPI   C4B16112   9.347  12.745   7.736 -0.3808 -0.1411 -0.4301
 1094POPI    C116113   7.442  10.306   5.791 -0.1590 -0.2359 -0.0607
 1094POPI    C216114   7.541   9.964   5.610  0.0310 -0.0747 -0.2668
 1094POPI    C316115   7.400  10.270   5.395 -0.3636 -0.0996 -0.0532
 1094POPI   PO416116   7.330  10.338   6.000 -0.0854  0.2381  0.2440
 1094POPI   GL116117   7.409  10.346   6.371  0.2779  0.1982  0.0692
 1094POPI   GL216118   7.623  10.504   6.285  0.5392 -0.0125 -0.1261
 1094POPI   C1A16119   7.503  10.329   6.879 -0.0406 -0.1126 -0.0434
 1094POPI   D2A16120   7.461  10.395   7.362  0.0766  0.0180  0.0417
 1094POPI   C3A16121   7.665  10.603   7.618 -0.2329  0.1135  0.0338
 1094POPI   C4A16122   7.875  10.673   7.880 -0.2745  0.2708  0.0408
 1094POPI   C1B16123   7.599  10.780   6.609 -0.2934  0.4471 -0.0134
 1094POPI   C2B16124   7.454  11.074   6.873  0.0436  0.0919  0.1649
 1094POPI   C3B16125   7.409  11.126   7.318 -0.1667  0.1593  0.2958
 1094POPI   C4B16126   7.286  11.432   7.701  0.4844  0.2440  0.3844
 1095POPI    C116127   5.065  14.459   5.947  0.0024  0.1892 -0.0777
 1095POPI    C216128   5.082  14.821   5.778 -0.0582  0.0605 -0.3669
 1095POPI    C316129   4.733  14.626   5.798 -0.0178 -0.0008 -0.2514
 1095POPI   PO416130   5.207  14.569   6.253 -0.1069  0.1354 -0.0962
 1095POPI   GL116131   5.232  14.826   6.555  0.0661  0.0254 -0.0261
 1095POPI   GL216132   5.242  15.078   6.627  0.0202 -0.0301 -0.1560
 1095POPI   C1A16133   5.390  14.583   6.923 -0.2779 -0.1901 -0.2302
 1095POPI   D2A16134   5.432  14.563   7.439 -0.3564 -0.0637 -0.2424
 1095POPI   C3A16135   5.191  14.522   7.920  0.0074  0.2169  0.0938
 1095POPI   C4A16136   5.349  14.406   8.265  0.0222  0.2218  0.2829
 1095POPI   C1B16137   5.296  15.110   7.063  0.0166  0.1187 -0.1079
 1095POPI   C2B16138   5.356  15.169   7.400  0.0316  0.1227  0.0735
 1095POPI   C3B16139   5.347  15.036   7.829  0.0008  0.0794 -0.1856
 1095POPI   C4B16140   5.173  14.904   8.249 -0.0540  0.2526  0.2548
 1096POPI    C116141  11.117   0.740   5.233  0.0506  0.1537 -0.0234
 1096POPI    C216142  10.850   1.032   5.173 -0.0173  0.0743 -0.1116
 1096POPI    C316143  10.970   0.805   4.866  0.1404  0.0990 -0.0693
 1096POPI   PO416144  11.094   0.710   5.571 -0.0220 -0.1351 -0.1163
 1096POPI   GL116145  11.186   0.828   5.947 -0.1021  0.3750 -0.1755
 1096POPI   GL216146  11.255   1.061   6.029 -0.0873  0.1593  0.0182
 1096POPI   C1A16147  11.016   0.697   6.324  0.1115  0.0066 -0.0992
 1096POPI   D2A16148  10.700   0.948   6.524 -0.1116  0.0098  0.0067
 1096POPI   C3A16149  10.649   0.843   6.971 -0.1144  0.1372  0.0727
 1096POPI   C4A16150  10.727   0.888   7.374  0.0561  0.0051 -0.1633
 1096POPI   C1B16151  11.210   1.243   6.440 -0.0961 -0.1207  0.3060
 1096POPI   C2B16152  11.148   1.172   6.894 -0.1881 -0.0222  0.2381
 1096POPI   C3B16153  11.242   1.133   7.276  0.0122 -0.3382  0.4578
 1096POPI   C4B16154  11.144   0.967   7.691 -0.1015 -0.0378 -0.2444
 1097POPI    C116155   0.732   4.111   5.865  0.0769  0.0612  0.0246
 1097POPI    C216156   0.957   4.308   6.131  0.1333 -0.1036  0.0997
 1097POPI    C316157   1.120   4.174   5.792  0.0850  0.0157  0.0289
 1097POPI   PO416158   0.484   4.269   5.938 -0.1605 -0.1179 -0.1275
 1097POPI   GL116159   0.431   4.469   6.323  0.2824 -0.2148  0.0257
 1097POPI   GL216160   0.133   4.269   6.317 -0.0350 -0.2305  0.1043
 1097POPI   C1A16161   0.618   4.456   6.586 -0.0992 -0.0104  0.0934
 1097POPI   D2A16162   0.886   4.131   6.851 -0.1572 -0.1098 -0.2100
 1097POPI   C3A16163   0.851   4.147   7.344  0.2410 -0.1231 -0.1358
 1097POPI   C4A16164   1.020   4.070   7.748  0.0381 -0.2003 -0.1636
 1097POPI   C1B16165   0.308   4.125   6.783  0.0594  0.1431  0.1278
 1097POPI   C2B16166   0.336   4.098   7.248 -0.1340 -0.0325 -0.1585
 1097POPI   C3B16167   0.463   4.247   7.632  0.0537 -0.1468 -0.1199
 1097POPI   C4B16168   0.331   4.201   8.000  0.1442  0.3276 -0.0370
 1098POPI    C116169   7.031   5.151   5.364 -0.0438  0.2474 -0.0816
 1098POPI    C216170   7.218   5.083   5.017  0.1015 -0.0046  0.0432
 1098POPI    C316171   6.881   5.299   5.024  0.0156 -0.1220 -0.2740
 1098POPI   PO416172   7.322   5.265   5.480 -0.3374  0.0280 -0.1801
 1098POPI   GL116173   7.385   5.553   5.784 -0.3271  0.1380 -0.3043
 1098POPI   GL216174   7.517   5.703   6.029 -0.1264  0.0775 -0.0793
 1098POPI   C1A16175   7.552   5.164   6.102  0.0108 -0.0964  0.2759
 1098POPI   D2A16176   7.822   4.948   6.495 -0.1234  0.0264  0.0963
 1098POPI   C3A16177   7.953   4.966   7.012 -0.1887 -0.1593  0.0132
 1098POPI   C4A16178   7.842   4.990   7.357  0.0295  0.1677 -0.0579
 1098POPI   C1B16179   7.609   5.839   6.407  0.1285  0.1764 -0.1052
 1098POPI   C2B16180   7.597   5.936   6.882 -0.0425 -0.1678  0.0715
 1098POPI   C3B16181   7.659   5.855   7.360  0.1556 -0.0744  0.0678
 1098POPI   C4B16182   7.513   5.646   7.771  0.2694 -0.2517  0.0877
 1099POPI    C116183   6.426   9.940   5.815  0.0638  0.0985 -0.0560
 1099POPI    C216184   6.530  10.027   5.439 -0.3044  0.2090 -0.1360
 1099POPI    C316185   6.256  10.249   5.628 -0.1813  0.1052  0.1715
 1099POPI   PO416186   6.370   9.717   5.832  0.0121 -0.0235  0.2095
 1099POPI   GL116187   6.340   9.471   6.096 -0.4958  0.2335 -0.3093
 1099POPI   GL216188   6.662   9.312   6.227 -0.1580  0.2264  0.0533
 1099POPI   C1A16189   6.203   9.687   6.479 -0.1574  0.0987  0.0507
 1099POPI   D2A16190   5.808   9.851   6.582  0.0998  0.1910 -0.1263
 1099POPI   C3A16191   5.533   9.498   6.554  0.1551 -0.1318 -0.0806
 1099POPI   C4A16192   5.210   9.306   6.557 -0.2433 -0.1453  0.2106
 1099POPI   C1B16193   6.620   9.332   6.651  0.0452  0.3249 -0.3467
 1099POPI   C2B16194   6.512   9.447   7.037 -0.2344  0.1275 -0.0483
 1099POPI   C3B16195   6.377   9.599   7.332 -0.5894  0.0166  0.3851
 1099POPI   C4B16196   6.221   9.643   7.617 -0.2019  0.1457 -0.0718
 1100POPI    C116197   1.367  10.409   6.202  0.0471  0.0443 -0.0659
 1100POPI    C216198   1.292  10.623   5.872  0.1573  0.1334 -0.0338
 1100POPI    C316199   1.255  10.224   5.865 -0.0812  0.1550 -0.0848
 1100POPI   PO416200   1.414  10.553   6.456  0.1021  0.2371  0.0317
 1100POPI   GL116201   1.277  10.800   6.707  0.2865 -0.0926  0.1366
 1100POPI   GL216202   1.321  11.090   6.674 -0.3201  0.1828 -0.1098
 1100POPI   C1A16203   1.382  10.685   7.120  0.1135  0.2698  0.3516
 1100POPI   D2A16204   1.097  10.710   7.423 -0.2939  0.1654 -0.0432
 1100POPI   C3A16205   1.086  10.322   7.706  0.0364 -0.1591  0.4075
 1100POPI   C4A16206   0.949   9.836   7.845  0.2054 -0.1094  0.3423
 1100POPI   C1B16207   1.279  11.221   7.150  0.1788  0.0872  0.3445
 1100POPI   C2B16208   1.309  11.417   7.483 -0.2351 -0.3442 -0.3763
 1100POPI   C3B16209   1.133  11.346   7.959  0.2454  0.2911  0.0098
 1100POPI   C4B16210   1.241  11.248   8.350  0.3035  0.0299  0.0456
 1101POPI    C116211   3.313  16.883   5.884  0.1094  0.2803 -0.1794
 1101POPI    C216212   3.282  16.816   5.491  0.1740  0.0923 -0.1533
 1101POPI    C316213   3.642  16.819   5.665  0.1099 -0.4471  0.0082
 1101POPI   PO416214   3.073  17.100   5.891  0.0556 -0.2415 -0.0351
 1101POPI   GL116215   2.879  17.332   6.249  0.2645 -0.2560 -0.0035
 1101POPI   GL216216   2.946  17.244   6.584 -0.0066  0.2939 -0.1011
 1101POPI   C1A16217   2.619  17.595   6.558  0.1278 -0.1233 -0.1043
 1101POPI   D2A16218   2.668  17.641   7.102  0.0040 -0.0195  0.1260
 1101POPI   C3A16219   2.357  17.416   7.226  0.1409 -0.0487 -0.1547
 1101POPI   C4A16220   2.065  17.077   7.148 -0.1556 -0.1478 -0.0877
 1101POPI   C1B16221   2.944  17.303   7.089  0.2670 -0.1264 -0.2011
 1101POPI   C2B16222   2.795  17.339   7.477 -0.2224  0.3470  0.1902
 1101POPI   C3B16223   2.466  17.461   7.814  0.2403 -0.0434 -0.2489
 1101POPI   C4B16224   2.516  17.561   8.193 -0.0072  0.1882  0.2637
 1102POPI    C116225  13.680  13.125   5.708 -0.1215 -0.0720  0.1109
 1102POPI    C216226  13.530  13.285   5.374 -0.0027  0.1433  0.1589
 1102POPI    C316227  13.586  12.890   5.398 -0.0496  0.1218 -0.0601
 1102POPI   PO416228  13.621  13.301   5.851 -0.6008  0.0448  0.1431
 1102POPI   GL116229  13.377  13.323   6.161  0.2401  0.1204  0.2143
 1102POPI   GL216230  13.186  13.596   6.246  0.0206  0.0627  0.3901
 1102POPI   C1A16231  13.515  13.382   6.640  0.2580  0.0376 -0.0588
 1102POPI   D2A16232  13.395  13.374   7.074  0.1881  0.1690  0.2855
 1102POPI   C3A16233  13.492  13.177   7.373  0.0328 -0.1731 -0.1491
 1102POPI   C4A16234  13.599  13.122   7.764  0.1563 -0.0066  0.2263
 1102POPI   C1B16235  13.022  13.641   6.732 -0.2685 -0.0585  0.0284
 1102POPI   C2B16236  13.021  13.763   7.148  0.1549  0.0070  0.2706
 1102POPI   C3B16237  13.006  13.763   7.612 -0.2893  0.1980 -0.0653
 1102POPI   C4B16238  12.975  14.049   7.989 -0.4128  0.3656  0.1034
 1103POPI    C116239   6.732   8.849   5.962  0.0574 -0.0667  0.2707
 1103POPI    C216240   6.809   8.853   5.569 -0.0760 -0.2540  0.2417
 1103POPI    C316241   6.668   9.182   5.749  0.1993 -0.0983  0.1777
 1103POPI   PO416242   6.554   8.644   6.011 -0.1001 -0.1744  0.1396
 1103POPI   GL116243   6.282   8.617   6.387 -0.0551  0.0867  0.4053
 1103POPI   GL216244   6.571   8.849   6.495  0.0019 -0.1605  0.0487
 1103POPI   C1A16245   6.149   8.750   6.823 -0.2561  0.2859  0.1365
 1103POPI   D2A16246   6.169   8.699   7.286 -0.0994 -0.0178 -0.1698
 1103POPI   C3A16247   6.058   8.456   7.659 -0.0664  0.0599  0.5131
 1103POPI   C4A16248   5.855   8.182   7.646 -0.6076 -0.0953  0.0495
 1103POPI   C1B16249   6.607   8.892   6.935 -0.1374 -0.0336  0.1719
 1103POPI   C2B16250   6.589   9.062   7.313  0.2084  0.2514 -0.0963
 1103POPI   C3B16251   6.513   9.275   7.703  0.0202  0.1332 -0.0740
 1103POPI   C4B16252   6.418   9.313   8.173  0.0026  0.1486  0.2059
 1104POPI    C116253   4.053  17.078   5.865  0.0410 -0.0955 -0.2169
 1104POPI    C216254   4.358  17.202   5.638  0.0257  0.2118 -0.0743
 1104POPI    C316255   4.209  17.442   5.921 -0.2761  0.0210 -0.0670
 1104POPI   PO416256   4.080  16.861   6.015 -0.2143  0.0452 -0.2119
 1104POPI   GL116257   4.173  16.948   6.489  0.1052 -0.1278  0.0058
 1104POPI   GL216258   4.035  17.281   6.366  0.1943  0.2797 -0.0353
 1104POPI   C1A16259   4.179  16.861   6.910 -0.0753  0.0777 -0.2087
 1104POPI   D2A16260   4.186  16.787   7.291 -0.0843 -0.0380  0.0946
 1104POPI   C3A16261   3.982  16.534   7.591 -0.2000  0.3092 -0.0953
 1104POPI   C4A16262   3.842  16.174   7.823 -0.1185  0.1799 -0.1138
 1104POPI   C1B16263   3.911  17.415   6.649  0.1436 -0.1642  0.2319
 1104POPI   C2B16264   3.871  17.411   7.066 -0.0503 -0.0138  0.2906
 1104POPI   C3B16265   3.900  17.224   7.532  0.2211 -0.1854 -0.0293
 1104POPI   C4B16266   3.779  17.061   7.927 -0.3258  0.2987 -0.2371
 1105POPI    C116267   1.400  11.943   5.637 -0.0027  0.0563  0.0954
 1105POPI    C216268   1.183  11.897   5.970 -0.0617 -0.0761  0.0392
 1105POPI    C316269   1.017  11.830   5.612  0.0568 -0.1275 -0.0066
 1105POPI   PO416270   1.639  11.810   5.727 -0.1679  0.0119  0.0930
 1105POPI   GL116271   1.728  12.020   6.088  0.0633 -0.1173  0.0371
 1105POPI   GL216272   1.758  12.338   6.172 -0.1282  0.1314  0.0943
 1105POPI   C1A16273   1.848  11.847   6.483 -0.1027 -0.0181  0.0543
 1105POPI   D2A16274   1.974  11.862   6.880  0.0873 -0.2834  0.1348
 1105POPI   C3A16275   2.075  12.041   7.190 -0.3383 -0.0306  0.1798
 1105POPI   C4A16276   2.048  12.076   7.691 -0.0183  0.2478 -0.1230
 1105POPI   C1B16277   1.609  12.222   6.601 -0.1097 -0.0060  0.0146
 1105POPI   C2B16278   1.627  12.193   7.098  0.2070 -0.1130 -0.1380
 1105POPI   C3B16279   1.595  12.234   7.470 -0.0805 -0.0945  0.1579
 1105POPI   C4B16280   1.642  12.115   7.911 -0.1444 -0.3523  0.0279
 1106POPI    C116281   4.347   5.375   5.649  0.0221 -0.0059 -0.1096
 1106POPI    C216282   4.043   5.191   5.466  0.0836 -0.0250 -0.1932
 1106POPI    C316283   4.402   5.209   5.289  0.0646  0.2226 -0.2105
 1106POPI   PO416284   4.366   5.225   5.877 -0.3959  0.1183  0.0398
 1106POPI   GL116285   4.357   5.267   6.237  0.1486 -0.2604  0.3305
 1106POPI   GL216286   4.627   5.084   6.499  0.1385 -0.0619 -0.1259
 1106POPI   C1A16287   3.988   5.058   6.402  0.0488  0.1853  0.0009
 1106POPI   D2A16288   3.853   4.694   6.666  0.1018  0.2120  0.0173
 1106POPI   C3A16289   3.484   4.773   7.004 -0.0440 -0.1707  0.0779
 1106POPI   C4A16290   3.460   4.820   7.480  0.0652  0.0290  0.0427
 1106POPI   C1B16291   4.339   4.988   6.843 -0.0299 -0.2650  0.0121
 1106POPI   C2B16292   4.045   4.824   7.117  0.2680  0.0995  0.0193
 1106POPI   C3B16293   3.898   4.944   7.552 -0.1286 -0.1179 -0.2263
 1106POPI   C4B16294   3.763   5.177   7.913  0.1657  0.0021  0.3007
 1107POPI    C116295   3.236  10.021   5.852  0.1248  0.0796 -0.0131
 1107POPI    C216296   2.972  10.142   6.127 -0.0333 -0.2023 -0.0357
 1107POPI    C316297   2.843   9.981   5.785  0.1638  0.0615 -0.2382
 1107POPI   PO416298   3.381   9.879   6.039 -0.0933  0.2299  0.2399
 1107POPI   GL116299   3.407   9.753   6.438 -0.0343 -0.2822 -0.3732
 1107POPI   GL216300   3.268  10.055   6.517 -0.0530 -0.1107  0.1590
 1107POPI   C1A16301   3.748   9.531   6.613 -0.3137  0.0328  0.0316
 1107POPI   D2A16302   3.825   9.635   6.990 -0.0198 -0.2754 -0.3518
 1107POPI   C3A16303   3.985   9.419   7.264  0.0875  0.3200 -0.1061
 1107POPI   C4A16304   4.199   9.406   7.564  0.3848 -0.2151 -0.0722
 1107POPI   C1B16305   3.378   9.894   6.913 -0.0317 -0.1206 -0.0139
 1107POPI   C2B16306   3.511   9.755   7.415  0.1691  0.0005  0.2040
 1107POPI   C3B16307   3.767   9.644   7.689  0.0360  0.1411  0.1901
 1107POPI   C4B16308   4.033   9.722   8.013 -0.0623 -0.2590 -0.0580
 1108POPI    C116309   1.322   6.688   5.598 -0.1756  0.2018 -0.0802
 1108POPI    C216310   1.560   6.744   5.282 -0.0063 -0.0259  0.0040
 1108POPI    C316311   1.189   6.606   5.230  0.0897 -0.2568 -0.0824
 1108POPI   PO416312   1.404   6.546   5.831 -0.1489  0.0692 -0.3902
 1108POPI   GL116313   1.467   6.484   6.286  0.1718 -0.2516 -0.1370
 1108POPI   GL216314   1.270   6.292   6.520  0.3064 -0.1514  0.0414
 1108POPI   C1A16315   1.726   6.545   6.690  0.0376 -0.0453 -0.0183
 1108POPI   D2A16316   1.896   6.703   7.028 -0.1726  0.1942 -0.0827
 1108POPI   C3A16317   2.281   6.889   7.124 -0.2623 -0.1914  0.1685
 1108POPI   C4A16318   2.742   6.738   7.155  0.0602  0.2522  0.3117
 1108POPI   C1B16319   1.352   6.112   6.896 -0.1038  0.1423  0.0348
 1108POPI   C2B16320   1.512   5.858   7.284  0.4302 -0.2739 -0.2552
 1108POPI   C3B16321   1.416   5.448   7.553 -0.2685  0.0911 -0.0860
 1108POPI   C4B16322   1.581   4.942   7.656  0.0798  0.0301  0.1985
 1109POPI    C116323  14.612  11.232   5.537 -0.0323 -0.1134 -0.1833
 1109POPI    C216324  14.915  11.029   5.703  0.1669  0.3155 -0.0066
 1109POPI    C316325  14.879  11.044   5.305  0.1251 -0.0917 -0.0223
 1109POPI   PO416326  14.536  11.369   5.832  0.1596 -0.1930  0.1372
 1109POPI   GL116327  14.612  11.671   6.231  0.3251  0.1361  0.1852
 1109POPI   GL216328  14.412  12.008   6.317 -0.0681 -0.0640  0.0334
 1109POPI   C1A16329  14.546  11.485   6.591  0.1496  0.1445  0.2764
 1109POPI   D2A16330  14.205  11.297   6.888 -0.1854  0.2803  0.2346
 1109POPI   C3A16331  13.725  11.487   6.904 -0.1545  0.1794 -0.0363
 1109POPI   C4A16332  13.378  11.346   7.055  0.2707 -0.0238 -0.1844
 1109POPI   C1B16333  14.179  11.910   6.671 -0.0903  0.1423  0.3471
 1109POPI   C2B16334  14.092  11.838   7.170  0.1233  0.3062  0.1223
 1109POPI   C3B16335  13.870  11.558   7.465 -0.1347 -0.0455  0.3916
 1109POPI   C4B16336  13.728  11.132   7.368 -0.1302  0.2692 -0.0555
 1110POPI    C116337  16.439  12.722   5.525 -0.1579 -0.0921  0.1277
 1110POPI    C216338  16.557  12.646   5.150  0.1076 -0.1374  0.2182
 1110POPI    C316339  16.433  13.013   5.251  0.1866 -0.0846  0.1239
 1110POPI   PO416340  16.265  12.550   5.586 -0.1549 -0.2365 -0.1289
 1110POPI   GL116341  16.025  12.649   5.950 -0.2565  0.1317  0.1994
 1110POPI   GL216342  16.170  12.909   5.989 -0.0337  0.1261  0.1106
 1110POPI   C1A16343  16.147  12.591   6.430 -0.0465  0.0212  0.2364
 1110POPI   D2A16344  16.319  12.121   6.495 -0.2401 -0.0466  0.1002
 1110POPI   C3A16345  16.372  12.007   6.931 -0.0028  0.1692 -0.0097
 1110POPI   C4A16346  16.368  11.847   7.326  0.0743 -0.1082  0.3271
 1110POPI   C1B16347  15.958  13.011   6.306  0.0898  0.1033 -0.1542
 1110POPI   C2B16348  15.908  12.941   6.659 -0.2107  0.1206 -0.1675
 1110POPI   C3B16349  15.645  12.795   6.880  0.2616  0.1877  0.1046
 1110POPI   C4B16350  15.703  12.365   7.179 -0.1983 -0.1323  0.0436
 1111POPI    C116351   0.179   0.105   5.692  0.1993  0.0450  0.0123
 1111POPI    C216352   0.398   0.319   5.435  0.0048  0.1557 -0.0635
 1111POPI    C316353   0.030   0.199   5.333  0.0438 -0.0636  0.0471
 1111POPI   PO416354   0.350   0.016   5.896 -0.0468  0.1385  0.1461
 1111POPI   GL116355   0.302   0.124   6.384 -0.0833  0.2005 -0.1883
 1111POPI   GL216356   0.064  -0.107   6.375  0.1110 -0.0395  0.0777
 1111POPI   C1A16357   0.357   0.012   6.795 -0.2109  0.1272 -0.5507
 1111POPI   D2A16358   0.159   0.258   7.181  0.1986  0.0633 -0.0983
 1111POPI   C3A16359   0.188   0.191   7.649  0.2104  0.1223  0.0126
 1111POPI   C4A16360   0.235   0.377   8.042  0.0813  0.2077 -0.1048
 1111POPI   C1B16361   0.143  -0.408   6.641 -0.2955  0.3345  0.3915
 1111POPI   C2B16362   0.022  -0.457   7.052  0.0431 -0.0430  0.0085
 1111POPI   C3B16363  -0.116  -0.608   7.530  0.0106  0.0349 -0.1866
 1111POPI   C4B16364  -0.126  -0.663   7.997  0.0537 -0.1800  0.1239
 1112POPI    C116365   1.059  16.947   5.885  0.1699  0.2828 -0.1048
 1112POPI    C216366   0.743  17.153   6.018  0.1316  0.0195  0.2245
 1112POPI    C316367   0.807  17.116   5.625 -0.0335  0.3915  0.1587
 1112POPI   PO416368   1.055  16.750   6.032 -0.2652  0.0047  0.0565
 1112POPI   GL116369   0.792  16.577   6.281 -0.1442  0.1991  0.0852
 1112POPI   GL216370   0.702  16.374   6.393 -0.1043  0.0710 -0.0077
 1112POPI   C1A16371   1.145  16.591   6.631 -0.1310 -0.0012  0.1028
 1112POPI   D2A16372   1.139  16.636   7.079  0.2716  0.0113  0.0730
 1112POPI   C3A16373   1.279  16.642   7.465 -0.0444 -0.0618  0.0763
 1112POPI   C4A16374   1.181  16.679   7.879 -0.2371 -0.3491 -0.0929
 1112POPI   C1B16375   0.732  16.325   6.813 -0.1156 -0.1931 -0.4675
 1112POPI   C2B16376   0.758  16.356   7.290  0.0829 -0.0923 -0.0981
 1112POPI   C3B16377   0.712  16.436   7.708  0.0079  0.1122  0.2185
 1112POPI   C4B16378   0.552  16.694   7.969  0.0289  0.3000 -0.0226
 1113POPI    C116379   4.655  15.142   5.821 -0.3232 -0.1999  0.0267
 1113POPI    C216380   4.493  15.305   5.493 -0.0929 -0.2049 -0.0920
 1113POPI    C316381   4.728  14.983   5.461 -0.0612 -0.1996  0.0775
 1113POPI   PO416382   4.834  15.343   5.863 -0.0486  0.0989 -0.2486
 1113POPI   GL116383   4.902  15.520   6.252  0.0978 -0.0711 -0.0632
 1113POPI   GL216384   4.588  15.421   6.307  0.1430 -0.2984  0.2311
 1113POPI   C1A16385   4.874  15.310   6.734  0.0953 -0.3133  0.1251
 1113POPI   D2A16386   4.855  15.338   7.125  0.0626  0.2695 -0.2239
 1113POPI   C3A16387   4.905  15.298   7.566  0.0250  0.0288 -0.0180
 1113POPI   C4A16388   4.965  15.370   8.000 -0.1024  0.1514  0.1756
 1113POPI   C1B16389   4.422  15.469   6.741  0.1100 -0.0999  0.2530
 1113POPI   C2B16390   4.293  15.391   7.209 -0.0036 -0.1503  0.2881
 1113POPI   C3B16391   4.357  15.448   7.681 -0.1668  0.1808 -0.0064
 1113POPI   C4B16392   4.496  15.256   8.118 -0.2445  0.1060  0.1342
 1114POPI    C116393   6.924   2.713   5.526  0.1922 -0.1354  0.0899
 1114POPI    C216394   7.030   2.904   5.192 -0.0819 -0.1011  0.0202
 1114POPI    C316395   7.236   2.583   5.312  0.1736  0.0361 -0.0432
 1114POPI   PO416396   7.037   3.047   5.715 -0.2856  0.2828  0.1818
 1114POPI   GL116397   7.342   3.113   6.021 -0.0480 -0.1072  0.2508
 1114POPI   GL216398   7.305   3.461   5.849 -0.4695  0.0232  0.5283
 1114POPI   C1A16399   7.194   3.152   6.480  0.0760 -0.1292  0.1097
 1114POPI   D2A16400   7.295   3.294   6.887 -0.2248  0.3603 -0.0276
 1114POPI   C3A16401   7.634   3.419   7.181 -0.2030  0.1074 -0.1220
 1114POPI   C4A16402   7.949   3.511   7.418  0.2281 -0.1220  0.1055
 1114POPI   C1B16403   7.510   3.484   6.268  0.0040  0.1032 -0.2133
 1114POPI   C2B16404   7.725   3.368   6.641  0.5496 -0.1258  0.0792
 1114POPI   C3B16405   7.786   3.061   6.906 -0.1024 -0.1412  0.0493
 1114POPI   C4B16406   7.939   3.005   7.329  0.1133  0.1584  0.3057
 1115POPI    C116407   7.719  10.700   5.552 -0.2738 -0.0315 -0.0586
 1115POPI    C216408   7.880  10.352   5.438 -0.1762 -0.0119  0.0177
 1115POPI    C316409   7.826  10.644   5.171 -0.0749 -0.0149 -0.0067
 1115POPI   PO416410   7.780  10.758   5.826  0.1053  0.4656  0.1762
 1115POPI   GL116411   7.908  10.922   6.255  0.3238  0.1059  0.0041
 1115POPI   GL216412   7.718  11.140   6.237 -0.1686  0.1538 -0.1196
 1115POPI   C1A16413   8.090  10.804   6.684  0.3482 -0.0522 -0.3494
 1115POPI   D2A16414   8.491  10.661   6.836  0.2174  0.4021 -0.0658
 1115POPI   C3A16415   8.554  10.580   7.243  0.0257  0.0513 -0.0488
 1115POPI   C4A16416   8.634  10.485   7.698 -0.3343  0.1894 -0.1510
 1115POPI   C1B16417   7.846  11.254   6.696 -0.3478 -0.0030  0.3212
 1115POPI   C2B16418   7.947  11.281   7.159 -0.0435  0.2171  0.1838
 1115POPI   C3B16419   7.842  11.172   7.578 -0.3497 -0.2248 -0.0592
 1115POPI   C4B16420   7.483  11.027   7.820  0.0612 -0.1226 -0.1778
 1116POPI    C116421  16.951   4.779   5.769 -0.0682  0.0813  0.1043
 1116POPI    C216422  16.909   4.537   5.453 -0.4431 -0.0661  0.2617
 1116POPI    C316423  16.771   4.912   5.437 -0.0230  0.0868  0.0821
 1116POPI   PO416424  16.851   4.673   5.928  0.0157 -0.1109 -0.0676
 1116POPI   GL116425  16.522   4.739   6.196 -0.0106  0.0736  0.2430
 1116POPI   GL216426  16.605   4.373   6.230 -0.3021 -0.2143 -0.0448
 1116POPI   C1A16427  16.587   5.014   6.505 -0.0992  0.2085  0.0166
 1116POPI   D2A16428  16.496   5.101   6.905  0.0813 -0.1374  0.2629
 1116POPI   C3A16429  16.665   4.770   7.151  0.0381 -0.3356  0.0750
 1116POPI   C4A16430  16.609   4.677   7.525  0.1249  0.0099  0.1475
 1116POPI   C1B16431  16.690   4.404   6.598  0.3220 -0.2185 -0.0316
 1116POPI   C2B16432  16.546   4.267   7.036  0.0105  0.0270 -0.1982
 1116POPI   C3B16433  16.796   4.092   7.366 -0.2528 -0.2839  0.0665
 1116POPI   C4B16434  16.957   4.055   7.676 -0.0434  0.1641  0.1519
 1117POPI    C116435   6.343  11.332   5.431  0.0587 -0.1931 -0.0676
 1117POPI    C216436   6.641  11.489   5.216  0.0375 -0.1544 -0.0688
 1117POPI    C316437   6.265  11.514   5.083 -0.0167  0.1720  0.1351
 1117POPI   PO416438   6.453  11.396   5.696 -0.3332  0.0599  0.3890
 1117POPI   GL116439   6.473  11.323   6.178  0.1415  0.2060  0.1380
 1117POPI   GL216440   6.386  11.526   6.140  0.0556  0.0793 -0.3154
 1117POPI   C1A16441   6.712  11.240   6.577 -0.1110  0.0632 -0.0923
 1117POPI   D2A16442   6.992  11.327   6.926 -0.0898 -0.0317  0.0510
 1117POPI   C3A16443   6.930  11.294   7.335 -0.0540 -0.1648  0.0977
 1117POPI   C4A16444   6.894  11.107   7.779  0.1090 -0.1692 -0.1192
 1117POPI   C1B16445   6.402  11.712   6.527 -0.0202  0.0439  0.1250
 1117POPI   C2B16446   6.321  11.903   6.867 -0.0148 -0.0627  0.1340
 1117POPI   C3B16447   6.217  12.008   7.270  0.1160  0.0988  0.0919
 1117POPI   C4B16448   5.925  12.015   7.579 -0.3714 -0.1476  0.1756
 1118POPI    C116449   4.776   4.533   5.669 -0.0156  0.3306  0.3079
 1118POPI    C216450   4.861   4.746   5.342  0.0080 -0.2088 -0.0495
 1118POPI    C316451   4.533   4.830   5.555  0.0005  0.1588 -0.1970
 1118POPI   PO416452   4.992   4.524   5.835 -0.1577 -0.1703 -0.0402
 1118POPI   GL116453   5.220   4.740   6.110 -0.0165  0.3190  0.0931
 1118POPI   GL216454   5.460   4.623   6.185 -0.1388  0.2151 -0.1411
 1118POPI   C1A16455   5.168   4.984   6.523 -0.1103 -0.1793 -0.3155
 1118POPI   D2A16456   4.925   5.173   6.826  0.1617 -0.4081 -0.1191
 1118POPI   C3A16457   4.722   4.985   7.192  0.0301 -0.1104 -0.1927
 1118POPI   C4A16458   4.548   4.873   7.479  0.0368  0.0067  0.0332
 1118POPI   C1B16459   5.519   4.667   6.641 -0.2552 -0.1687  0.2724
 1118POPI   C2B16460   5.351   4.898   6.994  0.1891 -0.0303 -0.1762
 1118POPI   C3B16461   5.198   5.148   7.235 -0.1782  0.0635  0.0745
 1118POPI   C4B16462   5.026   4.913   7.670 -0.0769 -0.0151  0.0809
 1119POPI    C116463   2.756   0.869   5.554  0.0339 -0.0213  0.0231
 1119POPI    C216464   3.136   0.994   5.565  0.0405 -0.0566  0.2578
 1119POPI    C316465   3.049   0.627   5.430  0.0849 -0.0343  0.1674
 1119POPI   PO416466   2.539   0.867   5.835  0.2948 -0.2096  0.1621
 1119POPI   GL116467   2.282   1.102   6.079 -0.2718 -0.0260 -0.4258
 1119POPI   GL216468   2.460   1.283   6.232  0.0428 -0.0111 -0.0156
 1119POPI   C1A16469   2.089   0.921   6.401 -0.0872  0.1399 -0.3787
 1119POPI   D2A16470   1.712   0.782   6.553  0.0678  0.0351  0.3114
 1119POPI   C3A16471   1.684   0.785   6.990 -0.2018  0.0861 -0.0118
 1119POPI   C4A16472   1.416   0.708   7.320 -0.0325 -0.0341  0.0750
 1119POPI   C1B16473   2.328   1.234   6.657 -0.0976  0.1236  0.0462
 1119POPI   C2B16474   2.237   1.091   6.934  0.2602  0.0865  0.1080
 1119POPI   C3B16475   2.437   1.025   7.363 -0.2005 -0.1323 -0.2526
 1119POPI   C4B16476   2.520   0.809   7.650 -0.1755  0.0927 -0.0159
 1120POPI    C116477   1.224  12.284   5.321 -0.0121  0.2473  0.1593
 1120POPI    C216478   0.980  12.505   5.094  0.1013  0.2735  0.0621
 1120POPI    C316479   1.344  12.406   4.960 -0.0364 -0.1754  0.0025
 1120POPI   PO416480   1.092  12.353   5.591  0.0115  0.1599 -0.0129
 1120POPI   GL116481   1.036  12.342   5.967 -0.2781 -0.2223 -0.1828
 1120POPI   GL216482   0.875  12.595   5.963  0.0633 -0.2433  0.0442
 1120POPI   C1A16483   1.210  12.217   6.308 -0.0762 -0.0173  0.2593
 1120POPI   D2A16484   1.140  12.355   6.701 -0.0052 -0.1394 -0.0513
 1120POPI   C3A16485   1.111  12.349   7.123 -0.0853 -0.0871 -0.0085
 1120POPI   C4A16486   1.125  12.470   7.516  0.0659 -0.2549  0.4565
 1120POPI   C1B16487   0.777  12.474   6.398 -0.0572 -0.0644 -0.2810
 1120POPI   C2B16488   0.726  12.582   6.785  0.0568 -0.1866  0.3773
 1120POPI   C3B16489   0.597  12.633   7.206 -0.0555  0.1056 -0.0491
 1120POPI   C4B16490   0.613  12.714   7.653  0.0395 -0.3945  0.0022
 1121POPI    C116491  13.122  15.686   5.118  0.1713  0.0388  0.0867
 1121POPI    C216492  13.092  15.310   4.983 -0.1838  0.1142 -0.0571
 1121POPI    C316493  12.978  15.616   4.751  0.2577  0.3266 -0.0047
 1121POPI   PO416494  13.030  15.658   5.375  0.0971  0.3478  0.0130
 1121POPI   GL116495  13.167  15.926   5.757 -0.0745  0.2854 -0.3328
 1121POPI   GL216496  13.096  16.287   5.809  0.0841 -0.2159  0.0647
 1121POPI   C1A16497  13.220  15.799   6.224  0.0830  0.0501 -0.3311
 1121POPI   D2A16498  12.890  15.627   6.460 -0.1590 -0.1626 -0.1129
 1121POPI   C3A16499  12.760  15.590   6.853 -0.3244 -0.1495 -0.2600
 1121POPI   C4A16500  12.766  15.621   7.300 -0.1485 -0.2407  0.2546
 1121POPI   C1B16501  13.064  16.253   6.221  0.1490  0.0929 -0.2544
 1121POPI   C2B16502  13.064  16.149   6.618 -0.3532  0.0002 -0.0392
 1121POPI   C3B16503  12.975  16.001   7.059 -0.1658 -0.0090  0.0674
 1121POPI   C4B16504  12.999  16.153   7.444 -0.0710  0.0392  0.1176
 1122POPI    C116505  14.569   3.807   5.540  0.2034  0.2343  0.0379
 1122POPI    C216506  14.446   3.961   5.192  0.2404 -0.1327 -0.1420
 1122POPI    C316507  14.828   4.001   5.304  0.1587  0.2614  0.0112
 1122POPI   PO416508  14.451   3.958   5.759 -0.1360  0.0675 -0.0528
 1122POPI   GL116509  14.526   4.201   6.090 -0.3518 -0.0431 -0.0386
 1122POPI   GL216510  14.773   3.972   6.203 -0.2988  0.0536  0.0531
 1122POPI   C1A16511  14.354   4.245   6.506  0.2725  0.1562  0.1834
 1122POPI   D2A16512  14.458   4.138   6.953  0.1046 -0.2691  0.1418
 1122POPI   C3A16513  14.540   4.289   7.461  0.3206 -0.1479 -0.1474
 1122POPI   C4A16514  14.560   4.435   7.843  0.2163  0.1566  0.1180
 1122POPI   C1B16515  14.589   3.828   6.612  0.0694 -0.0305 -0.0861
 1122POPI   C2B16516  14.455   3.644   7.038  0.2128 -0.0221 -0.1623
 1122POPI   C3B16517  14.467   3.713   7.418  0.0041 -0.1656 -0.1858
 1122POPI   C4B16518  14.247   3.795   7.883  0.0597  0.0002  0.0880
 1123POPI    C116519   6.308   0.896   5.437 -0.1309  0.0044  0.0741
 1123POPI    C216520   6.003   0.760   5.215  0.0422  0.0020 -0.1661
 1123POPI    C316521   6.350   0.561   5.221  0.1487  0.1860 -0.1600
 1123POPI   PO416522   6.167   0.944   5.659  0.1292  0.0162 -0.1954
 1123POPI   GL116523   6.481   1.100   5.948 -0.0332 -0.0582  0.0778
 1123POPI   GL216524   6.664   1.295   6.068 -0.1555 -0.0563 -0.0092
 1123POPI   C1A16525   6.208   1.350   6.167  0.0981  0.0412 -0.0854
 1123POPI   D2A16526   6.103   1.655   6.426  0.1061 -0.1270  0.2854
 1123POPI   C3A16527   5.966   1.612   6.878  0.3541  0.0178 -0.1099
 1123POPI   C4A16528   6.112   1.535   7.291 -0.0216 -0.1488 -0.0703
 1123POPI   C1B16529   6.568   1.532   6.482  0.3998  0.0179 -0.0429
 1123POPI   C2B16530   6.514   1.580   6.864 -0.2197  0.1480 -0.0456
 1123POPI   C3B16531   6.649   1.597   7.239  0.2273 -0.1273 -0.1854
 1123POPI   C4B16532   6.528   1.522   7.657  0.0221 -0.1333 -0.0958
 1124POPI    C116533   0.401   5.106   5.526  0.1616 -0.2749 -0.1190
 1124POPI    C216534   0.061   4.904   5.472  0.0881 -0.1679 -0.0601
 1124POPI    C316535   0.291   4.995   5.158  0.0759 -0.2633 -0.0970
 1124POPI   PO416536   0.428   4.978   5.798 -0.2139 -0.2387 -0.1171
 1124POPI   GL116537   0.334   5.036   6.224 -0.1970  0.3062 -0.0614
 1124POPI   GL216538   0.189   5.164   6.360  0.1772  0.1325 -0.0069
 1124POPI   C1A16539   0.646   4.979   6.616 -0.0519 -0.0043  0.0074
 1124POPI   D2A16540   0.538   5.037   7.045  0.0150 -0.0100  0.0125
 1124POPI   C3A16541   0.486   5.159   7.429  0.0309  0.0071 -0.1855
 1124POPI   C4A16542   0.226   5.272   7.826 -0.0259 -0.1045  0.1298
 1124POPI   C1B16543   0.168   5.183   6.779  0.1598  0.3177 -0.3633
 1124POPI   C2B16544   0.038   5.137   7.214 -0.2717 -0.3553  0.0605
 1124POPI   C3B16545  -0.063   5.036   7.548 -0.1373  0.1659  0.0616
 1124POPI   C4B16546  -0.022   4.783   8.038  0.3077  0.1903 -0.2323
 1125POPI    C116547  12.371  13.926   5.507  0.2008  0.0451 -0.1488
 1125POPI    C216548  12.442  14.254   5.289 -0.1144  0.1684 -0.0714
 1125POPI    C316549  12.182  13.979   5.159 -0.0457  0.0746 -0.0126
 1125POPI   PO416550  12.383  14.115   5.791  0.1428  0.1562  0.0574
 1125POPI   GL116551  12.242  14.009   6.253  0.1317 -0.0477  0.0609
 1125POPI   GL216552  12.074  13.710   6.379 -0.0838  0.1182  0.0071
 1125POPI   C1A16553  12.350  14.382   6.435 -0.1755 -0.0507 -0.1167
 1125POPI   D2A16554  12.593  14.731   6.734  0.0706  0.1497 -0.0374
 1125POPI   C3A16555  12.746  14.676   7.146  0.0189 -0.0319  0.0654
 1125POPI   C4A16556  12.792  14.846   7.562 -0.0647 -0.0489 -0.0858
 1125POPI   C1B16557  12.052  13.588   6.701  0.2295  0.0958 -0.0309
 1125POPI   C2B16558  12.024  13.646   7.140  0.3712  0.0253 -0.1148
 1125POPI   C3B16559  12.077  13.848   7.488 -0.0587  0.1000  0.0605
 1125POPI   C4B16560  12.029  13.759   7.946  0.1710 -0.3160  0.0679
 1126POPI    C116561  14.203  16.722   5.369 -0.2661  0.0030 -0.0483
 1126POPI    C216562  14.219  16.328   5.439  0.0322 -0.0117 -0.1878
 1126POPI    C316563  14.258  16.467   5.066  0.2784  0.1682 -0.0978
 1126POPI   PO416564  14.333  16.819   5.683  0.0269  0.3275  0.2142
 1126POPI   GL116565  14.077  17.024   6.116 -0.2603 -0.0112 -0.0328
 1126POPI   GL216566  13.920  17.299   6.081 -0.0414 -0.0995  0.0970
 1126POPI   C1A16567  14.212  16.705   6.340  0.7131  0.4272  0.0269
 1126POPI   D2A16568  14.519  16.507   6.574  0.2847  0.0997  0.0199
 1126POPI   C3A16569  14.484  16.399   7.052 -0.3427 -0.0540  0.3512
 1126POPI   C4A16570  14.544  16.393   7.535  0.0008  0.0040  0.1235
 1126POPI   C1B16571  13.515  17.294   6.278 -0.0546 -0.1686  0.3663
 1126POPI   C2B16572  13.375  17.321   6.766  0.2990 -0.0903  0.0251
 1126POPI   C3B16573  13.283  17.535   7.116 -0.1544 -0.4158 -0.1841
 1126POPI   C4B16574  12.976  17.920   7.158 -0.2385 -0.1119 -0.2637
 1127POPI    C116575   5.779  16.173   5.909  0.2855 -0.0794 -0.0911
 1127POPI    C216576   5.967  16.122   5.560  0.0702 -0.1395 -0.2001
 1127POPI    C316577   5.614  15.945   5.625  0.0185  0.0246 -0.0230
 1127POPI   PO416578   5.923  16.259   6.103  0.4682 -0.1418  0.0180
 1127POPI   GL116579   5.883  16.399   6.471  0.0062  0.0546  0.0646
 1127POPI   GL216580   5.897  16.695   6.347  0.2827 -0.1294 -0.0399
 1127POPI   C1A16581   5.874  16.387   6.996 -0.2575  0.0406 -0.1629
 1127POPI   D2A16582   5.843  16.418   7.448  0.1381 -0.1923 -0.2107
 1127POPI   C3A16583   5.922  16.356   7.798 -0.3110 -0.4244  0.1411
 1127POPI   C4A16584   6.038  16.379   8.158 -0.2902 -0.1164  0.1861
 1127POPI   C1B16585   5.528  16.695   6.619  0.0439 -0.1146 -0.1579
 1127POPI   C2B16586   5.299  16.651   6.947  0.1010  0.4712 -0.0249
 1127POPI   C3B16587   5.055  16.820   7.302 -0.1650  0.0641 -0.1292
 1127POPI   C4B16588   5.366  16.778   7.631 -0.0071 -0.0654  0.3009
 1128POPI    C116589   0.126   8.082   5.636  0.2597 -0.0624 -0.0914
 1128POPI    C216590   0.119   7.971   5.252 -0.0787 -0.0951 -0.0787
 1128POPI    C316591  -0.120   8.265   5.379  0.0950 -0.0251  0.0904
 1128POPI   PO416592   0.153   7.938   5.781 -0.0959  0.1600  0.0161
 1128POPI   GL116593   0.198   8.002   6.162  0.1091 -0.2159  0.0726
 1128POPI   GL216594   0.468   7.942   6.310 -0.1761  0.0634  0.1943
 1128POPI   C1A16595   0.156   8.519   6.422  0.2197 -0.0037 -0.0155
 1128POPI   D2A16596  -0.032   8.587   6.829 -0.0581  0.3448  0.0958
 1128POPI   C3A16597   0.087   8.795   7.113  0.1008 -0.0613 -0.1957
 1128POPI   C4A16598   0.103   9.176   7.375  0.0523 -0.1477 -0.0524
 1128POPI   C1B16599   0.459   7.761   6.703 -0.1586  0.1619  0.1773
 1128POPI   C2B16600   0.525   7.759   7.128 -0.0412 -0.0207  0.2496
 1128POPI   C3B16601   0.493   7.588   7.488  0.0885 -0.0838  0.1327
 1128POPI   C4B16602   0.196   7.642   7.809  0.1153  0.0417  0.2923
 1129POPI    C116603   6.019  12.843   5.736 -0.0737 -0.1283 -0.0312
 1129POPI    C216604   5.884  12.963   5.379 -0.2113  0.0673  0.0845
 1129POPI    C316605   6.268  12.861   5.424 -0.1609  0.1784 -0.0864
 1129POPI   PO416606   5.983  12.903   6.010 -0.1619  0.0322 -0.0311
 1129POPI   GL116607   6.274  12.852   6.349  0.1611 -0.0179  0.0739
 1129POPI   GL216608   6.019  12.546   6.407  0.2084 -0.0901 -0.1299
 1129POPI   C1A16609   5.875  12.958   6.689  0.2217  0.2196  0.0124
 1129POPI   D2A16610   5.676  12.721   7.071  0.2036  0.0657 -0.0291
 1129POPI   C3A16611   5.685  12.844   7.539 -0.3110 -0.0906  0.0103
 1129POPI   C4A16612   5.930  12.974   7.840 -0.1111  0.0066  0.1150
 1129POPI   C1B16613   5.993  12.415   6.800 -0.0515  0.1612  0.2655
 1129POPI   C2B16614   6.254  12.497   7.172 -0.2611  0.1301 -0.0643
 1129POPI   C3B16615   6.503  12.405   7.486 -0.2030 -0.1575 -0.1723
 1129POPI   C4B16616   6.392  12.498   7.936  0.0455 -0.1273 -0.3630
 1130POPI    C116617  13.609  16.265   5.390  0.0061  0.0238  0.1120
 1130POPI    C216618  13.861  16.128   5.111 -0.0826  0.0457  0.0204
 1130POPI    C316619  13.469  16.148   5.034 -0.1085  0.0447  0.1498
 1130POPI   PO416620  13.560  16.185   5.596 -0.1372 -0.0001  0.1804
 1130POPI   GL116621  13.495  16.376   6.032 -0.4873 -0.0570 -0.3041
 1130POPI   GL216622  13.607  16.080   6.117  0.0317 -0.3564  0.1409
 1130POPI   C1A16623  13.696  16.533   6.411  0.2257  0.3278 -0.1458
 1130POPI   D2A16624  13.762  16.882   6.483  0.1255 -0.1357 -0.1261
 1130POPI   C3A16625  13.742  17.041   6.860 -0.0807 -0.2035 -0.2247
 1130POPI   C4A16626  13.481  17.058   7.270 -0.1815 -0.2173 -0.1377
 1130POPI   C1B16627  13.563  16.029   6.527  0.1085  0.2207 -0.1279
 1130POPI   C2B16628  13.463  16.106   6.927 -0.3212  0.0548  0.1385
 1130POPI   C3B16629  13.584  16.110   7.297  0.2523 -0.2716 -0.3150
 1130POPI   C4B16630  13.484  16.187   7.650 -0.0354  0.0104  0.3767
 1131POPI    C116631   3.595  17.341   5.818 -0.0022  0.0489 -0.1369
 1131POPI    C216632   3.800  17.328   5.475 -0.0313  0.2277 -0.1620
 1131POPI    C316633   3.401  17.307   5.470 -0.0220  0.0262 -0.1236
 1131POPI   PO416634   3.703  17.603   5.925  0.3480  0.0063 -0.0202
 1131POPI   GL116635   3.593  17.672   6.355  0.0680  0.0532  0.1488
 1131POPI   GL216636   3.421  17.319   6.333  0.0745 -0.0391 -0.0688
 1131POPI   C1A16637   3.611  17.833   6.769  0.2946 -0.1378 -0.1142
 1131POPI   D2A16638   3.690  17.939   7.183  0.0732 -0.1000  0.0343
 1131POPI   C3A16639   3.766  17.711   7.507  0.0357 -0.1209  0.1585
 1131POPI   C4A16640   3.951  17.539   7.915 -0.0341  0.0944 -0.0539
 1131POPI   C1B16641   3.405  17.334   6.838  0.0129 -0.0707  0.0715
 1131POPI   C2B16642   3.389  17.306   7.270 -0.0324  0.1220 -0.1415
 1131POPI   C3B16643   3.347  17.447   7.672 -0.0442  0.2644  0.1063
 1131POPI   C4B16644   3.436  17.697   8.056 -0.0080 -0.1553 -0.2996
 1132POPI    C116645  12.514  13.345   5.560 -0.1692 -0.2398  0.0482
 1132POPI    C216646  12.606  13.162   5.216  0.0390  0.0847 -0.0736
 1132POPI    C316647  12.377  13.489   5.213  0.1903  0.1942  0.0774
 1132POPI   PO416648  12.338  13.132   5.716  0.0439 -0.1508  0.1777
 1132POPI   GL116649  12.378  13.088   6.037 -0.1183 -0.1792  0.1414
 1132POPI   GL216650  12.427  12.813   6.249  0.0040  0.1986  0.0249
 1132POPI   C1A16651  12.194  13.181   6.437 -0.4720  0.2722  0.3484
 1132POPI   D2A16652  12.330  13.216   6.835  0.0855  0.2588 -0.2328
 1132POPI   C3A16653  12.455  13.299   7.216  0.0272  0.1683  0.0895
 1132POPI   C4A16654  12.469  13.378   7.693 -0.1399 -0.0017  0.2371
 1132POPI   C1B16655  12.613  12.864   6.694  0.0939  0.1625 -0.2854
 1132POPI   C2B16656  12.640  12.842   7.173  0.1289 -0.0077  0.2858
 1132POPI   C3B16657  12.714  12.909   7.609 -0.0316 -0.4625  0.0217
 1132POPI   C4B16658  12.880  13.010   7.996 -0.1300  0.2123  0.1585
 1133POPI    C116659  16.671  12.239   5.410 -0.0195  0.0419 -0.2834
 1133POPI    C216660  16.813  11.865   5.405  0.4026  0.1868  0.1208
 1133POPI    C316661  16.872  12.105   5.090  0.0563 -0.1042 -0.1756
 1133POPI   PO416662  16.729  12.346   5.714  0.2512  0.0127 -0.1905
 1133POPI   GL116663  16.549  12.567   6.070  0.0268 -0.0200  0.0470
 1133POPI   GL216664  16.646  12.409   6.225  0.1775  0.0953 -0.2210
 1133POPI   C1A16665  16.875  12.808   6.397  0.1289  0.0685  0.2738
 1133POPI   D2A16666  17.071  12.793   6.807 -0.1427  0.1208  0.1381
 1133POPI   C3A16667  17.133  13.140   7.097  0.0729 -0.2186 -0.2546
 1133POPI   C4A16668  17.073  13.114   7.469  0.0440 -0.0101  0.0674
 1133POPI   C1B16669  16.606  12.501   6.702 -0.2441  0.3743  0.2630
 1133POPI   C2B16670  16.699  12.750   7.100 -0.3013  0.0593 -0.1250
 1133POPI   C3B16671  16.703  12.728   7.582  0.1979 -0.2251 -0.3343
 1133POPI   C4B16672  17.018  12.833   7.972  0.2089  0.0216 -0.0135
 1134POPI    C116673   3.420  13.022   5.631 -0.0101  0.0042 -0.0250
 1134POPI    C216674   3.192  13.320   5.769  0.1392  0.1640 -0.1202
 1134POPI    C316675   3.100  13.141   5.424  0.0237  0.0685 -0.0406
 1134POPI   PO416676   3.452  12.884   5.814 -0.1095  0.2552  0.0935
 1134POPI   GL116677   3.533  13.109   6.192 -0.0349  0.2238  0.2432
 1134POPI   GL216678   3.175  13.004   6.201 -0.1314  0.0839 -0.0113
 1134POPI   C1A16679   3.706  13.131   6.607  0.0946  0.1999  0.2960
 1134POPI   D2A16680   3.905  13.345   6.982  0.0194 -0.2693  0.0865
 1134POPI   C3A16681   3.732  13.344   7.418 -0.0536  0.0374  0.2827
 1134POPI   C4A16682   3.612  13.418   7.866  0.3804  0.1673  0.0865
 1134POPI   C1B16683   3.203  12.989   6.657 -0.0570  0.0598 -0.1490
 1134POPI   C2B16684   3.276  13.037   7.097  0.0446 -0.1893 -0.0247
 1134POPI   C3B16685   3.363  12.906   7.467 -0.0167  0.1162  0.1116
 1134POPI   C4B16686   3.410  12.852   7.925  0.1238  0.2124 -0.2280
 1135POPI    C116687   6.746   7.657   5.203 -0.1392 -0.0811 -0.1819
 1135POPI    C216688   6.523   7.325   5.221  0.1424 -0.2589  0.1502
 1135POPI    C316689   6.920   7.297   5.181  0.1413  0.0475 -0.1117
 1135POPI   PO416690   6.655   7.857   5.406 -0.0152  0.3957 -0.0849
 1135POPI   GL116691   6.637   7.757   5.941 -0.0395  0.1367  0.1521
 1135POPI   GL216692   6.247   7.716   6.063  0.1664 -0.2555  0.6415
 1135POPI   C1A16693   6.772   7.653   6.305 -0.0561  0.1283 -0.1001
 1135POPI   D2A16694   6.810   7.704   6.718  0.0969  0.3829 -0.3400
 1135POPI   C3A16695   6.855   7.708   7.127 -0.1115  0.0394  0.2291
 1135POPI   C4A16696   6.742   7.804   7.423 -0.2672 -0.0546  0.0189
 1135POPI   C1B16697   6.308   7.773   6.492 -0.0418 -0.2426 -0.0720
 1135POPI   C2B16698   6.291   7.779   6.881 -0.3601  0.1114  0.2288
 1135POPI   C3B16699   6.299   7.869   7.204  0.0878  0.2553  0.0471
 1135POPI   C4B16700   6.212   7.819   7.554 -0.1690  0.0576  0.0387
 1136POPI    C116701  14.315   1.034   5.192 -0.1947 -0.1187 -0.1029
 1136POPI    C216702  14.356   0.895   5.565 -0.0371 -0.0243 -0.0842
 1136POPI    C316703  14.672   0.904   5.319 -0.0916  0.1133 -0.1503
 1136POPI   PO416704  14.235   1.287   5.244  0.1049 -0.0344  0.0074
 1136POPI   GL116705  13.889   1.185   5.502  0.0514 -0.0560  0.2936
 1136POPI   GL216706  13.879   0.881   5.484  0.1240  0.2182 -0.0550
 1136POPI   C1A16707  13.828   1.568   5.832  0.1430  0.1250  0.2880
 1136POPI   D2A16708  13.883   1.546   6.283  0.2326  0.0379 -0.1933
 1136POPI   C3A16709  13.869   1.301   6.652 -0.1986  0.2847  0.2249
 1136POPI   C4A16710  13.886   1.373   7.041  0.1704 -0.2881 -0.2152
 1136POPI   C1B16711  13.913   0.886   5.969 -0.1925  0.0461 -0.4911
 1136POPI   C2B16712  14.074   0.864   6.411 -0.0446 -0.0531  0.4639
 1136POPI   C3B16713  13.854   0.829   6.673  0.0131 -0.2639  0.0139
 1136POPI   C4B16714  13.738   0.900   7.097 -0.1644 -0.1281  0.1842
 1137POPI    C116715  12.860  13.764   5.681  0.1941 -0.0689  0.0841
 1137POPI    C216716  13.236  13.635   5.727  0.2085 -0.1686 -0.2833
 1137POPI    C316717  12.989  13.447   5.474 -0.1714 -0.2624  0.1442
 1137POPI   PO416718  12.798  13.838   5.915 -0.1846  0.1667  0.0236
 1137POPI   GL116719  12.725  13.873   6.299  0.1049 -0.0047  0.0291
 1137POPI   GL216720  12.550  13.612   6.442 -0.0055 -0.0329 -0.0357
 1137POPI   C1A16721  12.689  14.028   6.678 -0.1176  0.3581  0.0992
 1137POPI   D2A16722  12.821  14.169   6.999 -0.0879 -0.0360  0.1322
 1137POPI   C3A16723  13.032  14.274   7.402 -0.3312 -0.0781 -0.1199
 1137POPI   C4A16724  13.170  14.603   7.753  0.0155  0.0996 -0.2548
 1137POPI   C1B16725  12.536  13.672   6.923 -0.0279  0.1231 -0.0977
 1137POPI   C2B16726  12.561  13.815   7.355  0.1680 -0.1039 -0.1410
 1137POPI   C3B16727  12.574  13.979   7.767  0.0732  0.0356  0.1679
 1137POPI   C4B16728  12.443  14.019   8.184 -0.0547  0.1040 -0.0572
 1138POPI    C116729   8.727   2.334   4.949 -0.0336 -0.0596  0.0747
 1138POPI    C216730   8.477   2.142   4.702  0.0215 -0.1619  0.0979
 1138POPI    C316731   8.801   2.325   4.556  0.0142 -0.1586  0.0856
 1138POPI   PO416732   8.673   2.221   5.193 -0.0595  0.0938 -0.0444
 1138POPI   GL116733   8.810   2.335   5.603  0.3051 -0.3282  0.0416
 1138POPI   GL216734   8.648   2.072   5.691  0.2232  0.0631 -0.0798
 1138POPI   C1A16735   8.843   2.383   6.084  0.1567 -0.3149 -0.0626
 1138POPI   D2A16736   8.740   2.156   6.368 -0.1129 -0.0370  0.2538
 1138POPI   C3A16737   8.896   2.108   6.812  0.0084 -0.0222  0.2499
 1138POPI   C4A16738   9.062   2.160   7.200 -0.2707  0.1000  0.2721
 1138POPI   C1B16739   8.411   1.964   6.030  0.2168  0.0399  0.1395
 1138POPI   C2B16740   8.394   1.830   6.462 -0.0733 -0.0988 -0.1018
 1138POPI   C3B16741   8.500   1.813   6.830  0.4144  0.0440 -0.2598
 1138POPI   C4B16742   8.654   1.810   7.288  0.2246 -0.3122 -0.0858
 1139POPI    C116743  17.249  11.187   5.617  0.1178  0.0074  0.0228
 1139POPI    C216744  17.581  10.971   5.673 -0.0106 -0.1859  0.0483
 1139POPI    C316745  17.539  11.192   5.342  0.1558 -0.1366  0.0593
 1139POPI   PO416746  17.099  11.039   5.667  0.2059  0.2517  0.1314
 1139POPI   GL116747  16.912  10.959   6.009 -0.0630  0.2392  0.4073
 1139POPI   GL216748  16.839  11.259   6.017 -0.0783 -0.3558 -0.0553
 1139POPI   C1A16749  16.697  10.828   6.380  0.0990  0.2063  0.0274
 1139POPI   D2A16750  16.795  10.657   6.810 -0.1288 -0.1551  0.1301
 1139POPI   C3A16751  16.505  10.594   7.214 -0.2115  0.1431  0.2245
 1139POPI   C4A16752  16.352  10.376   7.613 -0.0645  0.1180 -0.0695
 1139POPI   C1B16753  17.001  11.330   6.356  0.2900  0.0102  0.0636
 1139POPI   C2B16754  16.971  11.197   6.852  0.1953  0.0779 -0.1733
 1139POPI   C3B16755  16.933  10.968   7.226 -0.0596  0.0400 -0.2154
 1139POPI   C4B16756  16.642  10.969   7.533  0.2258 -0.1173  0.1114
 1140POPI    C116757   2.997   4.681   5.377  0.0041 -0.0526  0.0561
 1140POPI    C216758   3.278   4.422   5.262  0.0605  0.0622 -0.0675
 1140POPI    C316759   3.130   4.685   5.000 -0.1850 -0.0173 -0.0116
 1140POPI   PO416760   2.957   4.879   5.580  0.2971  0.0775  0.0510
 1140POPI   GL116761   3.017   4.784   6.025  0.1685 -0.1977 -0.0678
 1140POPI   GL216762   3.197   4.990   6.064 -0.2059 -0.2191  0.2052
 1140POPI   C1A16763   2.991   4.782   6.489 -0.2779 -0.1301  0.0016
 1140POPI   D2A16764   3.019   4.931   6.898  0.0232 -0.1689 -0.0459
 1140POPI   C3A16765   2.944   4.811   7.334  0.0258  0.0584  0.2495
 1140POPI   C4A16766   2.925   5.101   7.672 -0.0184  0.1228 -0.2875
 1140POPI   C1B16767   3.428   4.988   6.467  0.0732 -0.0614 -0.4331
 1140POPI   C2B16768   3.712   5.157   6.799  0.1357 -0.0546 -0.0977
 1140POPI   C3B16769   3.747   5.303   7.195  0.2671  0.1733  0.2680
 1140POPI   C4B16770   3.944   5.574   7.517  0.1479  0.0949 -0.3174
 1141POPI    C116771  16.098  16.869   5.355 -0.2565 -0.0656 -0.1642
 1141POPI    C216772  16.291  16.661   5.073 -0.0733 -0.0925 -0.0210
 1141POPI    C316773  15.963  16.869   4.979 -0.0018 -0.0840 -0.2579
 1141POPI   PO416774  16.097  16.635   5.580 -0.0249  0.1718 -0.4049
 1141POPI   GL116775  16.416  16.394   5.894 -0.1253  0.0973 -0.2969
 1141POPI   GL216776  16.149  16.449   6.164 -0.2928 -0.0619  0.1994
 1141POPI   C1A16777  16.727  16.547   6.267 -0.0011  0.0409  0.1221
 1141POPI   D2A16778  16.817  16.710   6.636  0.4273  0.0580  0.4133
 1141POPI   C3A16779  16.753  16.653   7.031 -0.1042 -0.2302  0.1356
 1141POPI   C4A16780  16.594  16.694   7.375  0.0777  0.0680  0.0955
 1141POPI   C1B16781  16.181  16.568   6.575  0.2083  0.1849 -0.2244
 1141POPI   C2B16782  16.047  16.664   7.025 -0.1435  0.2365  0.1706
 1141POPI   C3B16783  16.071  16.726   7.458 -0.2711 -0.2812  0.2888
 1141POPI   C4B16784  15.928  16.796   7.875 -0.3365  0.0865 -0.1145
 1142POPI    C116785   5.486  13.721   5.751 -0.0037  0.0070  0.3253
 1142POPI    C216786   5.264  14.045   5.676 -0.0686 -0.1122 -0.0153
 1142POPI    C316787   5.181  13.698   5.493  0.3075 -0.1949 -0.0368
 1142POPI   PO416788   5.573  13.745   5.987  0.0395  0.1193 -0.1468
 1142POPI   GL116789   5.416  13.784   6.402  0.0869  0.3371 -0.0235
 1142POPI   GL216790   5.248  13.518   6.401 -0.0164  0.1070 -0.2187
 1142POPI   C1A16791   5.230  13.819   6.822 -0.0858  0.1674  0.0169
 1142POPI   D2A16792   5.246  13.604   7.233 -0.3157  0.1544 -0.2081
 1142POPI   C3A16793   5.235  13.721   7.666  0.0927  0.2264 -0.0381
 1142POPI   C4A16794   5.173  13.572   7.971  0.0612 -0.0816 -0.1214
 1142POPI   C1B16795   5.587  13.423   6.805 -0.0053 -0.2519  0.0359
 1142POPI   C2B16796   5.653  13.220   7.170  0.2311  0.0264 -0.0189
 1142POPI   C3B16797   6.044  13.000   7.134  0.0660  0.1657 -0.2252
 1142POPI   C4B16798   6.332  12.854   6.839 -0.1649  0.0761  0.0235
 1143POPI    C116799  14.323  12.115   5.707  0.0472 -0.0841 -0.3782
 1143POPI    C216800  13.998  12.095   5.939  0.1670  0.1076 -0.1905
 1143POPI    C316801  13.963  12.059   5.543 -0.0325 -0.2802 -0.1424
 1143POPI   PO416802  14.575  11.918   5.832 -0.0412 -0.1425  0.1330
 1143POPI   GL116803  14.877  12.129   6.123 -0.1489  0.1344 -0.1959
 1143POPI   GL216804  15.065  11.969   6.168  0.1133  0.3196  0.2481
 1143POPI   C1A16805  14.868  11.918   6.605  0.0322 -0.1116  0.1304
 1143POPI   D2A16806  14.934  11.852   6.942 -0.3856 -0.5294  0.1360
 1143POPI   C3A16807  14.654  11.667   7.136  0.0965  0.1226 -0.0825
 1143POPI   C4A16808  14.479  11.584   7.561 -0.2753  0.2111 -0.0726
 1143POPI   C1B16809  15.111  11.504   6.364  0.4107 -0.0862 -0.4944
 1143POPI   C2B16810  15.040  11.397   6.862 -0.2338  0.3961 -0.0439
 1143POPI   C3B16811  15.066  11.482   7.363  0.2936 -0.0805  0.3545
 1143POPI   C4B16812  15.115  11.578   7.790 -0.1480 -0.1634 -0.0250
 1144POPI    C116813   8.893   3.859   5.502 -0.2339  0.1674 -0.0415
 1144POPI    C216814   8.653   4.034   5.235 -0.0846  0.1566 -0.1849
 1144POPI    C316815   9.049   4.038   5.180 -0.0662 -0.0370 -0.0768
 1144POPI   PO416816   8.795   3.666   5.557 -0.1576  0.1925 -0.0545
 1144POPI   GL116817   8.435   3.744   5.874 -0.1835  0.1372 -0.2130
 1144POPI   GL216818   8.617   4.132   5.864  0.1767  0.2101  0.0789
 1144POPI   C1A16819   8.473   3.840   6.243  0.0978  0.1137 -0.2031
 1144POPI   D2A16820   8.557   3.708   6.696  0.1374  0.2975 -0.0928
 1144POPI   C3A16821   8.619   3.692   7.017  0.0858  0.4525 -0.1766
 1144POPI   C4A16822   8.841   3.567   7.307 -0.1766  0.1681  0.0869
 1144POPI   C1B16823   8.831   4.141   6.209 -0.3074 -0.0194  0.0564
 1144POPI   C2B16824   8.876   4.063   6.641  0.1406  0.0613 -0.0169
 1144POPI   C3B16825   8.941   4.038   7.087  0.0906  0.1114  0.0592
 1144POPI   C4B16826   9.233   3.949   7.426 -0.0014  0.1099 -0.4081
 1145POPI    C116827   4.664   0.344   5.613  0.2041  0.1521  0.1198
 1145POPI    C216828   4.945   0.554   5.421  0.2195 -0.1094 -0.1503
 1145POPI    C316829   4.882   0.170   5.327 -0.1531 -0.0854 -0.0151
 1145POPI   PO416830   4.714   0.354   5.850 -0.2696  0.3282  0.1270
 1145POPI   GL116831   4.687   0.526   6.210 -0.0011  0.0286  0.2204
 1145POPI   GL216832   4.431   0.290   6.246 -0.0298 -0.1084 -0.0951
 1145POPI   C1A16833   5.039   0.534   6.465  0.2116  0.1232  0.1488
 1145POPI   D2A16834   5.233   0.584   6.805 -0.2199  0.1963  0.1064
 1145POPI   C3A16835   5.303   0.552   7.263  0.2084 -0.1861 -0.2851
 1145POPI   C4A16836   5.384   0.576   7.550 -0.0216  0.2974 -0.3888
 1145POPI   C1B16837   4.552   0.272   6.628  0.6081  0.1285 -0.0915
 1145POPI   C2B16838   4.472   0.336   7.032  0.0688  0.0877  0.0053
 1145POPI   C3B16839   4.504   0.357   7.495  0.1652  0.3017  0.1795
 1145POPI   C4B16840   4.597   0.204   7.826 -0.2893  0.0885  0.2143
 1146POPI    C116841   2.926   7.527   5.895  0.1410 -0.2935 -0.0511
 1146POPI    C216842   2.541   7.554   6.000  0.2089  0.1984  0.0980
 1146POPI    C316843   2.641   7.510   5.616  0.0067  0.0545  0.0600
 1146POPI   PO416844   3.035   7.459   6.098  0.3171  0.4295 -0.0357
 1146POPI   GL116845   3.020   7.454   6.490 -0.2730 -0.0529 -0.3322
 1146POPI   GL216846   2.761   7.704   6.401  0.1261 -0.0622 -0.0532
 1146POPI   C1A16847   3.111   7.489   6.907 -0.1829  0.1423 -0.1162
 1146POPI   D2A16848   3.194   7.419   7.341 -0.1906  0.1012 -0.1198
 1146POPI   C3A16849   3.033   7.101   7.569  0.0013 -0.0672  0.2872
 1146POPI   C4A16850   3.002   6.680   7.589 -0.0884 -0.2356 -0.0615
 1146POPI   C1B16851   2.893   7.911   6.776 -0.0259 -0.6559  0.0303
 1146POPI   C2B16852   2.949   7.862   7.254 -0.2134 -0.1107  0.2182
 1146POPI   C3B16853   2.797   7.915   7.636  0.1087 -0.1704  0.1615
 1146POPI   C4B16854   2.931   7.918   8.036  0.2212  0.0223  0.1507
 1147DPPI    C116855   5.618  10.756   5.756 -0.2058  0.0151  0.0467
 1147DPPI    C216856   5.411  11.045   5.572 -0.0664  0.1628  0.1196
 1147DPPI    C316857   5.810  11.031   5.538 -0.0834 -0.1011  0.0066
 1147DPPI   PO416858   5.567  10.818   6.016 -0.0344 -0.4105  0.1112
 1147DPPI   GL116859   5.684  10.750   6.347 -0.3649 -0.0892  0.0997
 1147DPPI   GL216860   5.907  10.758   6.640 -0.0211 -0.2330  0.0252
 1147DPPI   C1A16861   5.725  10.321   6.522 -0.0656  0.0629 -0.0127
 1147DPPI   C2A16862   5.495  10.259   6.839 -0.2390 -0.0037 -0.0852
 1147DPPI   C3A16863   5.529  10.025   7.217  0.0324 -0.4876  0.3185
 1147DPPI   C4A16864   5.689   9.592   7.492  0.1114  0.2949  0.0221
 1147DPPI   C1B16865   5.994  10.648   6.996 -0.1387  0.2581 -0.4642
 1147DPPI   C2B16866   6.188  10.599   7.401 -0.3707 -0.0048  0.1000
 1147DPPI   C3B16867   6.131  10.684   7.722  0.0271 -0.1669 -0.0044
 1147DPPI   C4B16868   5.875  10.749   8.136 -0.0675 -0.0827  0.0013
 1148DPPI    C116869   1.198  17.657   5.716  0.2031 -0.2030 -0.0594
 1148DPPI    C216870   1.295  17.322   5.520 -0.1377 -0.2817 -0.1006
 1148DPPI    C316871   0.989  17.546   5.394  0.0226 -0.0073 -0.0118
 1148DPPI   PO416872   1.102  17.491   5.967 -0.0016 -0.0206 -0.0917
 1148DPPI   GL116873   1.210  17.477   6.353 -0.0426 -0.3272 -0.2804
 1148DPPI   GL216874   0.965  17.229   6.404 -0.1297 -0.2054  0.1834
 1148DPPI   C1A16875   1.228  17.658   6.725 -0.0665  0.0113  0.0261
 1148DPPI   C2A16876   1.134  17.597   7.049 -0.0307 -0.1879 -0.4351
 1148DPPI   C3A16877   1.128  17.726   7.377 -0.1966  0.1892 -0.1954
 1148DPPI   C4A16878   0.896  17.975   7.766  0.0341  0.1198 -0.1266
 1148DPPI   C1B16879   1.012  17.114   6.791  0.2219  0.2314 -0.0227
 1148DPPI   C2B16880   1.127  17.143   7.192  0.1776  0.2102 -0.0726
 1148DPPI   C3B16881   1.142  17.218   7.627 -0.0427 -0.0483 -0.2392
 1148DPPI   C4B16882   1.473  17.483   7.887 -0.1975  0.2039  0.5625
 1149DPPI    C116883  15.412  11.817   5.673 -0.0625 -0.4702 -0.2322
 1149DPPI    C216884  15.043  11.970   5.686 -0.0667 -0.4889 -0.1193
 1149DPPI    C316885  15.227  11.921   5.335  0.0346  0.0145 -0.1429
 1149DPPI   PO416886  15.625  11.905   5.902 -0.1515  0.1576  0.0930
 1149DPPI   GL116887  15.625  11.897   6.256 -0.0811 -0.1341  0.2660
 1149DPPI   GL216888  15.852  12.155   6.284 -0.2036 -0.0613 -0.2821
 1149DPPI   C1A16889  15.344  11.883   6.660  0.2460  0.1708  0.0492
 1149DPPI   C2A16890  15.387  11.978   7.228 -0.1173 -0.1683  0.2412
 1149DPPI   C3A16891  15.483  11.671   7.498 -0.3642 -0.0234 -0.0791
 1149DPPI   C4A16892  15.626  11.714   7.818 -0.1145  0.1553  0.1645
 1149DPPI   C1B16893  15.851  11.862   6.668 -0.0324  0.1691 -0.2264
 1149DPPI   C2B16894  15.857  11.921   7.040 -0.0920 -0.0313  0.3316
 1149DPPI   C3B16895  15.897  11.941   7.449  0.0995  0.0263 -0.3452
 1149DPPI   C4B16896  15.843  12.318   7.680  0.0311 -0.1008 -0.0111
 1150DPPI    C116897  12.989  12.931   5.431  0.1433  0.3082  0.0916
 1150DPPI    C216898  13.128  13.153   5.128 -0.0528  0.0703 -0.1784
 1150DPPI    C316899  13.129  12.754   5.100 -0.1716  0.0488  0.0928
 1150DPPI   PO416900  13.149  13.035   5.690  0.2784 -0.2200 -0.0025
 1150DPPI   GL116901  13.424  12.819   6.031 -0.2665  0.0466  0.3102
 1150DPPI   GL216902  13.490  12.459   6.155  0.0407  0.0136 -0.0582
 1150DPPI   C1A16903  13.418  12.949   6.425  0.1424  0.0542 -0.0632
 1150DPPI   C2A16904  13.120  12.845   6.790 -0.1361  0.2153 -0.0589
 1150DPPI   C3A16905  13.102  12.705   7.230  0.0817  0.1317  0.0618
 1150DPPI   C4A16906  13.165  12.669   7.721 -0.0558  0.2473 -0.1039
 1150DPPI   C1B16907  13.664  12.542   6.547  0.2501 -0.0610  0.2124
 1150DPPI   C2B16908  13.554  12.730   7.037  0.2338 -0.0743  0.0903
 1150DPPI   C3B16909  13.782  12.779   7.339  0.1258  0.2123 -0.2217
 1150DPPI   C4B16910  13.746  12.592   7.678  0.1092  0.1528 -0.1581
 1151DPPI    C116911  17.652   3.360   5.623  0.2649  0.0112 -0.0547
 1151DPPI    C216912  17.661   3.653   5.896 -0.0159 -0.0351  0.0074
 1151DPPI    C316913  17.848   3.700   5.545  0.0597  0.1611  0.0726
 1151DPPI   PO416914  17.610   3.151   5.823 -0.1905 -0.2255 -0.0987
 1151DPPI   GL116915  17.499   3.253   6.249  0.0179  0.0411 -0.0472
 1151DPPI   GL216916  17.383   3.017   6.368  0.0767 -0.1063 -0.4637
 1151DPPI   C1A16917  17.407   3.462   6.581  0.0873  0.1509 -0.2160
 1151DPPI   C2A16918  17.606   3.549   6.913 -0.2922 -0.1988  0.0797
 1151DPPI   C3A16919  17.564   3.561   7.302  0.1302  0.1304 -0.0195
 1151DPPI   C4A16920  17.619   3.394   7.768 -0.1409  0.2039  0.1199
 1151DPPI   C1B16921  17.366   3.032   6.848  0.1774 -0.0957 -0.1947
 1151DPPI   C2B16922  17.145   3.118   7.179 -0.0851  0.1499 -0.3066
 1151DPPI   C3B16923  16.892   3.121   7.566  0.2491 -0.4759 -0.0753
 1151DPPI   C4B16924  16.837   3.254   8.047  0.1025 -0.3725  0.0512
 1152DPPI    C116925   8.213  10.562   5.756  0.0116  0.0334  0.1907
 1152DPPI    C216926   8.513  10.597   5.494  0.0412 -0.1431  0.1999
 1152DPPI    C316927   8.358  10.237   5.574 -0.0441 -0.0760  0.3396
 1152DPPI   PO416928   8.311  10.670   6.009 -0.0862 -0.0337  0.0647
 1152DPPI   GL116929   8.417  11.082   6.310 -0.1908  0.0533 -0.1812
 1152DPPI   GL216930   8.610  10.870   6.383  0.0179  0.2044  0.1067
 1152DPPI   C1A16931   8.329  11.236   6.779 -0.1273 -0.0888  0.2237
 1152DPPI   C2A16932   8.459  11.120   7.268  0.0653 -0.1677  0.4205
 1152DPPI   C3A16933   8.086  10.814   7.316  0.1218 -0.0535  0.0941
 1152DPPI   C4A16934   7.706  10.740   7.116  0.0608 -0.2157  0.0309
 1152DPPI   C1B16935   8.893  10.526   6.495 -0.1807  0.0040  0.0948
 1152DPPI   C2B16936   8.997  10.433   6.899 -0.2447  0.0646 -0.2436
 1152DPPI   C3B16937   9.175  10.385   7.378 -0.2560 -0.1171  0.0421
 1152DPPI   C4B16938   9.210  10.283   7.809  0.0778 -0.3306  0.0246
 1153DPPI    C116939  10.960   2.832   5.354 -0.2176 -0.0081  0.0253
 1153DPPI    C216940  10.586   2.904   5.234 -0.1691 -0.0094 -0.1296
 1153DPPI    C316941  10.851   2.749   4.978 -0.1018 -0.1455  0.0209
 1153DPPI   PO416942  11.114   3.004   5.487 -0.2824  0.1099 -0.1225
 1153DPPI   GL116943  11.411   2.938   5.777  0.0085  0.0062  0.0725
 1153DPPI   GL216944  11.346   2.651   5.931  0.1048 -0.3145 -0.0700
 1153DPPI   C1A16945  11.229   3.155   6.223 -0.0293  0.1669  0.1232
 1153DPPI   C2A16946  11.277   3.226   6.649  0.1729 -0.1789 -0.2358
 1153DPPI   C3A16947  11.319   3.221   7.076 -0.0764 -0.1548  0.0326
 1153DPPI   C4A16948  11.156   3.400   7.450  0.0918 -0.4159  0.3734
 1153DPPI   C1B16949  11.231   2.690   6.416  0.0558 -0.0762  0.2152
 1153DPPI   C2B16950  11.326   2.752   6.868 -0.3806 -0.0528  0.1246
 1153DPPI   C3B16951  11.370   2.747   7.298 -0.0474  0.1784 -0.4620
 1153DPPI   C4B16952  11.494   3.009   7.526  0.1214 -0.0379 -0.2205
 1154DPPI    C116953  15.316  15.284   5.060 -0.1698 -0.0682 -0.0937
 1154DPPI    C216954  15.316  15.674   4.970  0.1232 -0.0454 -0.0070
 1154DPPI    C316955  15.234  15.403   4.687 -0.0190  0.0747 -0.0822
 1154DPPI   PO416956  15.342  15.232   5.416 -0.0436 -0.1876  0.0884
 1154DPPI   GL116957  15.413  15.294   5.898  0.0422 -0.1056 -0.0110
 1154DPPI   GL216958  15.273  15.586   5.987 -0.1243  0.2593  0.4016
 1154DPPI   C1A16959  15.534  15.056   6.191 -0.3084 -0.0111  0.0465
 1154DPPI   C2A16960  15.621  14.825   6.552  0.2232  0.1496 -0.2188
 1154DPPI   C3A16961  15.780  14.907   6.939  0.0854 -0.1935 -0.0775
 1154DPPI   C4A16962  15.642  14.846   7.351 -0.0911 -0.1028 -0.0761
 1154DPPI   C1B16963  15.434  15.548   6.384 -0.1146  0.0650  0.0269
 1154DPPI   C2B16964  15.504  15.276   6.748  0.1656 -0.0572  0.0621
 1154DPPI   C3B16965  15.612  15.338   7.148  0.2887  0.1312  0.0312
 1154DPPI   C4B16966  15.565  15.403   7.573 -0.2481  0.3461 -0.0837
 1155DPPI    C116967   4.492  10.722   5.733  0.0355  0.0407 -0.2763
 1155DPPI    C216968   4.747  10.460   5.894 -0.0050  0.1109 -0.0961
 1155DPPI    C316969   4.758  10.534   5.501 -0.1843 -0.3766 -0.2000
 1155DPPI   PO416970   4.396  10.880   5.928  0.1812  0.0629 -0.2687
 1155DPPI   GL116971   4.298  11.067   6.277 -0.1822  0.0660 -0.2967
 1155DPPI   GL216972   3.953  11.152   6.501  0.2088 -0.4129  0.1068
 1155DPPI   C1A16973   4.323  11.008   6.758  0.1597 -0.0735  0.1085
 1155DPPI   C2A16974   4.346  10.834   7.046  0.0040 -0.0111  0.1857
 1155DPPI   C3A16975   4.399  10.881   7.434  0.1377  0.2049  0.2182
 1155DPPI   C4A16976   4.475  10.916   7.946  0.0285 -0.1181 -0.0155
 1155DPPI   C1B16977   3.914  11.194   6.944  0.2545  0.0141  0.1105
 1155DPPI   C2B16978   3.935  11.075   7.351 -0.2192 -0.0158 -0.0795
 1155DPPI   C3B16979   4.028  11.158   7.754  0.0360 -0.0741 -0.1732
 1155DPPI   C4B16980   4.116  11.143   8.212 -0.0172  0.1780 -0.2315
 1156DPPI    C116981   7.937  12.127   6.051  0.0136 -0.0890 -0.0116
 1156DPPI    C216982   7.800  12.043   5.685  0.1299 -0.1174 -0.0490
 1156DPPI    C316983   8.177  11.952   5.783  0.1285 -0.0219  0.0467
 1156DPPI   PO416984   7.760  12.023   6.256 -0.0120  0.1662  0.4275
 1156DPPI   GL116985   7.493  12.133   6.514 -0.1505 -0.0054  0.2369
 1156DPPI   GL216986   7.192  12.003   6.518  0.1654 -0.2606 -0.1281
 1156DPPI   C1A16987   7.643  12.234   6.888  0.3194  0.1679 -0.0076
 1156DPPI   C2A16988   7.643  12.158   7.329 -0.0892  0.0799  0.1539
 1156DPPI   C3A16989   7.668  12.273   7.600 -0.1050  0.0827 -0.0906
 1156DPPI   C4A16990   7.681  12.392   8.127 -0.2900  0.2837  0.0222
 1156DPPI   C1B16991   7.123  12.171   6.948 -0.0550 -0.1205  0.0734
 1156DPPI   C2B16992   7.004  12.343   7.327  0.2684 -0.2099  0.1040
 1156DPPI   C3B16993   6.880  12.255   7.763  0.1062  0.3185 -0.0636
 1156DPPI   C4B16994   6.717  12.061   8.160 -0.0009 -0.4447 -0.0529
 1157DPPI    C116995   3.401   6.584   5.746 -0.0539 -0.1714 -0.1978
 1157DPPI    C216996   3.322   6.415   5.392  0.0569 -0.0277 -0.2922
 1157DPPI    C316997   3.697   6.522   5.483  0.0193 -0.0125 -0.1542
 1157DPPI   PO416998   3.309   6.479   5.954 -0.1273 -0.2214 -0.1899
 1157DPPI   GL116999   3.341   6.462   6.353  0.1386  0.0003 -0.1357
 1157DPPI   GL217000   3.566   6.290   6.398  0.2716  0.1414  0.1309
 1157DPPI   C1A17001   3.249   6.423   6.779  0.0571 -0.0081  0.1064
 1157DPPI   C2A17002   3.267   6.517   7.186 -0.0377  0.1905 -0.2638
 1157DPPI   C3A17003   3.438   6.422   7.555 -0.1674  0.1355  0.0433
 1157DPPI   C4A17004   3.574   6.438   8.026 -0.1543  0.0037 -0.1558
 1157DPPI   C1B17005   3.737   6.401   6.858 -0.0540 -0.1490 -0.1193
 1157DPPI   C2B17006   3.794   6.470   7.254  0.1981  0.1349 -0.0645
 1157DPPI   C3B17007   3.976   6.529   7.616 -0.1098  0.1210 -0.2417
 1157DPPI   C4B17008   4.070   6.397   8.040 -0.1342  0.2444  0.1897
 1158DPPI    C117009  11.898   2.213   5.279  0.1551  0.2730  0.2607
 1158DPPI    C217010  11.722   1.925   5.493  0.2137  0.1205  0.1058
 1158DPPI    C317011  11.543   2.068   5.165  0.3406  0.0193 -0.0087
 1158DPPI   PO417012  11.936   2.382   5.404  0.0722 -0.1392  0.0843
 1158DPPI   GL117013  12.222   2.348   5.688 -0.0433  0.0589  0.1166
 1158DPPI   GL217014  12.177   2.010   5.828  0.0304 -0.2249  0.2601
 1158DPPI   C1A17015  12.280   2.446   6.142  0.0601 -0.1187  0.1251
 1158DPPI   C2A17016  12.318   2.616   6.514 -0.1829 -0.1659  0.1100
 1158DPPI   C3A17017  12.309   2.633   6.930 -0.1236  0.1440  0.2076
 1158DPPI   C4A17018  12.262   2.799   7.288  0.6421  0.3874  0.2328
 1158DPPI   C1B17019  12.179   1.941   6.226 -0.3172 -0.2277 -0.0636
 1158DPPI   C2B17020  12.186   2.053   6.714  0.1439  0.0318 -0.2384
 1158DPPI   C3B17021  12.227   2.101   7.096  0.2288 -0.1559  0.0138
 1158DPPI   C4B17022  12.185   2.136   7.590  0.1674 -0.2153 -0.0322
 1159DPPI    C117023  12.922  14.547   5.195  0.1109  0.1240  0.1425
 1159DPPI    C217024  13.170  14.809   5.021 -0.0422  0.1503 -0.0392
 1159DPPI    C317025  13.136  14.438   4.875  0.0042  0.0990  0.0793
 1159DPPI   PO417026  12.886  14.690   5.508 -0.0990 -0.3244  0.0969
 1159DPPI   GL117027  12.845  14.839   5.888 -0.1422  0.0384 -0.0886
 1159DPPI   GL217028  13.144  14.621   5.896 -0.1585  0.1269  0.0171
 1159DPPI   C1A17029  12.941  15.120   6.285 -0.2384 -0.1837 -0.1064
 1159DPPI   C2A17030  12.903  15.128   6.736 -0.1373  0.0472 -0.0542
 1159DPPI   C3A17031  13.014  15.200   7.261  0.0188  0.0815 -0.0308
 1159DPPI   C4A17032  13.121  15.282   7.724  0.0783  0.1391  0.3502
 1159DPPI   C1B17033  13.389  14.647   6.196 -0.2031  0.0304 -0.0938
 1159DPPI   C2B17034  13.446  14.969   6.472  0.1481  0.2699 -0.1683
 1159DPPI   C3B17035  13.431  15.077   6.919 -0.2926  0.0442  0.0291
 1159DPPI   C4B17036  13.514  15.278   7.289 -0.1567 -0.0615 -0.1050
 1160DPPI    C117037   8.439   6.711   5.310 -0.0542 -0.0291  0.0171
 1160DPPI    C217038   8.786   6.909   5.279 -0.0473 -0.0448 -0.0055
 1160DPPI    C317039   8.638   6.714   4.962 -0.0038 -0.1598  0.0442
 1160DPPI   PO417040   8.316   6.848   5.522  0.0927  0.2372  0.0652
 1160DPPI   GL117041   8.369   7.015   5.933 -0.1836 -0.1872  0.0264
 1160DPPI   GL217042   8.623   7.175   5.984 -0.0282 -0.1779 -0.0015
 1160DPPI   C1A17043   8.075   7.040   6.161 -0.0068 -0.0561  0.1228
 1160DPPI   C2A17044   8.067   7.045   6.605  0.4308 -0.1237  0.2477
 1160DPPI   C3A17045   8.097   7.141   6.952 -0.2241  0.2008 -0.0877
 1160DPPI   C4A17046   8.043   7.243   7.427  0.0155 -0.0456  0.0699
 1160DPPI   C1B17047   8.564   7.035   6.457  0.1173  0.0397 -0.0568
 1160DPPI   C2B17048   8.598   7.103   6.852  0.3271 -0.4053 -0.2953
 1160DPPI   C3B17049   8.704   7.143   7.301  0.2445  0.0000 -0.0956
 1160DPPI   C4B17050   8.704   7.105   7.788 -0.1526  0.1096 -0.0402
 1161DPPI    C117051  11.276  15.167   5.616 -0.3513  0.0392 -0.4180
 1161DPPI    C217052  11.619  15.253   5.430 -0.1772 -0.1029 -0.1692
 1161DPPI    C317053  11.298  15.486   5.376  0.0780  0.2812 -0.0723
 1161DPPI   PO417054  11.360  15.189   5.889  0.1717 -0.0392 -0.4223
 1161DPPI   GL117055  11.669  15.307   6.138 -0.0646  0.1391 -0.4107
 1161DPPI   GL217056  11.420  15.501   6.262 -0.3542  0.0438 -0.4769
 1161DPPI   C1A17057  11.943  15.605   6.423  0.0380  0.1641  0.0396
 1161DPPI   C2A17058  11.997  15.594   6.906  0.2852 -0.1256 -0.0382
 1161DPPI   C3A17059  12.162  15.686   7.233 -0.0161  0.1008 -0.0136
 1161DPPI   C4A17060  12.310  15.721   7.569 -0.0739  0.1978 -0.1574
 1161DPPI   C1B17061  11.122  15.562   6.577  0.0526  0.2066 -0.4860
 1161DPPI   C2B17062  11.009  15.592   7.006  0.1393  0.2152  0.0566
 1161DPPI   C3B17063  10.972  15.795   7.393  0.0760 -0.0845  0.2267
 1161DPPI   C4B17064  11.259  15.866   7.644 -0.0288 -0.1191 -0.3813
 1162DPPI    C117065  16.417   0.224   5.234  0.3392 -0.1133  0.0304
 1162DPPI    C217066  16.289   0.474   4.949  0.2047 -0.0820  0.1173
 1162DPPI    C317067  16.611   0.246   4.886  0.1109 -0.1566 -0.1020
 1162DPPI   PO417068  16.264   0.170   5.460 -0.1966  0.2775  0.0157
 1162DPPI   GL117069  16.365   0.252   5.874 -0.0309 -0.1423 -0.3402
 1162DPPI   GL217070  16.630   0.442   6.029 -0.2930  0.0594  0.1213
 1162DPPI   C1A17071  16.156   0.392   6.206  0.1024 -0.0677 -0.0038
 1162DPPI   C2A17072  16.149   0.476   6.628  0.0958 -0.1312  0.1212
 1162DPPI   C3A17073  16.060   0.547   7.030 -0.0380 -0.1239 -0.2163
 1162DPPI   C4A17074  15.968   0.565   7.500  0.3928 -0.2237 -0.0731
 1162DPPI   C1B17075  16.743   0.398   6.430  0.1553 -0.1844  0.0867
 1162DPPI   C2B17076  16.659   0.163   6.824  0.2299 -0.0735 -0.2385
 1162DPPI   C3B17077  16.421   0.262   7.225 -0.0081 -0.1095  0.0858
 1162DPPI   C4B17078  16.288   0.146   7.684 -0.0741  0.2223  0.1507
 1163DPPI    C117079  10.751  15.191   5.592  0.0738  0.0044  0.1020
 1163DPPI    C217080  10.384  15.316   5.493  0.0223  0.0829  0.3817
 1163DPPI    C317081  10.524  14.970   5.349 -0.0262  0.2181 -0.0013
 1163DPPI   PO417082  10.792  15.258   5.837 -0.0632  0.0770  0.3631
 1163DPPI   GL117083  10.995  15.137   6.274  0.0673  0.2490  0.0524
 1163DPPI   GL217084  10.811  14.921   6.221 -0.2617  0.0786  0.3352
 1163DPPI   C1A17085  11.019  15.127   6.720  0.1341 -0.1862  0.1477
 1163DPPI   C2A17086  11.077  15.082   7.120  0.0252 -0.0229 -0.0184
 1163DPPI   C3A17087  10.880  15.222   7.518 -0.0898  0.2806  0.0172
 1163DPPI   C4A17088  10.852  15.051   7.848 -0.1228  0.2665 -0.0858
 1163DPPI   C1B17089  10.566  14.851   6.524 -0.4650 -0.2169 -0.0498
 1163DPPI   C2B17090  10.297  14.752   6.815 -0.1204 -0.0783 -0.2888
 1163DPPI   C3B17091  10.212  14.410   7.082  0.1873  0.0563 -0.1351
 1163DPPI   C4B17092  10.367  14.323   7.493 -0.0571  0.1577 -0.1654
 1164DPPI    C117093   9.955   5.989   5.570  0.1567  0.0851  0.0862
 1164DPPI    C217094  10.120   5.933   5.210 -0.2823 -0.2903 -0.0662
 1164DPPI    C317095  10.337   5.875   5.541  0.1324  0.0819 -0.2628
 1164DPPI   PO417096   9.821   6.199   5.616 -0.2254 -0.0932  0.3684
 1164DPPI   GL117097   9.705   6.305   5.965  0.0843  0.0029  0.0724
 1164DPPI   GL217098   9.926   6.493   6.082 -0.3888 -0.0847 -0.0302
 1164DPPI   C1A17099   9.808   6.177   6.431 -0.0314 -0.3196  0.1815
 1164DPPI   C2A17100   9.963   6.077   6.869  0.1147  0.1343 -0.0149
 1164DPPI   C3A17101  10.098   6.006   7.280  0.0649  0.4157 -0.0200
 1164DPPI   C4A17102   9.898   5.896   7.770  0.0209  0.0685  0.0899
 1164DPPI   C1B17103   9.818   6.753   6.423  0.2392  0.0190 -0.1093
 1164DPPI   C2B17104   9.829   6.569   6.810  0.3836  0.0457 -0.0548
 1164DPPI   C3B17105   9.878   6.456   7.234  0.0295  0.2620 -0.0423
 1164DPPI   C4B17106   9.958   6.352   7.649  0.0230 -0.1346 -0.1112
 1165DPPI    C117107   7.508   7.943   5.333 -0.2027 -0.0039  0.0550
 1165DPPI    C217108   7.253   7.662   5.204 -0.0522 -0.0557 -0.1354
 1165DPPI    C317109   7.568   7.764   4.980  0.1497 -0.0606  0.1401
 1165DPPI   PO417110   7.572   7.909   5.588 -0.2137  0.0054 -0.2180
 1165DPPI   GL117111   7.574   7.509   5.821 -0.0602  0.1912  0.2008
 1165DPPI   GL217112   7.551   7.161   6.009  0.1855  0.1000 -0.2368
 1165DPPI   C1A17113   7.821   7.522   6.245  0.2782  0.2271 -0.0181
 1165DPPI   C2A17114   7.865   7.535   6.658  0.0261  0.3186 -0.1506
 1165DPPI   C3A17115   7.860   7.612   7.111  0.1454  0.2566 -0.1460
 1165DPPI   C4A17116   7.756   7.637   7.515  0.1492 -0.0066 -0.4434
 1165DPPI   C1B17117   7.526   7.173   6.487  0.2949 -0.1301  0.0498
 1165DPPI   C2B17118   7.600   7.165   6.902 -0.0263 -0.0609 -0.1745
 1165DPPI   C3B17119   7.500   7.181   7.279 -0.0837 -0.0895  0.1810
 1165DPPI   C4B17120   7.487   7.155   7.695 -0.0681 -0.0564  0.2760
 1166DPPI    C117121   3.236   3.496   5.313  0.1988  0.1334  0.0572
 1166DPPI    C217122   3.413   3.256   5.047 -0.1200 -0.1362  0.0813
 1166DPPI    C317123   3.250   3.601   4.928 -0.0505 -0.1419 -0.0317
 1166DPPI   PO417124   3.444   3.515   5.596 -0.1296 -0.2963  0.1661
 1166DPPI   GL117125   3.444   3.413   6.007  0.1064  0.1237  0.2516
 1166DPPI   GL217126   3.500   3.143   5.921  0.0322 -0.0883 -0.1182
 1166DPPI   C1A17127   3.003   3.478   6.366  0.0416  0.3129  0.1493
 1166DPPI   C2A17128   2.760   3.405   6.704  0.1714  0.2752 -0.0278
 1166DPPI   C3A17129   2.926   3.388   7.136 -0.0385 -0.0602 -0.1566
 1166DPPI   C4A17130   3.320   3.429   7.248  0.1731  0.0330 -0.0842
 1166DPPI   C1B17131   3.571   3.151   6.393 -0.1701 -0.0180 -0.0820
 1166DPPI   C2B17132   3.802   3.242   6.747 -0.0897  0.0638 -0.0116
 1166DPPI   C3B17133   3.792   3.308   7.208 -0.0869 -0.0586  0.2001
 1166DPPI   C4B17134   3.971   3.050   7.579 -0.0744  0.2030  0.0614
 1167DPPI    C117135   3.677   9.961   5.584 -0.2944 -0.0180 -0.0671
 1167DPPI    C217136   3.829  10.150   5.266 -0.2346  0.0158 -0.0185
 1167DPPI    C317137   3.446  10.036   5.266 -0.2403  0.0342 -0.0942
 1167DPPI   PO417138   3.792  10.053   5.788 -0.0524  0.2948  0.3933
 1167DPPI   GL117139   3.899  10.117   6.119 -0.1302 -0.0460 -0.1123
 1167DPPI   GL217140   3.714  10.250   6.424  0.0027 -0.0512  0.0801
 1167DPPI   C1A17141   4.059   9.863   6.427  0.0249 -0.2717  0.0414
 1167DPPI   C2A17142   4.275   9.818   6.800 -0.1199 -0.1582 -0.0384
 1167DPPI   C3A17143   4.305   9.827   7.263 -0.0946  0.4207 -0.1939
 1167DPPI   C4A17144   4.282   9.917   7.654 -0.5493  0.0036 -0.0247
 1167DPPI   C1B17145   3.864  10.150   6.778 -0.0286 -0.0997  0.1146
 1167DPPI   C2B17146   3.882  10.111   7.130  0.2732  0.0558  0.0673
 1167DPPI   C3B17147   3.745  10.188   7.600  0.1909 -0.3118 -0.0075
 1167DPPI   C4B17148   3.814  10.192   7.978  0.2052 -0.0438 -0.0319
 1168DPPI    C117149   5.108  11.823   6.013 -0.1953  0.0447 -0.1039
 1168DPPI    C217150   4.726  11.846   6.131 -0.0866  0.1543  0.2361
 1168DPPI    C317151   4.929  12.180   6.046 -0.0994  0.0890 -0.0608
 1168DPPI   PO417152   5.114  11.543   6.159  0.0606  0.2223  0.0203
 1168DPPI   GL117153   5.024  11.559   6.639  0.1970 -0.1742  0.1143
 1168DPPI   GL217154   4.965  11.889   6.579  0.1900  0.2211 -0.1450
 1168DPPI   C1A17155   5.090  11.228   7.015 -0.0604  0.0923 -0.1311
 1168DPPI   C2A17156   4.958  11.241   7.392 -0.0915 -0.0659 -0.0499
 1168DPPI   C3A17157   5.097  11.579   7.723 -0.0800  0.1249  0.1671
 1168DPPI   C4A17158   5.050  11.701   8.078  0.0484  0.0953 -0.2982
 1168DPPI   C1B17159   4.946  11.738   7.097 -0.2169  0.0092 -0.2295
 1168DPPI   C2B17160   4.793  11.825   7.401 -0.1626  0.2343 -0.0668
 1168DPPI   C3B17161   4.698  11.897   7.814 -0.3515  0.0222 -0.1501
 1168DPPI   C4B17162   4.928  12.224   8.078  0.1138  0.0977 -0.3699
 1169DPPI    C117163   9.219  15.287   5.840 -0.0926 -0.0957 -0.1046
 1169DPPI    C217164   9.509  15.559   5.793  0.0119 -0.2098 -0.1235
 1169DPPI    C317165   9.555  15.190   5.646 -0.0277 -0.3100  0.1113
 1169DPPI   PO417166   9.110  15.207   6.134 -0.0678  0.0776 -0.1859
 1169DPPI   GL117167   9.173  15.423   6.513  0.1176 -0.1575 -0.0624
 1169DPPI   GL217168   9.430  15.542   6.501  0.1450 -0.1577  0.2573
 1169DPPI   C1A17169   9.227  15.488   6.973 -0.1778 -0.0733  0.5153
 1169DPPI   C2A17170   9.202  15.654   7.401  0.0257  0.1834 -0.0188
 1169DPPI   C3A17171   9.154  15.803   7.807 -0.3380 -0.1400 -0.1786
 1169DPPI   C4A17172   9.155  15.840   8.211 -0.2618 -0.0709 -0.1126
 1169DPPI   C1B17173   9.469  15.912   6.736  0.3122  0.1725 -0.0201
 1169DPPI   C2B17174   9.228  16.009   7.070  0.0650 -0.0056 -0.2763
 1169DPPI   C3B17175   9.228  16.247   7.509  0.0057  0.0324 -0.0491
 1169DPPI   C4B17176   9.106  16.374   8.080 -0.0386 -0.0645  0.4715
 1170DPPI    C117177   0.419   3.045   5.718  0.0403  0.1998  0.1095
 1170DPPI    C217178   0.060   2.972   5.558  0.1461 -0.0709 -0.0095
 1170DPPI    C317179   0.234   3.328   5.504  0.0278 -0.0410 -0.2050
 1170DPPI   PO417180   0.392   2.969   6.031 -0.2149 -0.1989  0.0406
 1170DPPI   GL117181   0.579   2.461   6.145  0.1907  0.1654 -0.1419
 1170DPPI   GL217182   0.837   2.771   6.215 -0.0189  0.1703 -0.1157
 1170DPPI   C1A17183   0.607   2.385   6.550 -0.1824 -0.1413 -0.0440
 1170DPPI   C2A17184   0.806   2.379   6.889 -0.0064  0.3423 -0.2120
 1170DPPI   C3A17185   0.848   2.184   7.313  0.2366  0.0818  0.0737
 1170DPPI   C4A17186   0.841   1.986   7.716 -0.1011 -0.1555  0.2273
 1170DPPI   C1B17187   0.795   2.823   6.745 -0.0037 -0.2887  0.2411
 1170DPPI   C2B17188   1.058   2.766   7.174  0.1552 -0.0933  0.0863
 1170DPPI   C3B17189   1.089   2.554   7.489 -0.0735 -0.0802 -0.2882
 1170DPPI   C4B17190   0.831   2.546   7.769  0.0246  0.0442 -0.1215
 1171DPPI    C117191   9.703   5.648   5.309 -0.0627  0.0053  0.2955
 1171DPPI    C217192   9.416   5.926   5.298  0.0887  0.1549 -0.0213
 1171DPPI    C317193   9.565   5.780   4.957  0.4143  0.1059  0.1380
 1171DPPI   PO417194   9.636   5.525   5.505 -0.1271  0.0972  0.0099
 1171DPPI   GL117195   9.557   5.350   5.923 -0.2461 -0.0501  0.0666
 1171DPPI   GL217196   9.527   5.013   5.969 -0.2459  0.0400  0.0756
 1171DPPI   C1A17197   9.410   5.281   6.335 -0.3062  0.3263 -0.1904
 1171DPPI   C2A17198   9.368   5.197   6.655 -0.0383 -0.3422 -0.3722
 1171DPPI   C3A17199   9.402   5.233   7.084  0.1329  0.1839  0.0871
 1171DPPI   C4A17200   9.078   5.322   7.322  0.0656  0.0542 -0.3225
 1171DPPI   C1B17201   9.775   4.925   6.256  0.0913 -0.1588 -0.0555
 1171DPPI   C2B17202   9.820   4.997   6.678  0.2309  0.0374 -0.1227
 1171DPPI   C3B17203   9.955   5.130   7.058  0.2871  0.1057 -0.1232
 1171DPPI   C4B17204  10.058   5.125   7.528 -0.2526 -0.2317  0.1213
 1172DPPI    C117205   1.212   0.057   5.362 -0.2649 -0.0548  0.1255
 1172DPPI    C217206   0.938   0.264   5.158 -0.1495 -0.2052 -0.1896
 1172DPPI    C317207   1.289   0.177   4.989 -0.0062 -0.2381  0.1172
 1172DPPI   PO417208   1.277   0.245   5.596  0.1529 -0.0997  0.3721
 1172DPPI   GL117209   1.197   0.080   6.113  0.0490  0.2308  0.0822
 1172DPPI   GL217210   1.436  -0.091   6.075 -0.1239 -0.3187 -0.3403
 1172DPPI   C1A17211   1.007   0.054   6.482  0.0009 -0.1814  0.2116
 1172DPPI   C2A17212   0.841   0.039   6.907  0.3484  0.2764  0.2237
 1172DPPI   C3A17213   0.634  -0.003   7.324 -0.1573  0.1927  0.1382
 1172DPPI   C4A17214   0.228  -0.198   7.395  0.2011  0.0081  0.0026
 1172DPPI   C1B17215   1.593  -0.002   6.449 -0.2918  0.2899 -0.0331
 1172DPPI   C2B17216   1.667   0.091   6.830 -0.3507 -0.4110 -0.2035
 1172DPPI   C3B17217   1.821   0.209   7.254  0.1157  0.1543  0.0665
 1172DPPI   C4B17218   1.894   0.413   7.664 -0.0293 -0.1765  0.1707
 1173DPPI    C117219  13.705   3.960   5.334  0.0734  0.0276 -0.1144
 1173DPPI    C217220  14.066   3.845   5.461  0.1537  0.1163 -0.2585
 1173DPPI    C317221  13.952   3.767   5.086  0.0603  0.1730 -0.2421
 1173DPPI   PO417222  13.653   4.186   5.546 -0.1783  0.0769 -0.1882
 1173DPPI   GL117223  13.516   4.366   5.954  0.1573  0.1606  0.1579
 1173DPPI   GL217224  13.129   4.254   6.071  0.0350  0.1578  0.0202
 1173DPPI   C1A17225  13.327   4.657   6.199  0.0727  0.1168 -0.3782
 1173DPPI   C2A17226  13.008   4.742   6.502  0.1301  0.0929 -0.0851
 1173DPPI   C3A17227  12.854   4.826   6.888  0.1507 -0.0910  0.0050
 1173DPPI   C4A17228  12.916   4.681   7.292  0.3509  0.1158 -0.0227
 1173DPPI   C1B17229  13.158   4.297   6.504  0.1028  0.1478 -0.1829
 1173DPPI   C2B17230  13.277   4.569   6.872  0.1463 -0.0161 -0.0385
 1173DPPI   C3B17231  13.483   4.610   7.159  0.0431 -0.1436 -0.0285
 1173DPPI   C4B17232  13.723   4.477   7.583  0.1582 -0.0191  0.0445
 1174DPPI    C117233   5.602   4.210   5.377 -0.1488 -0.1449  0.1086
 1174DPPI    C217234   5.508   4.365   5.733  0.1066 -0.1267  0.1703
 1174DPPI    C317235   5.273   4.433   5.417 -0.0089  0.0333  0.2888
 1174DPPI   PO417236   5.723   4.050   5.398  0.0208 -0.2158  0.0553
 1174DPPI   GL117237   5.776   3.921   5.767  0.1411  0.1556 -0.2405
 1174DPPI   GL217238   6.032   3.727   5.899 -0.0709 -0.1045  0.2192
 1174DPPI   C1A17239   5.680   4.140   6.267 -0.1693  0.0017  0.1111
 1174DPPI   C2A17240   5.756   4.230   6.688 -0.0069  0.0392  0.0148
 1174DPPI   C3A17241   5.667   4.027   7.144 -0.3460 -0.0059 -0.0564
 1174DPPI   C4A17242   5.696   4.012   7.525 -0.2709  0.0082  0.0235
 1174DPPI   C1B17243   5.878   3.646   6.388  0.2428 -0.1988  0.3148
 1174DPPI   C2B17244   5.798   3.703   6.794  0.4178 -0.0887 -0.1454
 1174DPPI   C3B17245   5.787   3.535   7.238  0.2533  0.0829  0.1665
 1174DPPI   C4B17246   5.732   3.512   7.660 -0.0819  0.0192 -0.2810
 1175DPPI    C117247  17.320   6.481   5.666  0.4920 -0.0040  0.3283
 1175DPPI    C217248  17.523   6.808   5.771  0.4521  0.0838  0.1357
 1175DPPI    C317249  17.561   6.659   5.401 -0.0176  0.2458  0.0148
 1175DPPI   PO417250  17.226   6.376   5.810  0.0161 -0.2259  0.2702
 1175DPPI   GL117251  16.990   6.562   6.202  0.1751 -0.5101  0.0658
 1175DPPI   GL217252  16.879   6.909   6.188  0.1358 -0.2430  0.1595
 1175DPPI   C1A17253  17.196   6.352   6.472 -0.0508 -0.1159  0.0642
 1175DPPI   C2A17254  17.386   6.362   6.775  0.0515 -0.0591 -0.1395
 1175DPPI   C3A17255  17.399   6.436   7.165  0.1017  0.2579 -0.0178
 1175DPPI   C4A17256  17.274   6.469   7.498 -0.0262  0.0152  0.0514
 1175DPPI   C1B17257  16.611   6.673   6.489  0.0226 -0.2599  0.0677
 1175DPPI   C2B17258  16.464   6.623   6.855  0.1712  0.4662 -0.0608
 1175DPPI   C3B17259  16.320   6.685   7.306 -0.0505 -0.0080  0.1882
 1175DPPI   C4B17260  16.035   6.683   7.610 -0.0139  0.2176 -0.1931
 1176DPPI    C117261  13.292   9.210   5.190  0.0376 -0.1038  0.0776
 1176DPPI    C217262  13.356   9.598   5.264 -0.4756 -0.0261  0.1561
 1176DPPI    C317263  13.370   9.461   4.889 -0.0916  0.0230  0.1482
 1176DPPI   PO417264  13.084   9.217   5.401 -0.1823  0.0838  0.2750
 1176DPPI   GL117265  13.103   9.187   5.798 -0.2057 -0.0532 -0.0649
 1176DPPI   GL217266  13.293   9.049   6.041  0.0723  0.1737 -0.3302
 1176DPPI   C1A17267  13.076   9.513   6.092 -0.2691 -0.1374  0.1401
 1176DPPI   C2A17268  12.969   9.513   6.435  0.1260 -0.2357 -0.1950
 1176DPPI   C3A17269  13.019   9.508   6.835  0.0496 -0.0448 -0.1007
 1176DPPI   C4A17270  12.939   9.499   7.237 -0.0338  0.3698 -0.1565
 1176DPPI   C1B17271  13.316   9.092   6.467 -0.1473  0.1301  0.1193
 1176DPPI   C2B17272  13.332   9.013   6.897  0.0434  0.0519  0.0548
 1176DPPI   C3B17273  13.215   9.068   7.356 -0.0336 -0.2113  0.1378
 1176DPPI   C4B17274  13.226   9.379   7.665 -0.2953 -0.1671  0.2696
 1177DPPI    C117275  16.679   2.286   5.952 -0.1062 -0.2669  0.1533
 1177DPPI    C217276  16.783   2.105   5.611  0.1105  0.0751  0.0327
 1177DPPI    C317277  16.790   1.902   5.956 -0.2582 -0.3174 -0.1811
 1177DPPI   PO417278  16.822   2.547   5.867  0.0682 -0.0832  0.1051
 1177DPPI   GL117279  16.758   2.925   6.126  0.0695 -0.1425 -0.2949
 1177DPPI   GL217280  16.910   3.089   6.315 -0.1965 -0.0676 -0.1912
 1177DPPI   C1A17281  16.595   2.652   6.465 -0.1329 -0.3668 -0.0762
 1177DPPI   C2A17282  16.759   2.309   6.617  0.3077  0.0275  0.0690
 1177DPPI   C3A17283  16.710   2.078   6.944  0.1467  0.1191  0.0298
 1177DPPI   C4A17284  16.549   1.796   7.196  0.4929 -0.0068 -0.2298
 1177DPPI   C1B17285  16.879   3.043   6.722 -0.0221 -0.1703  0.3683
 1177DPPI   C2B17286  16.616   3.014   7.092 -0.2306 -0.0809  0.0866
 1177DPPI   C3B17287  16.590   2.712   7.392  0.0363  0.2383  0.1787
 1177DPPI   C4B17288  16.404   2.347   7.373  0.3089  0.1660 -0.1686
 1178DPPI    C117289   2.200  15.583   6.052  0.0677  0.0488  0.0291
 1178DPPI    C217290   2.474  15.314   6.162  0.0064 -0.0294 -0.0079
 1178DPPI    C317291   2.355  15.334   5.781 -0.0449 -0.0009  0.0095
 1178DPPI   PO417292   2.048  15.560   6.161 -0.0912 -0.0528 -0.2856
 1178DPPI   GL117293   2.128  15.662   6.561 -0.0866  0.1919  0.0834
 1178DPPI   GL217294   2.187  15.332   6.580  0.1204 -0.0507  0.1758
 1178DPPI   C1A17295   2.112  15.663   7.089 -0.1331 -0.1807  0.0207
 1178DPPI   C2A17296   2.153  15.459   7.393  0.1596 -0.0718  0.0815
 1178DPPI   C3A17297   2.278  15.343   7.777 -0.2450  0.0361 -0.0617
 1178DPPI   C4A17298   2.352  14.915   7.966  0.0674  0.0499 -0.1696
 1178DPPI   C1B17299   2.096  15.014   6.728 -0.2714 -0.0141  0.3615
 1178DPPI   C2B17300   2.166  14.957   7.095 -0.0458  0.2515  0.1159
 1178DPPI   C3B17301   2.307  14.988   7.475  0.0996  0.0796  0.1707
 1178DPPI   C4B17302   1.918  14.925   7.593  0.5047 -0.0125  0.2299
 1179DPPI    C117303   2.672  15.747   5.809  0.1147 -0.1047 -0.0980
 1179DPPI    C217304   2.725  15.736   5.413  0.0693  0.2349 -0.1162
 1179DPPI    C317305   2.677  16.087   5.599  0.0515  0.0755  0.1864
 1179DPPI   PO417306   2.833  15.584   5.920 -0.1384 -0.0057 -0.0861
 1179DPPI   GL117307   2.971  15.561   6.296 -0.2554  0.1428 -0.0966
 1179DPPI   GL217308   3.348  15.469   6.363  0.2199  0.0029  0.1307
 1179DPPI   C1A17309   2.724  15.403   6.674  0.1680 -0.1003 -0.0026
 1179DPPI   C2A17310   2.506  15.267   7.077  0.0819 -0.0458 -0.0940
 1179DPPI   C3A17311   2.649  15.366   7.456  0.2126 -0.0635 -0.0991
 1179DPPI   C4A17312   2.767  15.193   7.936  0.1781  0.0309 -0.1018
 1179DPPI   C1B17313   3.177  15.557   6.797  0.0890  0.4099  0.0512
 1179DPPI   C2B17314   3.026  15.489   7.165  0.1595 -0.0595 -0.4381
 1179DPPI   C3B17315   2.965  15.604   7.682  0.5479 -0.2404  0.2847
 1179DPPI   C4B17316   2.989  15.832   8.065  0.0634  0.1444  0.0264
 1180DPPI    C117317  17.374  12.947   5.360 -0.0079 -0.2845  0.0024
 1180DPPI    C217318  17.627  13.121   5.103 -0.0923  0.4067  0.3638
 1180DPPI    C317319  17.364  12.849   4.972  0.1308  0.4497 -0.2028
 1180DPPI   PO417320  17.518  12.903   5.519 -0.1631 -0.1999 -0.0096
 1180DPPI   GL117321  17.703  12.983   5.868 -0.1901  0.0332  0.2390
 1180DPPI   GL217322  17.794  12.755   6.094  0.0717  0.0413 -0.3385
 1180DPPI   C1A17323  17.675  13.340   6.107  0.0357 -0.1838 -0.2200
 1180DPPI   C2A17324  17.449  13.511   6.429 -0.0050  0.1101  0.2574
 1180DPPI   C3A17325  17.480  13.487   6.827  0.2117 -0.2178  0.0865
 1180DPPI   C4A17326  17.523  13.562   7.304 -0.4417  0.1637  0.2832
 1180DPPI   C1B17327  18.019  13.129   6.448  0.0938  0.1336  0.0050
 1180DPPI   C2B17328  17.994  13.259   6.838 -0.0679  0.0327  0.0628
 1180DPPI   C3B17329  17.965  13.362   7.301 -0.0543 -0.0608  0.1251
 1180DPPI   C4B17330  17.754  13.253   7.670  0.1019  0.3250  0.1943
 1181DPPI    C117331  17.837   6.127   5.555 -0.0729  0.1173 -0.2063
 1181DPPI    C217332  18.098   5.824   5.542 -0.0465  0.1309 -0.0268
 1181DPPI    C317333  17.857   5.895   5.230  0.1626  0.1179 -0.1940
 1181DPPI   PO417334  17.689   6.177   5.721  0.1107 -0.1924 -0.0027
 1181DPPI   GL117335  17.627   6.403   6.110 -0.0187 -0.2602  0.3832
 1181DPPI   GL217336  17.505   6.079   6.192  0.0976  0.0626  0.1314
 1181DPPI   C1A17337  17.877   6.325   6.545 -0.2298 -0.2105  0.0111
 1181DPPI   C2A17338  17.855   6.318   6.885 -0.2022  0.0396  0.1745
 1181DPPI   C3A17339  17.862   6.264   7.318 -0.2908 -0.2603 -0.0638
 1181DPPI   C4A17340  18.039   6.101   7.656  0.3774 -0.2031 -0.1548
 1181DPPI   C1B17341  17.606   5.937   6.568  0.0562  0.1403 -0.5844
 1181DPPI   C2B17342  17.535   5.913   7.018  0.0131 -0.0150 -0.1579
 1181DPPI   C3B17343  17.528   5.925   7.483  0.0940  0.1764  0.0139
 1181DPPI   C4B17344  17.382   5.725   7.791 -0.3647  0.1679  0.0417
 1182DPPI    C117345  16.787  17.269   5.750  0.0043 -0.2790  0.0859
 1182DPPI    C217346  16.970  17.474   5.459 -0.0606  0.0215  0.2528
 1182DPPI    C317347  17.002  17.076   5.473  0.1341  0.0241 -0.0298
 1182DPPI   PO417348  16.883  17.394   5.967  0.0830 -0.3738  0.0410
 1182DPPI   GL117349  16.774  17.412   6.310 -0.1981  0.1521  0.1536
 1182DPPI   GL217350  16.683  17.083   6.318 -0.3374  0.2826 -0.3975
 1182DPPI   C1A17351  16.603  17.545   6.619 -0.0454 -0.3883  0.1886
 1182DPPI   C2A17352  16.540  17.669   6.987 -0.0744 -0.1570 -0.0852
 1182DPPI   C3A17353  16.533  17.782   7.299  0.1252  0.0230  0.4016
 1182DPPI   C4A17354  16.833  17.930   7.532  0.0715 -0.0131  0.0422
 1182DPPI   C1B17355  16.408  17.017   6.586 -0.1707 -0.0207 -0.0038
 1182DPPI   C2B17356  16.345  17.073   7.109 -0.0632 -0.0428 -0.1410
 1182DPPI   C3B17357  16.342  17.137   7.559  0.4432  0.0728 -0.1487
 1182DPPI   C4B17358  16.260  17.225   7.981 -0.1506  0.1197 -0.0256
 1183DPPI    C117359   5.594  14.634   5.755 -0.0328 -0.1033  0.1630
 1183DPPI    C217360   5.484  14.867   5.449  0.1545  0.0137  0.1828
 1183DPPI    C317361   5.555  14.478   5.389 -0.0819 -0.0234  0.1342
 1183DPPI   PO417362   5.567  14.813   5.992 -0.1916 -0.0519  0.2239
 1183DPPI   GL117363   5.771  14.636   6.425  0.1227 -0.0373 -0.0137
 1183DPPI   GL217364   5.735  14.982   6.452 -0.0891  0.0837 -0.0421
 1183DPPI   C1A17365   5.801  14.324   6.756  0.1045 -0.2528  0.0726
 1183DPPI   C2A17366   5.729  14.205   7.155  0.1793 -0.0954 -0.1237
 1183DPPI   C3A17367   5.489  14.060   7.444 -0.0945 -0.0159  0.0817
 1183DPPI   C4A17368   5.394  14.099   7.910 -0.1102  0.0969 -0.2119
 1183DPPI   C1B17369   5.763  14.945   6.861  0.1453 -0.0834  0.0412
 1183DPPI   C2B17370   5.815  14.943   7.286 -0.2066 -0.2017 -0.1511
 1183DPPI   C3B17371   5.838  14.955   7.730 -0.0079 -0.0120 -0.0230
 1183DPPI   C4B17372   5.688  15.165   8.157  0.0827 -0.0159  0.1533
 1184DPPI    C117373   0.920  14.998   5.721 -0.1614 -0.0812 -0.0363
 1184DPPI    C217374   1.196  14.708   5.725  0.0257  0.0964  0.1302
 1184DPPI    C317375   0.807  14.615   5.742  0.0856 -0.1428  0.2209
 1184DPPI   PO417376   0.984  15.113   5.896 -0.4468  0.0070 -0.2455
 1184DPPI   GL117377   0.811  15.039   6.359  0.1548  0.2277 -0.0829
 1184DPPI   GL217378   0.874  14.766   6.251 -0.2572 -0.0513  0.1418
 1184DPPI   C1A17379   0.547  14.983   6.831 -0.2690 -0.1604  0.1305
 1184DPPI   C2A17380   0.500  15.012   7.282 -0.0751  0.0540  0.0578
 1184DPPI   C3A17381   0.520  14.984   7.742 -0.1768 -0.0489 -0.1018
 1184DPPI   C4A17382   0.443  14.989   8.153  0.0491  0.1429 -0.1382
 1184DPPI   C1B17383   0.816  14.592   6.671 -0.2548  0.1100  0.0696
 1184DPPI   C2B17384   0.827  14.567   7.068  0.2696 -0.3816  0.1882
 1184DPPI   C3B17385   0.689  14.508   7.503 -0.1152  0.0199  0.1823
 1184DPPI   C4B17386   0.510  14.555   7.978 -0.0968  0.0995  0.0181
 1185DPPI    C117387  10.935  16.935   5.376 -0.3443 -0.1845  0.1952
 1185DPPI    C217388  10.975  17.332   5.350  0.3690 -0.2471  0.1507
 1185DPPI    C317389  10.765  17.133   5.073 -0.0534  0.0977  0.2121
 1185DPPI   PO417390  10.778  16.903   5.638 -0.0401 -0.0244  0.1119
 1185DPPI   GL117391  10.774  16.753   6.024 -0.1407 -0.0466  0.0827
 1185DPPI   GL217392  10.987  16.594   6.104 -0.0191  0.0657  0.2776
 1185DPPI   C1A17393  10.516  16.776   6.352  0.0872 -0.0027  0.1168
 1185DPPI   C2A17394  10.555  17.002   6.639 -0.2092 -0.0699 -0.3798
 1185DPPI   C3A17395  10.727  17.038   6.936  0.1332 -0.4306 -0.1785
 1185DPPI   C4A17396  10.931  17.139   7.317  0.3072  0.2035 -0.1383
 1185DPPI   C1B17397  11.091  16.821   6.484 -0.1862 -0.3072  0.1918
 1185DPPI   C2B17398  11.075  16.724   6.934  0.3221 -0.1831 -0.2651
 1185DPPI   C3B17399  11.262  16.641   7.386 -0.4808 -0.1009 -0.0275
 1185DPPI   C4B17400  11.417  16.718   7.875 -0.2155  0.0206  0.0951
 1186DPPI    C117401   1.551  15.433   5.897 -0.0936 -0.1144  0.0342
 1186DPPI    C217402   1.865  15.291   5.694 -0.0373  0.2325 -0.1278
 1186DPPI    C317403   1.654  15.598   5.547 -0.2276  0.2417  0.1581
 1186DPPI   PO417404   1.461  15.299   5.984  0.0807 -0.2128  0.1102
 1186DPPI   GL117405   1.189  15.423   6.293  0.0662 -0.1660 -0.0191
 1186DPPI   GL217406   1.354  15.787   6.234 -0.1088 -0.1358  0.0219
 1186DPPI   C1A17407   1.214  15.508   6.675 -0.0895  0.1510  0.1384
 1186DPPI   C2A17408   1.228  15.516   7.139  0.1842 -0.0421 -0.1450
 1186DPPI   C3A17409   1.213  15.560   7.617  0.0757  0.0102 -0.1996
 1186DPPI   C4A17410   1.283  15.656   8.055 -0.0458 -0.0889  0.1364
 1186DPPI   C1B17411   1.578  15.908   6.663 -0.1644  0.1527 -0.1898
 1186DPPI   C2B17412   1.650  15.757   7.072 -0.2975  0.1441 -0.0276
 1186DPPI   C3B17413   1.674  15.690   7.545  0.0497 -0.0325 -0.2199
 1186DPPI   C4B17414   1.774  15.402   7.729  0.0139 -0.2447  0.1649
 1187PYPI    C117415   3.085  10.628   5.560  0.2164  0.1444  0.0155
 1187PYPI    C217416   2.963  10.995   5.663  0.0357  0.0085  0.2995
 1187PYPI    C317417   2.817  10.820   5.334 -0.0534  0.0985  0.2909
 1187PYPI   PO417418   3.019  10.511   5.815  0.0844  0.0587  0.1811
 1187PYPI   GL117419   3.098  10.572   6.315 -0.1347 -0.0195  0.2254
 1187PYPI   GL217420   3.053  10.868   6.263 -0.0266  0.1584  0.0134
 1187PYPI   C1A17421   3.401  10.462   6.707  0.1279 -0.2125  0.0519
 1187PYPI   C2A17422   3.385  10.359   7.143  0.1243 -0.0623 -0.3400
 1187PYPI   D3A17423   3.111  10.071   7.405  0.0997 -0.1323 -0.0783
 1187PYPI   C4A17424   2.730  10.263   7.410 -0.0233 -0.1238 -0.0325
 1187PYPI   C1B17425   3.077  11.040   6.692 -0.2612 -0.1129 -0.1589
 1187PYPI   C2B17426   3.133  11.094   7.154 -0.1825 -0.3725  0.0979
 1187PYPI   C3B17427   3.034  11.140   7.602 -0.2356 -0.1201 -0.1760
 1187PYPI   C4B17428   3.136  10.995   7.975  0.0972  0.1257 -0.0542
 1188PYPI    C117429  10.148  15.332   5.918 -0.1037  0.1032  0.0436
 1188PYPI    C217430  10.311  15.165   6.242  0.0160  0.0582 -0.0396
 1188PYPI    C317431  10.371  15.003   5.881 -0.1280  0.1004 -0.0831
 1188PYPI   PO417432  10.019  15.482   6.046 -0.0485 -0.1345 -0.1214
 1188PYPI   GL117433   9.896  15.528   6.456 -0.0333  0.0342  0.0669
 1188PYPI   GL217434  10.187  15.537   6.548 -0.0981  0.2387  0.1922
 1188PYPI   C1A17435   9.724  15.469   6.881  0.2174  0.0912 -0.1649
 1188PYPI   C2A17436   9.710  15.597   7.241  0.1294  0.0884  0.1402
 1188PYPI   D3A17437   9.633  15.898   7.520 -0.0787 -0.1585  0.2453
 1188PYPI   C4A17438   9.583  15.967   7.980  0.2390  0.0406 -0.1809
 1188PYPI   C1B17439  10.172  15.530   6.968 -0.1705  0.2473  0.2817
 1188PYPI   C2B17440  10.130  15.845   7.339  0.1167 -0.0595 -0.2618
 1188PYPI   C3B17441  10.054  16.135   7.607  0.0191  0.2815 -0.0622
 1188PYPI   C4B17442  10.127  16.213   8.022 -0.0513  0.2104  0.2237
 1189PYPI    C117443  17.453   8.349   5.690 -0.2614  0.0473  0.0835
 1189PYPI    C217444  17.400   8.452   5.307 -0.0530 -0.1365  0.0027
 1189PYPI    C317445  17.297   8.087   5.432 -0.0958 -0.0861  0.1165
 1189PYPI   PO417446  17.360   8.547   5.824  0.0064 -0.1163  0.0613
 1189PYPI   GL117447  17.163   8.580   6.213  0.0437 -0.1032  0.1089
 1189PYPI   GL217448  16.980   8.283   6.412 -0.2706  0.1807  0.0111
 1189PYPI   C1A17449  17.544   8.292   6.423 -0.0066 -0.4043 -0.0366
 1189PYPI   C2A17450  17.948   8.089   6.626 -0.1574 -0.2184 -0.1722
 1189PYPI   D3A17451  18.020   8.113   7.027  0.3084  0.1150  0.1207
 1189PYPI   C4A17452  17.967   7.856   7.394  0.0963  0.1053 -0.2355
 1189PYPI   C1B17453  17.203   8.492   6.743 -0.5133 -0.2292 -0.0496
 1189PYPI   C2B17454  17.513   8.389   7.161  0.2121  0.0186 -0.0882
 1189PYPI   C3B17455  17.740   8.301   7.446  0.3428 -0.1841  0.0442
 1189PYPI   C4B17456  17.964   8.138   7.806  0.1163 -0.1021  0.2646
 1190PYPI    C117457  15.729   9.394   5.530  0.1278 -0.2740  0.2070
 1190PYPI    C217458  15.816   9.042   5.699  0.0533 -0.4621 -0.1367
 1190PYPI    C317459  15.737   9.062   5.308  0.0241 -0.0655 -0.1149
 1190PYPI   PO417460  15.657   9.489   5.799  0.1696  0.0395  0.0292
 1190PYPI   GL117461  15.763   9.485   6.282 -0.0086  0.2358 -0.2833
 1190PYPI   GL217462  15.915   9.195   6.343  0.0404  0.2355 -0.0895
 1190PYPI   C1A17463  15.691   9.769   6.551  0.1985 -0.1762 -0.0434
 1190PYPI   C2A17464  15.651  10.090   6.951 -0.3537 -0.0496 -0.1991
 1190PYPI   D3A17465  15.702  10.239   7.448 -0.0119 -0.0644  0.1603
 1190PYPI   C4A17466  15.932  10.041   7.803 -0.0470 -0.0022  0.1482
 1190PYPI   C1B17467  15.584   9.261   6.706  0.1694 -0.1605  0.0448
 1190PYPI   C2B17468  15.391   9.121   7.135  0.2140 -0.3198  0.3640
 1190PYPI   C3B17469  15.320   8.885   7.450  0.1422  0.0102  0.2597
 1190PYPI   C4B17470  15.405   8.835   8.007 -0.0559 -0.0504  0.1596
 1191PYPI    C117471  11.830   6.900   5.433 -0.0779 -0.2516  0.1481
 1191PYPI    C217472  11.983   6.984   5.074 -0.0548 -0.2315  0.1626
 1191PYPI    C317473  12.182   6.745   5.325 -0.0598 -0.2267  0.1712
 1191PYPI   PO417474  11.721   7.238   5.494 -0.2556 -0.0920 -0.2000
 1191PYPI   GL117475  11.816   7.637   5.577 -0.2943 -0.0376  0.2151
 1191PYPI   GL217476  11.532   7.731   5.707 -0.0364 -0.4278 -0.0887
 1191PYPI   C1A17477  11.951   7.876   6.030  0.1631 -0.0447  0.0629
 1191PYPI   C2A17478  12.028   7.659   6.426  0.0308  0.2184 -0.2539
 1191PYPI   D3A17479  12.167   7.583   6.796  0.1962  0.0521  0.0096
 1191PYPI   C4A17480  12.092   7.447   7.226  0.1710  0.1030  0.0585
 1191PYPI   C1B17481  11.565   7.585   6.124 -0.1853 -0.0394  0.0966
 1191PYPI   C2B17482  11.566   7.538   6.587 -0.1916 -0.0935  0.0111
 1191PYPI   C3B17483  11.632   7.390   7.056 -0.0710  0.1282  0.0897
 1191PYPI   C4B17484  11.428   7.613   7.404  0.2883 -0.2698 -0.2483
 1192PYPI    C117485   2.141   0.115   5.433  0.2847  0.4102 -0.0957
 1192PYPI    C217486   2.401  -0.074   5.195  0.0900  0.2888 -0.2147
 1192PYPI    C317487   2.022  -0.199   5.216  0.1130  0.2740  0.1905
 1192PYPI   PO417488   2.174   0.124   5.758 -0.1973  0.0567 -0.1752
 1192PYPI   GL117489   1.915   0.065   6.009 -0.1939  0.2294 -0.0336
 1192PYPI   GL217490   2.004  -0.093   6.235 -0.0612 -0.1499  0.0218
 1192PYPI   C1A17491   1.998   0.333   6.434  0.1281  0.1997 -0.2082
 1192PYPI   C2A17492   2.082   0.488   6.874  0.0686 -0.2328  0.2156
 1192PYPI   D3A17493   2.138   0.596   7.232 -0.3749 -0.0177  0.1555
 1192PYPI   C4A17494   1.932   0.972   7.362 -0.3024 -0.1602 -0.3576
 1192PYPI   C1B17495   2.135  -0.097   6.627 -0.1569 -0.2334  0.0630
 1192PYPI   C2B17496   2.323   0.117   7.121 -0.0286 -0.1780  0.0237
 1192PYPI   C3B17497   2.469   0.264   7.533  0.1705 -0.0272 -0.2346
 1192PYPI   C4B17498   2.675   0.135   7.989  0.1372 -0.1715 -0.0498
 1193PYPI    C117499  17.498   0.723   5.518 -0.0413  0.2591 -0.0417
 1193PYPI    C217500  17.127   0.858   5.453 -0.1542 -0.0983 -0.1597
 1193PYPI    C317501  17.287   0.584   5.208  0.0968 -0.1259  0.0311
 1193PYPI   PO417502  17.486   0.710   5.806 -0.0148  0.0374 -0.0425
 1193PYPI   GL117503  17.810   0.711   6.136 -0.3092  0.0415  0.0125
 1193PYPI   GL217504  17.865   0.363   6.052 -0.2836 -0.0707  0.2421
 1193PYPI   C1A17505  17.607   0.807   6.486  0.2366  0.1404  0.2328
 1193PYPI   C2A17506  17.448   0.759   6.944 -0.1787 -0.1745  0.0377
 1193PYPI   D3A17507  17.462   0.818   7.387  0.1607  0.1193 -0.0497
 1193PYPI   C4A17508  17.237   0.631   7.671  0.0104  0.1217 -0.2239
 1193PYPI   C1B17509  17.789   0.313   6.432  0.2502  0.0483 -0.0030
 1193PYPI   C2B17510  17.717   0.357   6.847 -0.2187  0.0551 -0.1429
 1193PYPI   C3B17511  17.677   0.337   7.374 -0.1147 -0.4715 -0.3520
 1193PYPI   C4B17512  17.670   0.307   7.878  0.3103  0.1319 -0.0572
 1194PYPI    C117513  10.055   7.468   5.644 -0.0563 -0.0983  0.0155
 1194PYPI    C217514   9.855   7.551   5.307  0.0315 -0.3073 -0.0897
 1194PYPI    C317515   9.907   7.171   5.421 -0.0420 -0.2364  0.1884
 1194PYPI   PO417516  10.348   7.572   5.624 -0.2235  0.3076 -0.1164
 1194PYPI   GL117517  10.605   7.605   5.914 -0.0721  0.1442 -0.0936
 1194PYPI   GL217518  10.585   7.347   6.088 -0.1828 -0.1378 -0.0515
 1194PYPI   C1A17519  10.884   7.830   6.160 -0.3463 -0.1580  0.0296
 1194PYPI   C2A17520  11.137   7.944   6.476  0.2040  0.2353 -0.4580
 1194PYPI   D3A17521  11.213   7.867   6.907 -0.0894 -0.1176  0.0573
 1194PYPI   C4A17522  11.429   8.224   7.087 -0.4736 -0.1922  0.1320
 1194PYPI   C1B17523  10.328   7.057   6.386  0.0726 -0.3280  0.3780
 1194PYPI   C2B17524  10.284   6.935   6.853  0.2147  0.2365 -0.1184
 1194PYPI   C3B17525  10.224   6.905   7.238  0.0079  0.0567 -0.2497
 1194PYPI   C4B17526  10.244   6.738   7.600  0.0823  0.0291 -0.0870
 1195PYPI    C117527   6.180   7.105   5.533 -0.0360 -0.1319 -0.0849
 1195PYPI    C217528   5.882   7.287   5.337 -0.0624 -0.2001 -0.1081
 1195PYPI    C317529   5.980   6.909   5.248  0.1422 -0.1223 -0.2182
 1195PYPI   PO417530   6.239   7.242   5.785 -0.0379  0.2344 -0.0507
 1195PYPI   GL117531   6.574   7.210   6.083  0.0995  0.1118  0.4153
 1195PYPI   GL217532   6.565   6.896   5.985 -0.0333  0.4012  0.1443
 1195PYPI   C1A17533   6.453   7.325   6.578 -0.4155 -0.2262  0.0408
 1195PYPI   C2A17534   6.534   7.337   7.011  0.0376  0.0562 -0.2228
 1195PYPI   D3A17535   6.579   7.340   7.459 -0.0261 -0.2999  0.1529
 1195PYPI   C4A17536   6.543   7.706   7.868  0.2170  0.0704  0.2173
 1195PYPI   C1B17537   6.370   6.818   6.422  0.0132  0.1582 -0.1548
 1195PYPI   C2B17538   6.226   6.947   6.804 -0.0972  0.1301  0.0534
 1195PYPI   C3B17539   6.323   6.926   7.275  0.1152  0.0201 -0.0008
 1195PYPI   C4B17540   6.705   6.829   7.372  0.0762  0.1414  0.3018
 1196PYPI    C117541   1.407   3.141   5.827  0.1400  0.2867  0.0047
 1196PYPI    C217542   1.386   2.962   5.470  0.2278 -0.1245  0.1995
 1196PYPI    C317543   1.211   3.317   5.526 -0.2876 -0.3227 -0.0916
 1196PYPI   PO417544   1.688   3.255   5.969 -0.2854 -0.2903 -0.0065
 1196PYPI   GL117545   2.038   3.298   6.284  0.1505 -0.0081  0.0959
 1196PYPI   GL217546   2.094   2.938   6.253 -0.2565 -0.2282 -0.0377
 1196PYPI   C1A17547   2.266   3.246   6.675 -0.0866  0.2449 -0.2479
 1196PYPI   C2A17548   2.519   3.142   7.107 -0.4917 -0.0994  0.0952
 1196PYPI   D3A17549   2.604   3.138   7.508 -0.0109 -0.4759 -0.0288
 1196PYPI   C4A17550   3.078   3.062   7.564 -0.5261  0.1392 -0.1452
 1196PYPI   C1B17551   2.583   2.995   6.370  0.5491  0.1088 -0.3174
 1196PYPI   C2B17552   2.798   2.871   6.776 -0.0553 -0.1559  0.1934
 1196PYPI   C3B17553   2.874   2.766   7.246  0.4195  0.1089 -0.3404
 1196PYPI   C4B17554   2.759   2.711   7.711  0.0174  0.2474 -0.2710
 1197PYPI    C117555   2.663   6.026   5.889  0.0830 -0.1765  0.0166
 1197PYPI    C217556   2.683   6.021   5.490 -0.1014  0.1536 -0.0006
 1197PYPI    C317557   3.011   6.095   5.706  0.0222 -0.1371 -0.0849
 1197PYPI   PO417558   2.459   6.143   5.951 -0.3306 -0.0998 -0.1223
 1197PYPI   GL117559   2.301   6.305   6.352 -0.0763  0.2456 -0.1565
 1197PYPI   GL217560   2.328   6.118   6.532 -0.1314 -0.1244  0.0455
 1197PYPI   C1A17561   2.325   6.478   6.826  0.1826 -0.2937  0.0584
 1197PYPI   C2A17562   2.339   6.353   7.239  0.1071 -0.0934  0.2302
 1197PYPI   D3A17563   2.581   6.458   7.631 -0.1612 -0.2316 -0.0978
 1197PYPI   C4A17564   2.571   6.367   8.111 -0.0411 -0.0685  0.3386
 1197PYPI   C1B17565   2.511   5.812   6.835  0.1487 -0.0930 -0.0458
 1197PYPI   C2B17566   2.543   5.801   7.196 -0.1502 -0.0143 -0.0171
 1197PYPI   C3B17567   2.562   5.910   7.632 -0.1173 -0.1505  0.1220
 1197PYPI   C4B17568   2.355   5.810   7.904  0.1066 -0.1072  0.1896
 1198PYPI    C117569   4.363  13.795   5.579 -0.1189 -0.0846  0.1155
 1198PYPI    C217570   4.693  13.683   5.383 -0.2378 -0.0196 -0.1260
 1198PYPI    C317571   4.455  13.964   5.229 -0.3270  0.0430  0.1208
 1198PYPI   PO417572   4.417  13.882   5.883 -0.1465  0.0304  0.3179
 1198PYPI   GL117573   4.515  13.848   6.389  0.2662 -0.0430  0.1268
 1198PYPI   GL217574   4.724  13.604   6.398  0.1663  0.0455 -0.2439
 1198PYPI   C1A17575   4.307  14.122   6.709 -0.0076  0.0217  0.0794
 1198PYPI   C2A17576   4.149  14.048   7.121 -0.0664  0.0084  0.0932
 1198PYPI   D3A17577   4.022  14.050   7.551 -0.0101  0.2168  0.0881
 1198PYPI   C4A17578   3.958  13.837   7.942 -0.0403  0.1767  0.2285
 1198PYPI   C1B17579   4.882  13.394   6.676 -0.0212  0.1840 -0.0410
 1198PYPI   C2B17580   4.773  13.468   7.076  0.0925 -0.1286  0.0571
 1198PYPI   C3B17581   4.812  13.464   7.492 -0.0096  0.1724 -0.2553
 1198PYPI   C4B17582   4.649  13.400   7.903 -0.1992 -0.0606  0.1576
 1199PYPI    C117583  15.304  13.117   5.362 -0.2059 -0.1678 -0.0870
 1199PYPI    C217584  15.489  12.934   5.058  0.3134  0.3365 -0.0929
 1199PYPI    C317585  15.253  13.250   4.988 -0.0545  0.0848 -0.0203
 1199PYPI   PO417586  15.542  13.164   5.477  0.1374 -0.2353 -0.0427
 1199PYPI   GL117587  15.697  13.082   5.866 -0.1278 -0.3006 -0.2385
 1199PYPI   GL217588  15.514  12.948   5.999 -0.1991 -0.1746 -0.1086
 1199PYPI   C1A17589  15.630  13.409   6.157 -0.0198  0.2213 -0.1648
 1199PYPI   C2A17590  15.647  13.391   6.605 -0.2974  0.2234 -0.0547
 1199PYPI   D3A17591  15.675  13.294   7.011  0.1666  0.0325  0.2646
 1199PYPI   C4A17592  15.487  13.066   7.329 -0.0260  0.0478 -0.0350
 1199PYPI   C1B17593  15.315  13.082   6.471  0.1809 -0.2559 -0.0806
 1199PYPI   C2B17594  15.192  13.147   6.915  0.2236  0.0181  0.0998
 1199PYPI   C3B17595  15.024  13.337   7.302 -0.2206 -0.0893 -0.0373
 1199PYPI   C4B17596  15.083  13.439   7.796  0.2174  0.0269  0.2479
 1200PYPI    C117597   6.860  12.230   5.952 -0.0619  0.1638  0.0232
 1200PYPI    C217598   6.745  11.851   5.893  0.0042  0.1385  0.0544
 1200PYPI    C317599   6.730  12.114   5.592  0.0564  0.0854  0.0053
 1200PYPI   PO417600   6.863  12.270   6.211  0.5200 -0.0363  0.1127
 1200PYPI   GL117601   6.628  12.131   6.508 -0.0261 -0.2017 -0.3020
 1200PYPI   GL217602   6.551  12.444   6.561 -0.2766 -0.1005 -0.0269
 1200PYPI   C1A17603   6.834  11.765   6.795 -0.6179 -0.1562  0.2131
 1200PYPI   C2A17604   6.542  11.514   7.079  0.2277 -0.0487 -0.2715
 1200PYPI   D3A17605   6.417  11.480   7.475  0.0946  0.0414 -0.0822
 1200PYPI   C4A17606   6.444  11.963   7.712  0.2288  0.0307 -0.0667
 1200PYPI   C1B17607   6.656  12.246   6.994 -0.2197  0.0622 -0.0321
 1200PYPI   C2B17608   6.758  11.918   7.337 -0.0983 -0.2722  0.1665
 1200PYPI   C3B17609   6.776  11.634   7.729 -0.3002  0.0127 -0.4103
 1200PYPI   C4B17610   7.051  11.655   8.134 -0.1078 -0.1032 -0.1255
 1201PYPI    C117611  14.676   8.021   5.339  0.0397  0.0384  0.0077
 1201PYPI    C217612  14.804   8.302   5.085 -0.0603  0.0679 -0.0104
 1201PYPI    C317613  14.427   8.168   5.062  0.0111 -0.1291 -0.0573
 1201PYPI   PO417614  14.762   8.059   5.534 -0.1009 -0.1428  0.0672
 1201PYPI   GL117615  14.913   8.175   5.923 -0.0657  0.2199 -0.0081
 1201PYPI   GL217616  15.164   7.991   6.094  0.1383 -0.1365  0.1033
 1201PYPI   C1A17617  14.872   8.548   6.143  0.1485 -0.2959  0.1764
 1201PYPI   C2A17618  14.820   8.704   6.520  0.2803  0.0292  0.0480
 1201PYPI   D3A17619  15.036   8.791   6.923  0.2185 -0.2717 -0.0259
 1201PYPI   C4A17620  14.706   8.819   7.274  0.1490  0.4555 -0.0494
 1201PYPI   C1B17621  15.005   8.191   6.531 -0.5822 -0.0399 -0.1360
 1201PYPI   C2B17622  15.288   8.345   6.906  0.1322 -0.0185 -0.0160
 1201PYPI   C3B17623  15.438   8.434   7.293 -0.0778  0.2102 -0.0769
 1201PYPI   C4B17624  15.365   8.400   7.705  0.1050  0.1791 -0.2037
 1202PYPI    C117625   1.279   9.658   6.085 -0.1527  0.0393 -0.0905
 1202PYPI    C217626   1.560   9.491   5.855 -0.0545 -0.0885  0.1186
 1202PYPI    C317627   1.188   9.345   5.854 -0.0420 -0.1202  0.0789
 1202PYPI   PO417628   1.468   9.876   6.215 -0.5148 -0.0384  0.3039
 1202PYPI   GL117629   1.572   9.940   6.581 -0.0464 -0.0403 -0.1390
 1202PYPI   GL217630   1.806   9.867   6.805 -0.1306 -0.1639 -0.1321
 1202PYPI   C1A17631   1.354  10.075   6.992  0.0486 -0.2510  0.0616
 1202PYPI   C2A17632   1.424  10.282   7.358 -0.0204  0.4182 -0.0402
 1202PYPI   D3A17633   1.517  10.595   7.646 -0.0606  0.4296  0.2528
 1202PYPI   C4A17634   1.465  10.575   8.118 -0.0296  0.0808  0.0668
 1202PYPI   C1B17635   1.778   9.952   7.266 -0.1334 -0.0575  0.1279
 1202PYPI   C2B17636   1.791  10.105   7.674 -0.3004 -0.1562  0.0657
 1202PYPI   C3B17637   1.855  10.323   7.906  0.1666 -0.1209 -0.0296
 1202PYPI   C4B17638   1.822  10.240   8.301  0.1471 -0.1582 -0.1964
 1203PYPI    C117639   1.893   7.831   5.755  0.0793 -0.3635  0.1278
 1203PYPI    C217640   1.566   7.601   5.745 -0.1222 -0.0738 -0.1396
 1203PYPI    C317641   1.789   7.646   5.416  0.0046 -0.0107 -0.0460
 1203PYPI   PO417642   2.075   7.708   5.937  0.2158 -0.0398 -0.1043
 1203PYPI   GL117643   2.242   7.904   6.288  0.0525 -0.0042  0.0414
 1203PYPI   GL217644   2.279   7.622   6.395  0.0391  0.1893 -0.0928
 1203PYPI   C1A17645   2.634   8.152   6.450  0.0920  0.2003  0.3374
 1203PYPI   C2A17646   2.600   8.251   6.920 -0.0591  0.0004 -0.1505
 1203PYPI   D3A17647   2.606   8.271   7.389 -0.0912  0.1859  0.0992
 1203PYPI   C4A17648   2.417   8.412   7.747  0.3680  0.3160 -0.0508
 1203PYPI   C1B17649   2.390   7.821   6.766  0.2098  0.0203 -0.0353
 1203PYPI   C2B17650   2.448   7.850   7.150 -0.0438 -0.3440 -0.2641
 1203PYPI   C3B17651   2.343   7.818   7.560  0.0695 -0.1953 -0.0399
 1203PYPI   C4B17652   2.413   7.914   7.945  0.0987 -0.0261  0.0849
 1204PYPI    C117653  17.773   8.772   5.454  0.2242 -0.0295 -0.1948
 1204PYPI    C217654  17.824   9.155   5.349  0.3155  0.0276  0.0505
 1204PYPI    C317655  18.054   8.870   5.187  0.2145  0.0688 -0.1692
 1204PYPI   PO417656  17.804   8.751   5.703 -0.0268  0.0608  0.1337
 1204PYPI   GL117657  17.662   8.887   6.132 -0.0217  0.1837  0.0468
 1204PYPI   GL217658  17.998   8.871   6.141 -0.1737 -0.0473 -0.0913
 1204PYPI   C1A17659  17.531   8.780   6.521  0.2296  0.0775 -0.1321
 1204PYPI   C2A17660  17.546   8.864   6.908 -0.1865  0.0784  0.0995
 1204PYPI   D3A17661  17.533   9.092   7.290  0.1370 -0.0074 -0.0979
 1204PYPI   C4A17662  17.717   8.851   7.669  0.2192 -0.1068  0.2136
 1204PYPI   C1B17663  18.007   8.995   6.566  0.1443  0.3733 -0.2594
 1204PYPI   C2B17664  17.839   9.255   6.944 -0.3987  0.2963 -0.0985
 1204PYPI   C3B17665  17.815   9.692   7.145 -0.0163  0.0671  0.1285
 1204PYPI   C4B17666  17.976   9.613   7.578  0.2429 -0.0853  0.0310
 1205PYPI    C117667  14.395  13.791   5.328 -0.1532 -0.1156 -0.1411
 1205PYPI    C217668  14.078  14.029   5.274 -0.0276  0.1167  0.1172
 1205PYPI    C317669  14.442  14.152   5.162  0.0040 -0.0589  0.0229
 1205PYPI   PO417670  14.437  13.630   5.572 -0.0352  0.1969  0.4430
 1205PYPI   GL117671  14.628  13.502   5.997  0.0483 -0.2485 -0.0139
 1205PYPI   GL217672  14.582  13.404   6.217  0.1247  0.3951 -0.1329
 1205PYPI   C1A17673  14.794  13.855   6.297  0.2142 -0.2518 -0.2674
 1205PYPI   C2A17674  14.953  14.018   6.621 -0.2218 -0.0857 -0.1512
 1205PYPI   D3A17675  15.130  14.235   7.011  0.0325 -0.1020  0.2750
 1205PYPI   C4A17676  15.238  14.309   7.456  0.2556 -0.1073  0.2560
 1205PYPI   C1B17677  14.323  13.437   6.457  0.0480  0.1897 -0.1828
 1205PYPI   C2B17678  14.348  13.323   6.884  0.3222  0.1440  0.1736
 1205PYPI   C3B17679  14.342  13.310   7.303 -0.1314  0.0613 -0.0779
 1205PYPI   C4B17680  14.041  13.137   7.676  0.0772  0.1171  0.0945
 1206PYPI    C117681   0.422  13.923   5.711 -0.1222  0.0959  0.0444
 1206PYPI    C217682   0.450  13.847   5.320  0.0552  0.0017  0.0745
 1206PYPI    C317683   0.098  13.811   5.506 -0.0427  0.1070 -0.0883
 1206PYPI   PO417684   0.500  14.138   5.766 -0.3278 -0.0986  0.0914
 1206PYPI   GL117685   0.285  14.492   6.031 -0.2230 -0.0716  0.2359
 1206PYPI   GL217686   0.018  14.472   6.176  0.0045  0.1048  0.1186
 1206PYPI   C1A17687   0.385  14.686   6.474  0.0833  0.4272  0.1260
 1206PYPI   C2A17688   0.235  14.634   6.950 -0.2288 -0.0620 -0.0344
 1206PYPI   D3A17689   0.184  14.624   7.460  0.4520  0.2009  0.1997
 1206PYPI   C4A17690  -0.055  14.669   7.847 -0.1181  0.1427  0.1343
 1206PYPI   C1B17691  -0.064  14.345   6.550  0.3410 -0.1343  0.0422
 1206PYPI   C2B17692  -0.208  14.364   7.024 -0.3111  0.3207  0.0013
 1206PYPI   C3B17693  -0.243  14.285   7.488  0.0808  0.0000 -0.0938
 1206PYPI   C4B17694  -0.121  14.113   7.886  0.1546  0.2611 -0.0214
 1207PYPI    C117695   5.903   7.822   5.442 -0.2335 -0.3362 -0.3737
 1207PYPI    C217696   6.245   7.667   5.580 -0.0770  0.1865 -0.1509
 1207PYPI    C317697   6.186   7.702   5.186  0.0696 -0.0246 -0.1931
 1207PYPI   PO417698   5.897   8.029   5.676 -0.0504 -0.1380 -0.0333
 1207PYPI   GL117699   5.770   8.044   6.123  0.0001  0.1261  0.4860
 1207PYPI   GL217700   5.758   7.791   6.191 -0.1848  0.0186  0.0331
 1207PYPI   C1A17701   6.088   8.149   6.302  0.0031  0.3211 -0.0301
 1207PYPI   C2A17702   6.111   8.197   6.740 -0.0271 -0.0543  0.0001
 1207PYPI   D3A17703   5.995   8.256   7.189  0.0578  0.0192  0.0150
 1207PYPI   C4A17704   5.512   8.239   7.271 -0.1746  0.0963 -0.0098
 1207PYPI   C1B17705   5.825   7.574   6.533  0.2151  0.0293  0.0280
 1207PYPI   C2B17706   5.960   7.369   6.916 -0.2739  0.0292  0.4680
 1207PYPI   C3B17707   6.046   7.346   7.396 -0.1795  0.3491 -0.1429
 1207PYPI   C4B17708   6.161   7.416   7.780 -0.0435 -0.2918  0.1531
 1208PYPI    C117709   8.917   9.483   5.894 -0.2292  0.0821 -0.0567
 1208PYPI    C217710   8.717   9.347   5.576 -0.1680 -0.2304  0.0345
 1208PYPI    C317711   9.117   9.329   5.583 -0.1643 -0.1324  0.0886
 1208PYPI   PO417712   8.810   9.719   5.973  0.1409  0.1263  0.2831
 1208PYPI   GL117713   8.625   9.655   6.385  0.0017  0.3138  0.0723
 1208PYPI   GL217714   8.608   9.903   6.487  0.4779 -0.0866  0.0716
 1208PYPI   C1A17715   8.674   9.358   6.746  0.0328 -0.1327  0.4444
 1208PYPI   C2A17716   8.833   9.302   7.202 -0.1228  0.0762  0.1121
 1208PYPI   D3A17717   9.136   9.371   7.447  0.1481 -0.0280 -0.1068
 1208PYPI   C4A17718   9.155   9.182   7.908 -0.1533 -0.2173  0.1726
 1208PYPI   C1B17719   8.595  10.177   6.861 -0.0380  0.1122 -0.0992
 1208PYPI   C2B17720   8.659  10.120   7.326 -0.1867 -0.0695 -0.1067
 1208PYPI   C3B17721   8.674  10.003   7.777  0.0231 -0.2423  0.0396
 1208PYPI   C4B17722   8.446   9.905   8.152 -0.3920 -0.0307  0.3350
 1209PYPI    C117723  13.336   5.651   5.071 -0.1488 -0.1445  0.1162
 1209PYPI    C217724  13.429   5.275   4.973 -0.0731 -0.0836 -0.0489
 1209PYPI    C317725  13.370   5.548   4.686 -0.0727  0.0438  0.0713
 1209PYPI   PO417726  13.376   5.608   5.384 -0.1730 -0.1373 -0.1512
 1209PYPI   GL117727  13.604   5.772   5.749 -0.0229  0.0835 -0.1890
 1209PYPI   GL217728  13.407   6.044   5.800 -0.0875  0.2501  0.2460
 1209PYPI   C1A17729  13.976   5.786   6.114  0.0785 -0.0139  0.4035
 1209PYPI   C2A17730  13.990   5.837   6.542 -0.0897  0.0572  0.3381
 1209PYPI   D3A17731  13.980   5.896   7.030 -0.0202 -0.0268 -0.3336
 1209PYPI   C4A17732  13.626   5.877   7.389  0.1437  0.1011  0.2308
 1209PYPI   C1B17733  13.376   5.881   6.213 -0.1302 -0.0762  0.2358
 1209PYPI   C2B17734  13.507   5.909   6.654 -0.0254 -0.0066  0.0893
 1209PYPI   C3B17735  13.490   6.117   6.957 -0.2287  0.0206 -0.4137
 1209PYPI   C4B17736  13.530   6.399   7.338 -0.0811  0.2298 -0.0752
 1210PYPI    C117737   2.485   4.693   5.680 -0.2448 -0.1107  0.1005
 1210PYPI    C217738   2.197   4.617   5.414 -0.1223 -0.0015 -0.0653
 1210PYPI    C317739   2.542   4.779   5.294 -0.1483  0.2513  0.1918
 1210PYPI   PO417740   2.441   4.621   5.878 -0.0197  0.1166 -0.1418
 1210PYPI   GL117741   2.160   4.705   6.180  0.0584  0.0113  0.2301
 1210PYPI   GL217742   2.512   4.778   6.340 -0.2737  0.0107 -0.0642
 1210PYPI   C1A17743   2.064   4.860   6.562 -0.0531 -0.0240 -0.0998
 1210PYPI   C2A17744   2.016   4.937   6.924 -0.1797  0.3666 -0.1087
 1210PYPI   D3A17745   1.928   5.089   7.261 -0.0722 -0.1228  0.0771
 1210PYPI   C4A17746   2.101   4.802   7.609  0.1013  0.1286  0.0348
 1210PYPI   C1B17747   2.556   4.705   6.811 -0.0758  0.0195 -0.3386
 1210PYPI   C2B17748   2.429   4.706   7.256  0.2571  0.1104  0.0603
 1210PYPI   C3B17749   2.588   4.740   7.640  0.0088  0.1742 -0.0351
 1210PYPI   C4B17750   2.285   4.458   7.910 -0.0731 -0.1802 -0.0647
 1211PYPI    C117751   2.170  16.139   5.742 -0.0788  0.0342  0.0318
 1211PYPI    C217752   2.152  15.766   5.597 -0.4147  0.0336  0.0685
 1211PYPI    C317753   2.225  16.073   5.351  0.0129 -0.0682  0.0615
 1211PYPI   PO417754   2.330  16.118   5.961  0.2523  0.2042  0.0350
 1211PYPI   GL117755   2.539  16.420   6.280  0.1710 -0.0321 -0.1022
 1211PYPI   GL217756   2.764  16.487   6.534 -0.0007 -0.1151 -0.1526
 1211PYPI   C1A17757   2.260  16.530   6.622  0.0694 -0.2357  0.2998
 1211PYPI   C2A17758   1.953  16.626   6.959  0.0760  0.0212 -0.2256
 1211PYPI   D3A17759   1.808  16.641   7.418  0.0476 -0.1294  0.0892
 1211PYPI   C4A17760   1.877  16.659   7.758 -0.3623  0.0330  0.1326
 1211PYPI   C1B17761   2.749  16.492   6.958 -0.0848 -0.0243  0.0938
 1211PYPI   C2B17762   2.742  16.458   7.293  0.3049 -0.1817  0.1367
 1211PYPI   C3B17763   2.646  16.651   7.603  0.0736 -0.0189 -0.2491
 1211PYPI   C4B17764   2.716  16.904   7.866 -0.0590 -0.0055 -0.2100
 1212PYPI    C117765   9.679   7.785   5.732 -0.2206  0.0543 -0.1276
 1212PYPI    C217766   9.640   8.172   5.639  0.0300  0.0458 -0.2779
 1212PYPI    C317767   9.370   7.907   5.511 -0.2160  0.1874 -0.0616
 1212PYPI   PO417768   9.789   7.790   5.967 -0.1530  0.0243  0.3141
 1212PYPI   GL117769  10.080   7.454   6.097 -0.1727  0.2430 -0.0292
 1212PYPI   GL217770  10.183   7.685   6.220  0.0494 -0.2825 -0.0834
 1212PYPI   C1A17771   9.734   7.305   6.331 -0.0315 -0.0688 -0.1298
 1212PYPI   C2A17772   9.700   7.103   6.773  0.1005 -0.4866 -0.0263
 1212PYPI   D3A17773   9.700   7.211   7.259  0.0207 -0.1012 -0.1359
 1212PYPI   C4A17774   9.744   6.922   7.548 -0.2075 -0.0860  0.1111
 1212PYPI   C1B17775  10.087   7.472   6.680 -0.1395  0.1442  0.0896
 1212PYPI   C2B17776  10.126   7.380   7.093  0.0652 -0.0857 -0.1496
 1212PYPI   C3B17777  10.017   7.401   7.579  0.0545  0.0084 -0.0919
 1212PYPI   C4B17778  10.130   7.171   7.999 -0.1294  0.3963  0.1432
 1213PYPI    C117779  12.548  11.109   5.256  0.1658  0.0745 -0.0325
 1213PYPI    C217780  12.720  10.825   5.033 -0.0583  0.0484 -0.1752
 1213PYPI    C317781  12.880  11.191   5.048  0.0319  0.0134 -0.2743
 1213PYPI   PO417782  12.461  10.892   5.590 -0.1359  0.1708  0.2168
 1213PYPI   GL117783  12.098  11.122   5.878  0.1410  0.2608 -0.0436
 1213PYPI   GL217784  12.249  10.845   6.044 -0.0605 -0.1194 -0.3573
 1213PYPI   C1A17785  11.908  11.194   6.301  0.0172 -0.3074 -0.5378
 1213PYPI   C2A17786  11.847  11.147   6.650 -0.1157 -0.4155  0.1749
 1213PYPI   D3A17787  11.863  11.163   7.045  0.1600  0.2770 -0.0385
 1213PYPI   C4A17788  11.526  11.351   7.276 -0.2746 -0.0614  0.2057
 1213PYPI   C1B17789  12.228  10.808   6.440 -0.1199 -0.3277 -0.1790
 1213PYPI   C2B17790  12.127  10.727   6.783  0.0168  0.2016 -0.2171
 1213PYPI   C3B17791  12.122  10.792   7.248  0.2949 -0.1478 -0.1911
 1213PYPI   C4B17792  11.953  11.126   7.565 -0.2327 -0.3303  0.3601
 1214ERGO   ROH17793   3.497  12.521   6.178 -0.0021 -0.0573  0.0098
 1214ERGO    R117794   3.427  12.609   6.438 -0.1876 -0.0855 -0.0280
 1214ERGO    R217795   3.261  12.463   6.604 -0.0582 -0.2623 -0.0409
 1214ERGO    R317796   3.469  12.486   6.778 -0.1287  0.0370  0.0081
 1214ERGO    R417797   3.238  12.419   6.946 -0.1005 -0.1090 -0.0239
 1214ERGO    R517798   3.373  12.588   6.972 -0.2812  0.0386 -0.0713
 1214ERGO    C117799   3.420  12.414   7.309 -0.1914  0.2613  0.0319
 1214ERGO    C217800   3.450  12.467   7.609 -0.0191  0.1597 -0.1343
 1215ERGO   ROH17801  12.264  17.433   5.889  0.3286  0.0871 -0.0276
 1215ERGO    R117802  12.279  17.348   6.159  0.4118  0.0250 -0.0508
 1215ERGO    R217803  12.490  17.415   6.325  0.2291  0.4069  0.0405
 1215ERGO    R317804  12.291  17.506   6.486 -0.0255 -0.0478  0.0074
 1215ERGO    R417805  12.475  17.368   6.667  0.2295  0.2850  0.0231
 1215ERGO    R517806  12.261  17.333   6.648  0.2932 -0.1656 -0.0480
 1215ERGO    C117807  12.279  17.426   7.017 -0.0091 -0.2133 -0.0181
 1215ERGO    C217808  12.249  17.451   7.298  0.2424 -0.2984 -0.0279
 1216ERGO   ROH17809   0.116  11.595   6.428  0.5178 -0.0324  0.1410
 1216ERGO    R117810  -0.074  11.638   6.633  0.3747 -0.0210  0.0063
 1216ERGO    R217811  -0.092  11.476   6.856  0.1975 -0.0257 -0.0164
 1216ERGO    R317812  -0.067  11.712   6.989  0.1225 -0.0358  0.0184
 1216ERGO    R417813  -0.166  11.523   7.190  0.3873 -0.1643  0.0480
 1216ERGO    R517814  -0.254  11.716   7.139  0.2130 -0.2074  0.1477
 1216ERGO    C117815  -0.186  11.772   7.510  0.4273 -0.2548  0.1182
 1216ERGO    C217816  -0.063  11.728   7.818 -0.0732 -0.1947 -0.0989
 1217ERGO   ROH17817  12.692  14.336   6.092 -0.0012  0.0191  0.1608
 1217ERGO    R117818  12.914  14.378   6.264  0.0500 -0.0033  0.1014
 1217ERGO    R217819  12.955  14.617   6.398  0.1418  0.0139  0.0482
 1217ERGO    R317820  12.964  14.454   6.616  0.1499  0.0512  0.0749
 1217ERGO    R417821  13.173  14.653   6.664  0.2921 -0.0693 -0.0625
 1217ERGO    R517822  13.196  14.437   6.668  0.1634 -0.0804 -0.0329
 1217ERGO    C117823  13.308  14.522   7.023  0.3871 -0.0827 -0.1019
 1217ERGO    C217824  13.296  14.732   7.279  0.2340  0.0960  0.0012
 1218ERGO   ROH17825   3.215  13.571   6.179 -0.2221  0.1028  0.0662
 1218ERGO    R117826   3.343  13.546   6.430 -0.2228 -0.0435  0.0535
 1218ERGO    R217827   3.307  13.728   6.635 -0.0081 -0.0076  0.0674
 1218ERGO    R317828   3.240  13.507   6.777 -0.2349  0.0553  0.0600
 1218ERGO    R417829   3.323  13.702   6.979  0.0702 -0.0791  0.0582
 1218ERGO    R517830   3.399  13.499   6.955 -0.1878 -0.1687  0.0067
 1218ERGO    C117831   3.268  13.479   7.313 -0.0970 -0.0617  0.0459
 1218ERGO    C217832   3.138  13.595   7.614  0.1965  0.0534 -0.2495
 1219ERGO   ROH17833   0.239  16.413   6.105  0.0794  0.1113 -0.2282
 1219ERGO    R117834   0.150  16.440   6.372  0.0606  0.1046 -0.2339
 1219ERGO    R217835   0.246  16.283   6.578 -0.0320  0.0273 -0.2499
 1219ERGO    R317836   0.299  16.524   6.693  0.0601 -0.0155 -0.2019
 1219ERGO    R417837   0.202  16.355   6.913 -0.1164  0.0095 -0.2567
 1219ERGO    R517838   0.125  16.551   6.856  0.0135  0.0608 -0.2627
 1219ERGO    C117839   0.227  16.622   7.217 -0.0792 -0.0409 -0.2156
 1219ERGO    C217840   0.278  16.704   7.493 -0.0194 -0.0818 -0.5300
 1220ERGO   ROH17841  10.662   6.743   5.976 -0.1598  0.1875 -0.1214
 1220ERGO    R117842  10.767   6.681   6.232 -0.2541  0.0390 -0.1171
 1220ERGO    R217843  10.846   6.875   6.411 -0.0606 -0.0667 -0.0806
 1220ERGO    R317844  10.675   6.745   6.578 -0.2246  0.0950 -0.1208
 1220ERGO    R417845  10.884   6.852   6.754 -0.0502 -0.2883 -0.0954
 1220ERGO    R517846  10.817   6.645   6.743 -0.3469 -0.1887 -0.1864
 1220ERGO    C117847  10.745   6.717   7.110 -0.1981 -0.2656 -0.1418
 1220ERGO    C217848  10.686   6.898   7.438 -0.0690 -0.2579  0.1328
 1221ERGO   ROH17849   4.767  14.553   6.549 -0.0028  0.0545 -0.0786
 1221ERGO    R117850   4.906  14.557   6.795  0.0006  0.0834 -0.0811
 1221ERGO    R217851   4.934  14.787   6.946 -0.1351  0.0665 -0.0306
 1221ERGO    R317852   4.827  14.632   7.142 -0.0364 -0.0424 -0.0612
 1221ERGO    R417853   4.928  14.870   7.282 -0.1027 -0.0440 -0.0023
 1221ERGO    R517854   4.975  14.662   7.329 -0.0101 -0.0440 -0.0798
 1221ERGO    C117855   4.824  14.773   7.661  0.0089 -0.2106 -0.0145
 1221ERGO    C217856   4.756  14.899   7.976 -0.1284 -0.3604 -0.2441
 1222ERGO   ROH17857   7.883  14.488   6.551 -0.1429 -0.0633 -0.1161
 1222ERGO    R117858   7.752  14.403   6.787 -0.0336 -0.0955 -0.0659
 1222ERGO    R217859   7.738  14.561   7.014  0.0506 -0.1155 -0.0438
 1222ERGO    R317860   7.471  14.517   6.988  0.0435 -0.1363  0.0652
 1222ERGO    R417861   7.510  14.568   7.274  0.0761  0.3828 -0.0268
 1222ERGO    R517862   7.411  14.396   7.186  0.0489  0.2282  0.2979
 1222ERGO    C117863   7.126  14.531   7.400  0.0843  0.6536  0.0854
 1222ERGO    C217864   6.990  14.447   7.724 -0.0476 -0.2005  0.1425
 1223ERGO   ROH17865  13.307  10.377   5.732 -0.2127  0.0516  0.1159
 1223ERGO    R117866  13.450  10.335   5.973 -0.0516  0.0148  0.0154
 1223ERGO    R217867  13.501  10.539   6.153  0.0492 -0.0165  0.0246
 1223ERGO    R317868  13.383  10.368   6.329  0.1769 -0.0620  0.0666
 1223ERGO    R417869  13.526  10.561   6.497  0.1202  0.0214  0.0170
 1223ERGO    R517870  13.543  10.344   6.505  0.2307  0.0315  0.0301
 1223ERGO    C117871  13.430  10.413   6.862  0.2814  0.0006  0.0521
 1223ERGO    C217872  13.382  10.349   7.210 -0.0187 -0.0083  0.0019
 1224ERGO   ROH17873   1.190   9.575   6.580 -0.1377 -0.0729  0.0300
 1224ERGO    R117874   1.334   9.459   6.794 -0.1224 -0.0206  0.0477
 1224ERGO    R217875   1.422   9.607   7.011 -0.1769  0.0163  0.0431
 1224ERGO    R317876   1.288   9.419   7.153 -0.1359 -0.0099  0.0478
 1224ERGO    R417877   1.536   9.462   7.303 -0.1278  0.0302  0.0309
 1224ERGO    R517878   1.459   9.271   7.233 -0.1022  0.0169  0.0308
 1224ERGO    C117879   1.476   9.202   7.607 -0.0608  0.0138  0.0284
 1224ERGO    C217880   1.530   9.029   7.944  0.3456  0.3113 -0.0934
 1225ERGO   ROH17881   3.878   7.401   6.117 -0.0745 -0.0870 -0.0172
 1225ERGO    R117882   4.045   7.361   6.342 -0.0811 -0.1695 -0.0262
 1225ERGO    R217883   4.097   7.560   6.525  0.1445 -0.1481 -0.1067
 1225ERGO    R317884   4.009   7.375   6.704 -0.0191  0.0035 -0.0266
 1225ERGO    R417885   4.171   7.563   6.862  0.0191  0.0044 -0.0789
 1225ERGO    R517886   4.194   7.345   6.853 -0.0933 -0.0111  0.0590
 1225ERGO    C117887   4.132   7.391   7.227 -0.2075  0.2355  0.0124
 1225ERGO    C217888   4.168   7.465   7.519 -0.2733  0.0802  0.0339
 1226ERGO   ROH17889   4.379   7.617   6.010  0.1278 -0.3106 -0.0816
 1226ERGO    R117890   4.531   7.477   6.203  0.0328 -0.2390  0.0458
 1226ERGO    R217891   4.684   7.605   6.394  0.0511 -0.1666 -0.0193
 1226ERGO    R317892   4.539   7.452   6.566 -0.0449  0.0145  0.0673
 1226ERGO    R417893   4.691   7.634   6.739  0.2110 -0.1069 -0.0260
 1226ERGO    R517894   4.686   7.416   6.752 -0.0090 -0.1019  0.0183
 1226ERGO    C117895   4.560   7.507   7.100  0.2142  0.0979  0.0515
 1226ERGO    C217896   4.726   7.521   7.369  0.0187  0.3729 -0.1364
 1227ERGO   ROH17897  17.790   6.910   6.142 -0.0405 -0.3326 -0.1162
 1227ERGO    R117898  17.830   6.843   6.414 -0.0095 -0.1570 -0.0763
 1227ERGO    R217899  17.839   7.034   6.614 -0.0419 -0.0307 -0.1911
 1227ERGO    R317900  17.645   6.879   6.725 -0.0005 -0.0081 -0.0881
 1227ERGO    R417901  17.755   7.034   6.949  0.0797  0.0357 -0.1601
 1227ERGO    R517902  17.734   6.817   6.939  0.0761  0.0353 -0.1084
 1227ERGO    C117903  17.523   6.889   7.249  0.1889  0.0955 -0.0454
 1227ERGO    C217904  17.525   6.864   7.614  0.1838 -0.1502 -0.1198
 1228ERGO   ROH17905   2.574   0.734   6.317 -0.0423 -0.0102 -0.1060
 1228ERGO    R117906   2.617   0.806   6.587 -0.2822 -0.0845 -0.0465
 1228ERGO    R217907   2.513   0.662   6.799 -0.0697 -0.4274 -0.1749
 1228ERGO    R317908   2.772   0.655   6.880 -0.0750  0.0456 -0.0843
 1228ERGO    R417909   2.616   0.623   7.126 -0.1268 -0.4778 -0.1619
 1228ERGO    R517910   2.771   0.771   7.090 -0.4070 -0.1129  0.0150
 1228ERGO    C117911   2.919   0.593   7.394 -0.1650 -0.0630 -0.0693
 1228ERGO    C217912   2.946   0.403   7.706  0.2211 -0.1237 -0.0766
 1229ERGO   ROH17913   9.897   3.385   6.126 -0.2112  0.0371  0.1133
 1229ERGO    R117914  10.008   3.238   6.341 -0.2389 -0.0046  0.0993
 1229ERGO    R217915  10.273   3.261   6.416 -0.2369 -0.0556  0.1075
 1229ERGO    R317916  10.165   3.315   6.660 -0.2327 -0.0657  0.1113
 1229ERGO    R417917  10.450   3.269   6.713 -0.2887 -0.4056  0.1515
 1229ERGO    R517918  10.282   3.169   6.810 -0.4218 -0.2755  0.0617
 1229ERGO    C117919  10.451   3.324   7.115 -0.3150 -0.6190  0.1808
 1229ERGO    C217920  10.556   3.312   7.435 -0.2139 -0.0881  0.2677
 1230ERGO   ROH17921   7.109   3.946   5.927 -0.0631 -0.0405  0.1459
 1230ERGO    R117922   7.313   3.917   6.122 -0.0562 -0.0507  0.1361
 1230ERGO    R217923   7.380   4.120   6.298 -0.0727 -0.0731  0.1631
 1230ERGO    R317924   7.335   3.928   6.485 -0.0465 -0.1051  0.1380
 1230ERGO    R417925   7.486   4.135   6.626 -0.4240  0.0912  0.2739
 1230ERGO    R517926   7.536   3.923   6.615 -0.1683  0.1413  0.3460
 1230ERGO    C117927   7.505   3.963   6.993 -0.6040  0.1569  0.3149
 1230ERGO    C217928   7.612   3.917   7.330  0.3098 -0.1677  0.1597
 1231ERGO   ROH17929  14.363  15.243   6.238  0.1717 -0.0585 -0.1164
 1231ERGO    R117930  14.459  15.430   6.427  0.1843  0.0068 -0.1870
 1231ERGO    R217931  14.351  15.454   6.681  0.0274  0.2716 -0.2745
 1231ERGO    R317932  14.610  15.419   6.758 -0.0499  0.1302 -0.0734
 1231ERGO    R417933  14.472  15.516   6.999 -0.1627  0.3254 -0.2117
 1231ERGO    R517934  14.652  15.601   6.909 -0.0384  0.1674 -0.1202
 1231ERGO    C117935  14.785  15.519   7.257 -0.3459  0.2243  0.0137
 1231ERGO    C217936  14.735  15.416   7.534  0.3183  0.0514  0.0495
 1232ERGO   ROH17937   3.643  14.731   6.492 -0.1666 -0.1748 -0.0437
 1232ERGO    R117938   3.605  14.529   6.687  0.0065 -0.1338  0.0348
 1232ERGO    R217939   3.799  14.461   6.872  0.0578  0.1235  0.0815
 1232ERGO    R317940   3.601  14.511   7.051 -0.0063  0.0114  0.0420
 1232ERGO    R417941   3.795  14.351   7.199  0.1297  0.2628  0.1304
 1232ERGO    R517942   3.583  14.309   7.178  0.1727  0.0508  0.1286
 1232ERGO    C117943   3.606  14.333   7.558  0.1114  0.2389  0.1217
 1232ERGO    C217944   3.610  14.228   7.876 -0.0444 -0.0515  0.0050
 1233ERGO   ROH17945  11.129  17.743   5.905 -0.0834  0.1138  0.0563
 1233ERGO    R117946  11.183  17.665   6.172  0.0643 -0.0208 -0.0104
 1233ERGO    R217947  11.430  17.701   6.291  0.0990  0.0215 -0.0885
 1233ERGO    R317948  11.284  17.830   6.480  0.1172 -0.1579  0.0449
 1233ERGO    R417949  11.549  17.795   6.601  0.1708 -0.1362 -0.0690
 1233ERGO    R517950  11.358  17.734   6.687  0.2254 -0.2632 -0.0432
 1233ERGO    C117951  11.481  17.970   6.960  0.2296 -0.3966  0.0676
 1233ERGO    C217952  11.563  17.906   7.289 -0.0359  0.4065  0.1827
 1234ERGO   ROH17953   9.132   0.802   5.836 -0.0402  0.1511 -0.0985
 1234ERGO    R117954   9.286   0.978   5.996 -0.0836  0.0984  0.0033
 1234ERGO    R217955   9.172   1.178   6.150 -0.1193  0.1198 -0.0474
 1234ERGO    R317956   9.313   1.059   6.350 -0.2671  0.0652  0.0256
 1234ERGO    R417957   9.287   1.339   6.433  0.3223  0.2257 -0.2767
 1234ERGO    R517958   9.472   1.225   6.417  0.0964 -0.1638 -0.2327
 1234ERGO    C117959   9.486   1.321   6.786  0.4408  0.2361 -0.3417
 1234ERGO    C217960   9.407   1.320   7.044 -0.1017  0.0683 -0.1359
 1235ERGO   ROH17961   4.021   0.020   6.137  0.2119  0.1695 -0.0116
 1235ERGO    R117962   4.015  -0.073   6.405  0.1235  0.1502 -0.0191
 1235ERGO    R217963   4.242  -0.159   6.538  0.0635  0.0307  0.0142
 1235ERGO    R317964   4.164   0.025   6.722  0.1190  0.0550  0.0119
 1235ERGO    R417965   4.252  -0.206   6.880 -0.1599 -0.0513  0.0104
 1235ERGO    R517966   4.060  -0.104   6.895 -0.0818  0.1060 -0.0713
 1235ERGO    C117967   4.185  -0.060   7.252 -0.2379 -0.0763  0.0062
 1235ERGO    C217968   4.248  -0.117   7.655 -0.2471  0.1698  0.0859
 1236ERGO   ROH17969  11.773   6.919   5.949  0.0497 -0.1019  0.0913
 1236ERGO    R117970  11.913   6.973   6.189  0.0736 -0.2330  0.1075
 1236ERGO    R217971  11.827   7.161   6.373  0.3161 -0.0259  0.0149
 1236ERGO    R317972  11.846   6.952   6.546 -0.0572  0.0045  0.0997
 1236ERGO    R417973  11.909   7.187   6.708  0.3330 -0.0287  0.0108
 1236ERGO    R517974  12.030   7.007   6.688  0.0316 -0.2511  0.0912
 1236ERGO    C117975  11.973   7.005   7.065 -0.0075 -0.0017  0.0882
 1236ERGO    C217976  12.119   6.966   7.448  0.1366  0.0199 -0.1787
 1237ERGO   ROH17977  12.139   0.866   5.947 -0.0295 -0.0138 -0.2355
 1237ERGO    R117978  12.004   0.902   6.193 -0.1033  0.0814 -0.2880
 1237ERGO    R217979  12.085   0.779   6.427 -0.3166 -0.0257 -0.2631
 1237ERGO    R317980  12.085   1.033   6.523 -0.1190 -0.0349 -0.2380
 1237ERGO    R417981  12.014   0.867   6.754 -0.4135  0.0105 -0.2950
 1237ERGO    R517982  11.903   1.038   6.678 -0.2017  0.1290 -0.3404
 1237ERGO    C117983  11.972   1.157   7.034 -0.2846  0.0230 -0.2899
 1237ERGO    C217984  11.963   1.155   7.361 -0.0999 -0.1410  0.1736
 1238ERGO   ROH17985   4.058   6.480   6.476 -0.1351  0.2553  0.1107
 1238ERGO    R117986   4.229   6.471   6.702 -0.0551  0.1827  0.0479
 1238ERGO    R217987   4.173   6.604   6.937  0.0351  0.1188  0.1069
 1238ERGO    R317988   4.206   6.358   7.047  0.0624  0.0856  0.0245
 1238ERGO    R417989   4.317   6.544   7.245  0.1765  0.0222  0.0226
 1238ERGO    R517990   4.418   6.371   7.158  0.1177  0.0344 -0.0726
 1238ERGO    C117991   4.433   6.277   7.528  0.2844 -0.0650 -0.1038
 1238ERGO    C217992   4.506   6.180   7.937  0.2328 -0.0546 -0.5179
 1239ERGO   ROH17993   4.016  16.429   6.399 -0.0276  0.0716 -0.1378
 1239ERGO    R117994   4.009  16.380   6.677  0.0312 -0.1576 -0.1743
 1239ERGO    R217995   3.826  16.502   6.845  0.3855  0.1014  0.0395
 1239ERGO    R317996   3.769  16.246   6.916 -0.1306  0.1506 -0.1595
 1239ERGO    R417997   3.705  16.406   7.154  0.4621  0.0764  0.0617
 1239ERGO    R517998   3.837  16.232   7.146  0.0642 -0.2257 -0.2336
 1239ERGO    C117999   3.581  16.110   7.401  0.0223  0.1080 -0.1121
 1239ERGO    C218000   3.412  15.995   7.641 -0.0686 -0.1217 -0.0804
 1240ERGO   ROH18001   4.298  10.449   6.243 -0.0724  0.0164  0.1282
 1240ERGO    R118002   4.348  10.318   6.489 -0.2041 -0.0055  0.1436
 1240ERGO    R218003   4.523  10.418   6.678  0.0143 -0.2347  0.0653
 1240ERGO    R318004   4.308  10.395   6.842  0.0240  0.1444  0.1394
 1240ERGO    R418005   4.539  10.395   7.022  0.1127 -0.4158  0.0504
 1240ERGO    R518006   4.380  10.246   7.015 -0.2104 -0.0890  0.0457
 1240ERGO    C118007   4.346  10.361   7.377  0.1792 -0.1653  0.1111
 1240ERGO    C218008   4.426  10.431   7.745 -0.1075  0.2471  0.1414
 1241ERGO   ROH18009  13.732   8.147   5.742 -0.1891 -0.0960  0.1500
 1241ERGO    R118010  13.901   8.141   5.969 -0.0620  0.2209  0.0704
 1241ERGO    R218011  13.907   8.345   6.154 -0.4507  0.1897  0.1336
 1241ERGO    R318012  13.858   8.143   6.330  0.0904  0.0044  0.0899
 1241ERGO    R418013  13.944   8.370   6.497 -0.8668  0.3356  0.1727
 1241ERGO    R518014  14.029   8.168   6.497 -0.1424  0.6177  0.2554
 1241ERGO    C118015  13.919   8.195   6.862 -0.6011  0.2465  0.1546
 1241ERGO    C218016  13.890   8.290   7.287 -0.1691  0.1555 -0.1534
 1242ERGO   ROH18017  17.278   7.794   6.305  0.0292  0.0899 -0.0900
 1242ERGO    R118018  17.268   7.786   6.588 -0.0044  0.0342 -0.0929
 1242ERGO    R218019  17.482   7.860   6.746 -0.0328  0.0270 -0.0537
 1242ERGO    R318020  17.298   8.026   6.860 -0.0644 -0.0154 -0.0418
 1242ERGO    R418021  17.434   7.899   7.087 -0.0236  0.0090 -0.0500
 1242ERGO    R518022  17.219   7.905   7.051 -0.0281 -0.0379 -0.0396
 1242ERGO    C118023  17.234   8.076   7.391 -0.0477 -0.0412 -0.0366
 1242ERGO    C218024  17.305   7.961   7.718 -0.1786 -0.0766 -0.2414
 1243ERGO   ROH18025  14.974   4.448   6.021 -0.2459  0.0549 -0.0705
 1243ERGO    R118026  14.825   4.550   6.238 -0.1580  0.1803 -0.0677
 1243ERGO    R218027  14.798   4.415   6.478 -0.3776  0.1376 -0.1117
 1243ERGO    R318028  14.892   4.647   6.583 -0.0966 -0.0114 -0.0252
 1243ERGO    R418029  14.740   4.523   6.800 -0.2330  0.0853 -0.0675
 1243ERGO    R518030  14.714   4.725   6.722  0.0022  0.1471  0.0123
 1243ERGO    C118031  14.794   4.805   7.087  0.1150 -0.0850  0.0394
 1243ERGO    C218032  14.725   4.837   7.481 -0.0938 -0.2578 -0.0458
 1244ERGO   ROH18033   0.710  17.744   6.201  0.0632 -0.2036 -0.0228
 1244ERGO    R118034   0.595  17.691   6.454  0.0289 -0.3633 -0.0697
 1244ERGO    R218035   0.600  17.440   6.571  0.3848 -0.3528 -0.0369
 1244ERGO    R318036   0.712  17.574   6.779  0.0749 -0.1371 -0.0057
 1244ERGO    R418037   0.596  17.334   6.900  0.2180 -0.1814  0.0163
 1244ERGO    R518038   0.559  17.540   6.960 -0.0382 -0.1915 -0.1169
 1244ERGO    C118039   0.697  17.400   7.287 -0.1700  0.1211  0.0766
 1244ERGO    C218040   0.759  17.497   7.568  0.1575  0.0144  0.0025
 1245ERGO   ROH18041   8.940   5.103   6.038  0.0843  0.3398 -0.0307
 1245ERGO    R118042   8.981   5.103   6.318 -0.0083  0.2774 -0.0173
 1245ERGO    R218043   8.861   5.287   6.486 -0.1385  0.1801 -0.0057
 1245ERGO    R318044   8.774   5.064   6.615 -0.0904  0.1088 -0.0944
 1245ERGO    R418045   8.842   5.252   6.830 -0.2504  0.0904 -0.0200
 1245ERGO    R518046   8.915   5.048   6.808 -0.1523  0.1246 -0.0448
 1245ERGO    C118047   8.750   5.023   7.151 -0.2705 -0.0288 -0.1115
 1245ERGO    C218048   8.848   4.900   7.511  0.2064 -0.0793 -0.0999
 1246ERGO   ROH18049   2.534  15.830   6.319  0.0204  0.0114  0.1088
 1246ERGO    R118050   2.637  15.857   6.582 -0.0050 -0.0156  0.1220
 1246ERGO    R218051   2.558  16.060   6.752  0.0406  0.0178  0.1073
 1246ERGO    R318052   2.502  15.854   6.919 -0.0524  0.0400  0.1031
 1246ERGO    R418053   2.496  16.092   7.090  0.0574  0.0350  0.1083
 1246ERGO    R518054   2.613  15.911   7.124 -0.0262 -0.0175  0.1030
 1246ERGO    C118055   2.407  15.916   7.445 -0.0202  0.0661  0.1050
 1246ERGO    C218056   2.473  15.821   7.803  0.1153  0.0717 -0.3019
 1247ERGO   ROH18057  17.884   4.746   6.371 -0.0146  0.1231 -0.1784
 1247ERGO    R118058  17.952   4.612   6.612  0.1456  0.0676 -0.2552
 1247ERGO    R218059  18.192   4.654   6.742  0.0273  0.4062 -0.1544
 1247ERGO    R318060  18.030   4.708   6.954 -0.1386 -0.0411 -0.1537
 1247ERGO    R418061  18.271   4.590   7.072  0.2710  0.6963 -0.1507
 1247ERGO    R518062  18.066   4.525   7.104  0.4430  0.0659 -0.1240
 1247ERGO    C118063  18.166   4.603   7.463  0.2572  0.4454 -0.1479
 1247ERGO    C218064  18.310   4.726   7.701 -0.0870  0.1587  0.0266
 1248ERGO   ROH18065  17.662   9.328   6.262  0.0744  0.1022  0.0556
 1248ERGO    R118066  17.584   9.303   6.533  0.1291  0.4330  0.1050
 1248ERGO    R218067  17.500   9.520   6.684 -0.5374  0.5265 -0.3583
 1248ERGO    R318068  17.282   9.364   6.727 -0.0884 -0.0612 -0.0621
 1248ERGO    R418069  17.330   9.496   6.984 -0.3478  0.4470 -0.2549
 1248ERGO    R518070  17.310   9.282   6.950  0.2511  0.3181  0.0496
 1248ERGO    C118071  17.025   9.335   7.199  0.1839 -0.1510  0.0834
 1248ERGO    C218072  16.828   9.182   7.506  0.0682 -0.0615 -0.0195
 1249ERGO   ROH18073  13.862  16.693   7.650  0.0763  0.0239 -0.0305
 1249ERGO    R118074  13.825  16.518   7.430 -0.0269  0.0981 -0.0724
 1249ERGO    R218075  13.760  16.609   7.177  0.2806  0.2222 -0.1079
 1249ERGO    R318076  13.981  16.466   7.105  0.1271 -0.0955  0.0289
 1249ERGO    R418077  13.817  16.477   6.863  0.3688  0.3132 -0.1314
 1249ERGO    R518078  13.897  16.298   6.957 -0.0100  0.1205 -0.1499
 1249ERGO    C118079  14.057  16.266   6.613  0.2761  0.0679 -0.0166
 1249ERGO    C218080  14.076  16.237   6.333 -0.0105  0.1178  0.0685
 1250ERGO   ROH18081   5.272  15.568   6.532  0.1479  0.0819 -0.2792
 1250ERGO    R118082   5.343  15.698   6.774  0.1498  0.0016 -0.2369
 1250ERGO    R218083   5.181  15.695   6.997  0.1181 -0.0095 -0.2629
 1250ERGO    R318084   5.404  15.599   7.119  0.0743 -0.1010 -0.2518
 1250ERGO    R418085   5.219  15.660   7.339  0.0961 -0.0021 -0.2588
 1250ERGO    R518086   5.424  15.731   7.318  0.1297 -0.0945 -0.2606
 1250ERGO    C118087   5.452  15.550   7.652  0.0420 -0.0836 -0.2461
 1250ERGO    C218088   5.533  15.566   7.926  0.1630  0.0929  0.3425
 1251ERGO   ROH18089   7.724  15.422   6.498 -0.2414 -0.2198 -0.0708
 1251ERGO    R118090   7.766  15.330   6.762  0.0500 -0.1046 -0.0727
 1251ERGO    R218091   7.992  15.396   6.908  0.0373  0.2856 -0.2032
 1251ERGO    R318092   7.809  15.481   7.090 -0.0098  0.0343 -0.1304
 1251ERGO    R418093   8.050  15.427   7.247  0.0420  0.1534 -0.1921
 1251ERGO    R518094   7.851  15.348   7.284  0.1195 -0.0299 -0.2084
 1251ERGO    C118095   7.912  15.526   7.616  0.0005 -0.1595 -0.1171
 1251ERGO    C218096   7.805  15.738   7.846 -0.0810 -0.1441 -0.0266
 1252ERGO   ROH18097  12.545  12.312   6.175  0.0520 -0.2681 -0.0120
 1252ERGO    R118098  12.643  12.406   6.423  0.1296 -0.1422 -0.0898
 1252ERGO    R218099  12.490  12.408   6.653  0.1289  0.1803 -0.0910
 1252ERGO    R318100  12.699  12.267   6.755  0.0103  0.0880  0.0297
 1252ERGO    R418101  12.576  12.395   6.988 -0.0337  0.1956 -0.0475
 1252ERGO    R518102  12.786  12.406   6.930  0.0021  0.0763  0.0455
 1252ERGO    C118103  12.822  12.256   7.278 -0.2397  0.1179  0.0911
 1252ERGO    C218104  12.904  12.167   7.601  0.0879  0.0109 -0.1053
 1253ERGO   ROH18105   9.054  13.371   6.447  0.1836  0.0985 -0.0864
 1253ERGO    R118106   9.103  13.230   6.687  0.0329  0.0429 -0.0874
 1253ERGO    R218107   9.357  13.200   6.793 -0.0172 -0.1001 -0.0082
 1253ERGO    R318108   9.241  13.307   7.015 -0.0348 -0.0693 -0.0318
 1253ERGO    R418109   9.470  13.155   7.117 -0.1420 -0.1978  0.0230
 1253ERGO    R518110   9.263  13.137   7.182 -0.1734 -0.1021 -0.0453
 1253ERGO    C118111   9.427  13.229   7.513 -0.2312 -0.2257  0.0189
 1253ERGO    C218112   9.467  13.216   7.847  0.1920  0.0623  0.0462
 1254ERGO   ROH18113  16.912   1.112   6.363  0.1728  0.1314 -0.0969
 1254ERGO    R118114  16.810   1.233   6.597 -0.0370  0.0300 -0.1337
 1254ERGO    R218115  16.636   1.104   6.768  0.1528 -0.2075 -0.1153
 1254ERGO    R318116  16.822   1.168   6.955  0.0423  0.1343 -0.1166
 1254ERGO    R418117  16.571   1.137   7.105  0.1204 -0.5055 -0.0894
 1254ERGO    R518118  16.704   1.310   7.108 -0.2661 -0.1944 -0.0341
 1254ERGO    C118119  16.708   1.217   7.478 -0.0019 -0.3581 -0.0754
 1254ERGO    C218120  16.893   0.964   7.720 -0.0533 -0.0324  0.1749
 1255ERGO   ROH18121   1.474  11.590   6.208  0.1261 -0.1319  0.0609
 1255ERGO    R118122   1.355  11.745   6.412  0.1534  0.0181 -0.0365
 1255ERGO    R218123   1.214  11.633   6.621 -0.0867  0.1900 -0.1065
 1255ERGO    R318124   1.388  11.776   6.774 -0.0385  0.0424 -0.0194
 1255ERGO    R418125   1.158  11.727   6.949 -0.0866  0.0591 -0.0678
 1255ERGO    R518126   1.248  11.921   6.904  0.0063  0.0446  0.0317
 1255ERGO    C118127   1.289  11.917   7.283 -0.0412 -0.1556  0.0365
 1255ERGO    C218128   1.229  11.886   7.638 -0.0928  0.0702  0.1953
 1256ERGO   ROH18129  15.539  17.427   6.164 -0.0990  0.0937 -0.0114
 1256ERGO    R118130  15.633  17.423   6.430 -0.0212  0.2550 -0.0355
 1256ERGO    R218131  15.635  17.648   6.591 -0.2639  0.2860 -0.0721
 1256ERGO    R318132  15.495  17.489   6.761 -0.0182  0.1315 -0.0095
 1256ERGO    R418133  15.579  17.717   6.925 -0.2677  0.2687 -0.0691
 1256ERGO    R518134  15.613  17.506   6.969  0.0145  0.3159 -0.0418
 1256ERGO    C118135  15.415  17.607   7.279 -0.0392  0.1135 -0.0085
 1256ERGO    C218136  15.308  17.753   7.508  0.1735  0.1736  0.1873
 1257ERGO   ROH18137  11.516   6.538   5.757 -0.1114  0.1829  0.0068
 1257ERGO    R118138  11.551   6.457   6.026  0.1223 -0.0592 -0.0919
 1257ERGO    R218139  11.799   6.448   6.148  0.1882  0.2441 -0.1893
 1257ERGO    R318140  11.678   6.606   6.333 -0.0391 -0.1693  0.0288
 1257ERGO    R418141  11.885   6.464   6.482  0.3498  0.1216 -0.2239
 1257ERGO    R518142  11.673   6.473   6.532  0.3526 -0.3626 -0.0842
 1257ERGO    C118143  11.821   6.622   6.850  0.2305 -0.3378 -0.0392
 1257ERGO    C218144  11.840   6.507   7.230 -0.2061  0.2102 -0.0399
 1258ERGO   ROH18145   9.937  17.678   6.365  0.3680 -0.0829 -0.0719
 1258ERGO    R118146   9.831  17.825   6.582  0.1931 -0.1502 -0.1103
 1258ERGO    R218147   9.692  17.706   6.789  0.2260 -0.2433 -0.1461
 1258ERGO    R318148   9.876  17.834   6.943  0.0827 -0.0921 -0.0961
 1258ERGO    R418149   9.647  17.787   7.122  0.0221 -0.1881 -0.1854
 1258ERGO    R518150   9.746  17.979   7.083 -0.0738 -0.1338 -0.1909
 1258ERGO    C118151   9.794  17.954   7.461 -0.2311 -0.0136 -0.1615
 1258ERGO    C218152   9.720  17.765   7.668  0.1710  0.0292 -0.1057
 1259ERGO   ROH18153   0.488   5.545   6.331 -0.0270  0.0839 -0.0164
 1259ERGO    R118154   0.608   5.526   6.586 -0.0513  0.1102 -0.0019
 1259ERGO    R218155   0.629   5.742   6.757 -0.1388  0.1119  0.0132
 1259ERGO    R318156   0.504   5.575   6.932 -0.1102  0.0639 -0.0138
 1259ERGO    R418157   0.585   5.805   7.094  0.1078 -0.0837  0.0840
 1259ERGO    R518158   0.630   5.596   7.134  0.0286 -0.1306 -0.0799
 1259ERGO    C118159   0.442   5.685   7.454  0.2783 -0.2428  0.0999
 1259ERGO    C218160   0.380   5.760   7.817  0.5346  0.1986 -0.1166
 1260ERGO   ROH18161   1.166   2.031   6.338  0.0899  0.0254  0.0033
 1260ERGO    R118162   1.109   1.870   6.564  0.2472 -0.1699 -0.0937
 1260ERGO    R218163   1.306   1.742   6.709  0.4159  0.2298  0.0443
 1260ERGO    R318164   1.191   1.872   6.918 -0.0707 -0.0763 -0.0170
 1260ERGO    R418165   1.313   1.634   7.037  0.3476  0.1472  0.0189
 1260ERGO    R518166   1.106   1.697   7.058  0.1784 -0.3119 -0.1505
 1260ERGO    C118167   1.210   1.693   7.425 -0.1490 -0.1882 -0.0534
 1260ERGO    C218168   1.247   1.631   7.764 -0.2705  0.2334 -0.2557
 1261ERGO   ROH18169  14.728  16.682   6.081 -0.0926  0.2063  0.1196
 1261ERGO    R118170  14.845  16.839   6.286  0.1683  0.0433  0.0994
 1261ERGO    R218171  14.696  17.004   6.450  0.4374  0.3150  0.0765
 1261ERGO    R318172  14.818  16.863   6.648  0.2057  0.1365  0.0966
 1261ERGO    R418173  14.610  17.019   6.785  0.1846  0.1801  0.0203
 1261ERGO    R518174  14.823  17.014   6.834  0.1469  0.0340  0.1836
 1261ERGO    C118175  14.675  16.895   7.165 -0.1802 -0.0660  0.0065
 1261ERGO    C218176  14.483  16.857   7.403 -0.0486 -0.2417 -0.0526
 1262ERGO   ROH18177   5.350   8.262   6.340 -0.0919  0.1875  0.1618
 1262ERGO    R118178   5.427   8.045   6.504 -0.2289  0.0764  0.0832
 1262ERGO    R218179   5.671   8.037   6.635 -0.1095 -0.2507 -0.1371
 1262ERGO    R318180   5.515   7.995   6.854  0.0287 -0.0438  0.0030
 1262ERGO    R418181   5.768   7.863   6.917 -0.0133 -0.1740 -0.1235
 1262ERGO    R518182   5.570   7.773   6.925 -0.0633 -0.0420  0.0714
 1262ERGO    C118183   5.679   7.723   7.287  0.1727  0.0650  0.0160
 1262ERGO    C218184   5.717   7.653   7.596  0.4216  0.1618  0.4600
 1263ERGO   ROH18185  13.052  16.745   6.092 -0.1356  0.1158  0.0718
 1263ERGO    R118186  13.222  16.682   6.309 -0.1496 -0.1686  0.0039
 1263ERGO    R218187  13.252  16.848   6.528  0.2619 -0.1825 -0.0329
 1263ERGO    R318188  13.184  16.624   6.667 -0.0981 -0.0399  0.0304
 1263ERGO    R418189  13.325  16.791   6.861  0.1142 -0.1837 -0.0003
 1263ERGO    R518190  13.370  16.584   6.811 -0.1828 -0.2707  0.0781
 1263ERGO    C118191  13.303  16.548   7.185 -0.3099 -0.0504  0.0782
 1263ERGO    C218192  13.317  16.632   7.510 -0.0868 -0.2371 -0.1171
 1264ERGO   ROH18193   5.944   5.434   6.050 -0.2292  0.1203 -0.1217
 1264ERGO    R118194   6.052   5.518   6.297 -0.2297  0.1272 -0.1236
 1264ERGO    R218195   5.895   5.584   6.514 -0.2255 -0.1083 -0.0462
 1264ERGO    R318196   6.048   5.400   6.642 -0.0072 -0.0133 -0.1665
 1264ERGO    R418197   5.983   5.597   6.848 -0.2198 -0.2007 -0.0443
 1264ERGO    R518198   6.182   5.528   6.793 -0.1409  0.0540 -0.1012
 1264ERGO    C118199   6.178   5.431   7.162 -0.0116 -0.1654 -0.1560
 1264ERGO    C218200   6.313   5.289   7.386  0.1600 -0.0408  0.0141
 1265ERGO   ROH18201   1.528   5.910   6.428 -0.0222  0.0791 -0.3056
 1265ERGO    R118202   1.633   5.692   6.574  0.0173  0.1669 -0.2002
 1265ERGO    R218203   1.579   5.653   6.842 -0.0203  0.2556 -0.1908
 1265ERGO    R318204   1.498   5.408   6.757  0.0670  0.2001 -0.1141
 1265ERGO    R418205   1.562   5.371   7.041  0.0913  0.3024 -0.1142
 1265ERGO    R518206   1.641   5.254   6.874  0.1248  0.2848 -0.0797
 1265ERGO    C118207   1.477   4.976   7.077  0.2382  0.2776  0.0025
 1265ERGO    C218208   1.231   4.755   7.313 -0.3318 -0.2833 -0.1358
 1266ERGO   ROH18209   8.693  12.343   6.463 -0.1916  0.1003  0.0566
 1266ERGO    R118210   8.628  12.217   6.708 -0.0224 -0.0231  0.0394
 1266ERGO    R218211   8.801  12.044   6.837  0.1582  0.0846 -0.0548
 1266ERGO    R318212   8.762  12.212   7.046  0.0710 -0.0045  0.0028
 1266ERGO    R418213   8.779  11.947   7.168  0.1833 -0.0385 -0.0881
 1266ERGO    R518214   8.619  12.092   7.195  0.1166 -0.1197 -0.0459
 1266ERGO    C118215   8.731  12.049   7.557  0.1161 -0.1939 -0.0535
 1266ERGO    C218216   8.510  11.885   7.787  0.0844  0.0357  0.0989
 1267ERGO   ROH18217   9.656   7.783   6.433 -0.1123  0.0015 -0.0140
 1267ERGO    R118218   9.611   7.837   6.707 -0.0894  0.1603 -0.0409
 1267ERGO    R218219   9.788   7.762   6.905 -0.1363  0.1586 -0.0020
 1267ERGO    R318220   9.776   8.026   6.970  0.0079  0.1979 -0.1276
 1267ERGO    R418221   9.907   7.898   7.199 -0.2102  0.2038  0.0076
 1267ERGO    R518222   9.731   8.027   7.205 -0.1280  0.3311 -0.1508
 1267ERGO    C118223   9.965   8.224   7.432 -0.1178  0.2671 -0.1047
 1267ERGO    C218224  10.144   8.267   7.716  0.0507 -0.1560  0.1516
 1268ERGO   ROH18225  17.214   5.118   6.681 -0.0484  0.1678 -0.0607
 1268ERGO    R118226  17.205   5.170   6.959 -0.0607  0.1424 -0.0559
 1268ERGO    R218227  16.970   5.159   7.104 -0.0652  0.1088 -0.0619
 1268ERGO    R318228  17.111   4.986   7.259 -0.0530  0.1066 -0.0761
 1268ERGO    R418229  16.918   5.109   7.442 -0.0532  0.0819 -0.0644
 1268ERGO    R518230  17.134   5.099   7.469 -0.0541  0.0917 -0.0696
 1268ERGO    C118231  17.020   4.917   7.784 -0.0347  0.0641 -0.0792
 1268ERGO    C218232  16.898   4.791   8.023  0.0901  0.1973 -0.3441
 1269ERGO   ROH18233  12.703  15.971   6.101 -0.2590 -0.1791  0.0399
 1269ERGO    R118234  12.554  16.068   6.321 -0.0843  0.0514  0.0607
 1269ERGO    R218235  12.458  15.903   6.520 -0.3300  0.1902  0.0649
 1269ERGO    R318236  12.591  16.075   6.683 -0.0318 -0.0251  0.0563
 1269ERGO    R418237  12.402  15.938   6.859 -0.1891  0.2316  0.0842
 1269ERGO    R518238  12.424  16.154   6.836  0.1228  0.2028  0.1098
 1269ERGO    C118239  12.494  16.120   7.209  0.1729  0.0536  0.0873
 1269ERGO    C218240  12.542  16.125   7.573 -0.4390 -0.1834 -0.0774
 1270ERGO   ROH18241  11.869   2.749   5.718  0.4150  0.1932 -0.1563
 1270ERGO    R118242  11.907   2.881   5.966  0.2815  0.1260 -0.0999
 1270ERGO    R218243  11.703   2.912   6.150  0.1666  0.1315 -0.2300
 1270ERGO    R318244  11.881   2.793   6.319  0.0251  0.0512 -0.1342
 1270ERGO    R418245  11.690   2.929   6.495  0.0396  0.2217 -0.2384
 1270ERGO    R518246  11.907   2.951   6.497  0.0575  0.0792 -0.1602
 1270ERGO    C118247  11.849   2.828   6.854 -0.1671  0.1988 -0.1533
 1270ERGO    C218248  11.812   2.904   7.122  0.1271 -0.0841  0.0631
 1271ERGO   ROH18249   5.713  17.730   6.460  0.1849  0.0898  0.0888
 1271ERGO    R118250   5.645  17.640   6.720  0.0899 -0.0568  0.0146
 1271ERGO    R218251   5.800  17.460   6.860  0.0614 -0.1050 -0.0127
 1271ERGO    R318252   5.794  17.653   7.052 -0.0516 -0.2037  0.0846
 1271ERGO    R418253   5.853  17.405   7.197  0.2362 -0.2184 -0.0574
 1271ERGO    R518254   5.692  17.546   7.240  0.1184 -0.3914  0.0713
 1271ERGO    C118255   5.879  17.554   7.573  0.2320 -0.3772  0.0079
 1271ERGO    C218256   5.851  17.626   7.901 -0.2314 -0.2237  0.0889
 1272ERGO   ROH18257   0.024   5.661   6.362  0.1390  0.0881  0.0217
 1272ERGO    R118258   0.117   5.648   6.630  0.0888 -0.2384  0.0267
 1272ERGO    R218259   0.052   5.838   6.819  0.5082 -0.1577  0.0953
 1272ERGO    R318260  -0.032   5.622   6.960 -0.0093 -0.0325  0.0007
 1272ERGO    R418261   0.055   5.815   7.164  0.5694 -0.3576  0.0834
 1272ERGO    R518262   0.121   5.608   7.144  0.0301 -0.5337 -0.0556
 1272ERGO    C118263  -0.022   5.598   7.497  0.1194 -0.3565 -0.0122
 1272ERGO    C218264  -0.085   5.681   7.854 -0.0458 -0.0477 -0.0429
 1273ERGO   ROH18265   1.698  10.357   6.861 -0.1287  0.0542 -0.1480
 1273ERGO    R118266   1.916  10.436   7.023 -0.0478 -0.0571 -0.2018
 1273ERGO    R218267   1.883  10.569   7.263  0.0822  0.0416 -0.2407
 1273ERGO    R318268   2.034  10.366   7.360 -0.0535 -0.0400 -0.1952
 1273ERGO    R418269   2.081  10.588   7.545  0.2036  0.0248 -0.3239
 1273ERGO    R518270   2.233  10.472   7.440  0.0699 -0.1612 -0.3260
 1273ERGO    C118271   2.340  10.407   7.801  0.1469 -0.0616 -0.3296
 1273ERGO    C218272   2.323  10.357   8.111 -0.2458 -0.1206  0.0919
 1274ERGO   ROH18273   9.103  14.776   6.538  0.0107  0.1392  0.0741
 1274ERGO    R118274   9.038  14.644   6.780  0.0111  0.0575  0.0303
 1274ERGO    R218275   9.230  14.566   6.962  0.0139 -0.0265 -0.0068
 1274ERGO    R318276   9.078  14.710   7.136  0.0359 -0.0741  0.0520
 1274ERGO    R418277   9.325  14.651   7.284  0.0670 -0.0835 -0.0072
 1274ERGO    R518278   9.121  14.610   7.349  0.0841 -0.1128  0.0233
 1274ERGO    C118279   9.237  14.837   7.633  0.1186 -0.1612  0.0476
 1274ERGO    C218280   9.251  15.041   8.003  0.0305  0.1688  0.0689
 1275ERGO   ROH18281  13.666  13.793   6.015  0.1976 -0.0503 -0.1573
 1275ERGO    R118282  13.688  13.796   6.298  0.1216  0.0062 -0.1523
 1275ERGO    R218283  13.863  13.632   6.436 -0.0215 -0.0709 -0.0641
 1275ERGO    R318284  13.948  13.867   6.542  0.1000 -0.0986 -0.0974
 1275ERGO    R418285  13.963  13.677   6.763  0.0407 -0.0850 -0.0803
 1275ERGO    R518286  13.860  13.869   6.764  0.1276 -0.0365 -0.0857
 1275ERGO    C118287  14.101  13.925   7.054  0.1911 -0.1190 -0.1210
 1275ERGO    C218288  14.359  13.806   7.274  0.0395  0.1707  0.2619
 1276ERGO   ROH18289  10.395   6.519   6.220 -0.1161 -0.1164 -0.0104
 1276ERGO    R118290  10.305   6.456   6.481 -0.0335 -0.0719  0.0297
 1276ERGO    R218291  10.394   6.233   6.619 -0.0309 -0.0787  0.0185
 1276ERGO    R318292  10.455   6.416   6.810  0.0806 -0.0734 -0.0220
 1276ERGO    R418293  10.446   6.160   6.952  0.0196 -0.0500  0.0167
 1276ERGO    R518294  10.337   6.341   7.004  0.0979 -0.0023  0.0163
 1276ERGO    C118295  10.534   6.289   7.326  0.1536 -0.0284 -0.0224
 1276ERGO    C218296  10.617   6.402   7.696 -0.0869 -0.0006 -0.1038
 1277ERGO   ROH18297   1.196   1.034   6.375 -0.0878 -0.0977 -0.0169
 1277ERGO    R118298   1.097   0.834   6.549 -0.0670 -0.1596 -0.0745
 1277ERGO    R218299   1.196   0.577   6.551  0.1017 -0.0999 -0.0086
 1277ERGO    R318300   1.230   0.627   6.816 -0.0944 -0.0655  0.0112
 1277ERGO    R418301   1.273   0.338   6.788  0.3175 -0.0033  0.0201
 1277ERGO    R518302   1.135   0.436   6.925  0.1164 -0.2013 -0.0432
 1277ERGO    C118303   1.351   0.245   7.175  0.2592  0.0853  0.0553
 1277ERGO    C218304   1.369   0.169   7.541  0.1194 -0.1413  0.0874
 1278ERGO   ROH18305   1.670  15.434   6.418 -0.1924 -0.0117  0.0866
 1278ERGO    R118306   1.712  15.254   6.633 -0.0852  0.0186  0.0905
 1278ERGO    R218307   1.794  15.337   6.883 -0.2209  0.0832  0.1080
 1278ERGO    R318308   1.573  15.201   6.965 -0.1192 -0.1180  0.0570
 1278ERGO    R418309   1.702  15.290   7.213 -0.2319 -0.0144  0.0918
 1278ERGO    R518310   1.644  15.086   7.162 -0.0453 -0.0696  0.0651
 1278ERGO    C118311   1.441  15.134   7.482 -0.1428 -0.2601  0.0344
 1278ERGO    C218312   1.392  15.185   7.918 -0.0247  0.4020 -0.0124
 1279ERGO   ROH18313   7.981  17.892   6.245  0.1719  0.0266 -0.1478
 1279ERGO    R118314   7.819  17.948   6.470  0.1070  0.0067 -0.1891
 1279ERGO    R218315   7.846  17.814   6.710 -0.0723 -0.1299 -0.2424
 1279ERGO    R318316   7.871  18.066   6.811  0.0292 -0.1926 -0.1067
 1279ERGO    R418317   7.810  17.899   7.044 -0.1762 -0.2742 -0.2163
 1279ERGO    R518318   7.703  18.078   6.982 -0.0429 -0.1803 -0.1776
 1279ERGO    C118319   7.812  18.184   7.332 -0.1415 -0.4171 -0.0736
 1279ERGO    C218320   7.744  18.122   7.717  0.0513  0.0686  0.0981
 1280ERGO   ROH18321   8.025  16.241   6.464 -0.1960  0.1025 -0.1524
 1280ERGO    R118322   7.962  16.292   6.735 -0.3073  0.3195 -0.2185
 1280ERGO    R218323   8.150  16.275   6.938 -0.5075 -0.0596 -0.0610
 1280ERGO    R318324   8.069  16.529   6.991  0.0251  0.1540 -0.1975
 1280ERGO    R418325   8.171  16.427   7.247 -0.4538 -0.0431 -0.0714
 1280ERGO    R518326   7.974  16.516   7.211 -0.2273  0.4128 -0.2823
 1280ERGO    C118327   8.107  16.754   7.478  0.0775  0.1671 -0.2056
 1280ERGO    C218328   8.340  16.832   7.878  0.0185 -0.1450  0.2336
 1281ERGO   ROH18329   0.353   2.815   6.563 -0.2092  0.1209 -0.0403
 1281ERGO    R118330   0.269   2.766   6.829 -0.1361  0.1686 -0.0079
 1281ERGO    R218331   0.442   2.680   7.026 -0.0918  0.1534 -0.0528
 1281ERGO    R318332   0.347   2.897   7.160 -0.0033  0.1891 -0.0467
 1281ERGO    R418333   0.501   2.747   7.360 -0.1024  0.0968 -0.0395
 1281ERGO    R518334   0.293   2.813   7.378 -0.0727  0.1967 -0.0609
 1281ERGO    C118335   0.445   2.990   7.680 -0.0256  0.0974 -0.0261
 1281ERGO    C218336   0.705   2.946   8.025  0.0071  0.0242  0.0772
 1282ERGO   ROH18337  17.568  15.336   6.045  0.0575  0.1916 -0.0124
 1282ERGO    R118338  17.615  15.253   6.311 -0.0248  0.1975  0.0043
 1282ERGO    R218339  17.761  15.405   6.491 -0.0912  0.2072  0.0495
 1282ERGO    R318340  17.539  15.378   6.645 -0.1400  0.1973 -0.0217
 1282ERGO    R418341  17.755  15.432   6.835 -0.1751  0.0500  0.0615
 1282ERGO    R518342  17.616  15.265   6.841 -0.2235  0.0851 -0.0526
 1282ERGO    C118343  17.542  15.422   7.180 -0.2697 -0.0509  0.0017
 1282ERGO    C218344  17.530  15.247   7.495  0.0886  0.0766  0.1228
 1283ERGO   ROH18345   7.091   9.651   6.481 -0.0959  0.0712 -0.0310
 1283ERGO    R118346   7.103   9.572   6.752 -0.0639  0.0599 -0.0356
 1283ERGO    R218347   7.153   9.750   6.957  0.0222  0.0419 -0.0389
 1283ERGO    R318348   6.923   9.648   7.059  0.0145  0.0985  0.0008
 1283ERGO    R418349   7.067   9.751   7.292  0.0150  0.1845 -0.0405
 1283ERGO    R518350   6.988   9.550   7.267  0.0032  0.1804  0.0421
 1283ERGO    C118351   6.800   9.655   7.582  0.0037  0.3206 -0.0041
 1283ERGO    C218352   6.629   9.820   7.866  0.2984 -0.2146 -0.0646
 1284ERGO   ROH18353   4.622   0.777   6.666  0.0101 -0.0347  0.0249
 1284ERGO    R118354   4.784   0.712   6.889  0.0611  0.2047  0.0591
 1284ERGO    R218355   4.822   0.884   7.101 -0.3554  0.2097  0.1286
 1284ERGO    R318356   4.737   0.672   7.248  0.0090 -0.0137  0.0311
 1284ERGO    R418357   4.783   0.884   7.445 -0.4694  0.0359  0.1181
 1284ERGO    R518358   4.867   0.683   7.449 -0.0687  0.1841  0.0789
 1284ERGO    C118359   4.681   0.684   7.782 -0.1937 -0.2750  0.0204
 1284ERGO    C218360   4.720   0.591   8.067  0.0041 -0.0210 -0.1347
 1285ERGO   ROH18361   7.510  11.589   6.423  0.0175  0.3526 -0.2191
 1285ERGO    R118362   7.357  11.566   6.660  0.0881  0.0204 -0.2018
 1285ERGO    R218363   7.472  11.530   6.909  0.1890  0.1451 -0.2336
 1285ERGO    R318364   7.324  11.750   6.973 -0.1836 -0.1216 -0.1427
 1285ERGO    R418365   7.419  11.644   7.231  0.5010  0.2452 -0.2140
 1285ERGO    R518366   7.212  11.688   7.176  0.2928 -0.2396  0.1034
 1285ERGO    C118367   7.250  11.916   7.479  0.3328  0.0533 -0.1172
 1285ERGO    C218368   7.328  11.926   7.793  0.0854 -0.1266 -0.1822
 1286ERGO   ROH18369   1.000  10.057   6.326 -0.1442  0.1611 -0.0938
 1286ERGO    R118370   1.003  10.105   6.605 -0.1430  0.1566 -0.0929
 1286ERGO    R218371   1.032  10.359   6.712  0.0777  0.1326 -0.0873
 1286ERGO    R318372   0.803  10.293   6.843 -0.0064  0.3451 -0.1245
 1286ERGO    R418373   0.964  10.435   7.042  0.2204 -0.0572 -0.0125
 1286ERGO    R518374   0.874  10.238   7.065 -0.0616  0.0471 -0.1776
 1286ERGO    C118375   0.710  10.418   7.358  0.2245  0.0319 -0.0038
 1286ERGO    C218376   0.619  10.461   7.774 -0.2874  0.0871 -0.4591
 1287ERGO   ROH18377   6.171   9.171   6.529  0.1083 -0.0783  0.0027
 1287ERGO    R118378   6.121   9.289   6.781 -0.0570 -0.0709 -0.0321
 1287ERGO    R218379   5.918   9.202   6.948 -0.0561 -0.1833 -0.0848
 1287ERGO    R318380   6.120   9.180   7.128 -0.0982 -0.0169 -0.0156
 1287ERGO    R418381   5.877   9.117   7.280 -0.0969 -0.2269 -0.1014
 1287ERGO    R518382   6.027   9.266   7.332 -0.2408 -0.1006 -0.0450
 1287ERGO    C118383   6.042   9.046   7.643 -0.1601 -0.0960 -0.0461
 1287ERGO    C218384   6.070   8.953   7.940 -0.0738  0.0107 -0.1393
 1288ERGO   ROH18385   9.144   9.750   6.352 -0.0975  0.0491 -0.0113
 1288ERGO    R118386   9.073   9.883   6.592 -0.0611  0.0460  0.0017
 1288ERGO    R218387   8.980   9.749   6.815  0.0098  0.0391  0.0285
 1288ERGO    R318388   9.183   9.880   6.938  0.0202  0.0717 -0.0239
 1288ERGO    R418389   9.019   9.775   7.157  0.0835  0.0607  0.0183
 1288ERGO    R518390   9.081   9.982   7.129  0.0499  0.0672 -0.0058
 1288ERGO    C118391   9.232   9.914   7.473  0.1360  0.1038 -0.0368
 1288ERGO    C218392   9.256   9.673   7.784 -0.1054  0.1326  0.0531
 1289ERGO   ROH18393  12.338   6.136   6.054 -0.0537 -0.0325 -0.0553
 1289ERGO    R118394  12.197   6.207   6.289  0.1547  0.2145 -0.0015
 1289ERGO    R218395  12.093   6.019   6.464 -0.2132  0.3853 -0.0323
 1289ERGO    R318396  12.238   6.157   6.647  0.1390  0.0274 -0.0233
 1289ERGO    R418397  12.049   5.999   6.806 -0.2147  0.4156 -0.0299
 1289ERGO    R518398  12.080   6.214   6.818  0.2813  0.3597  0.0092
 1289ERGO    C118399  12.160   6.117   7.178  0.1151  0.0972 -0.0200
 1289ERGO    C218400  11.982   6.101   7.477  0.0422  0.0132 -0.3567
 1290ERGO   ROH18401  15.315   1.291   5.937 -0.2528 -0.2369 -0.2356
 1290ERGO    R118402  15.395   1.416   6.178 -0.1509 -0.0994 -0.3397
 1290ERGO    R218403  15.242   1.608   6.303 -0.1864 -0.1647 -0.2898
 1290ERGO    R318404  15.266   1.442   6.517  0.0952 -0.0734 -0.2454
 1290ERGO    R418405  15.218   1.707   6.634 -0.2573 -0.0972 -0.3139
 1290ERGO    R518406  15.383   1.572   6.681 -0.0507  0.1457 -0.3074
 1290ERGO    C118407  15.227   1.608   7.027 -0.0341  0.0278 -0.2863
 1290ERGO    C218408  15.301   1.635   7.431  0.2630  0.0904 -0.0351
 1291ERGO   ROH18409  11.378   3.882   5.697  0.1987  0.1682 -0.0094
 1291ERGO    R118410  11.283   3.936   5.958  0.0907  0.1511 -0.0449
 1291ERGO    R218411  11.184   3.739   6.124  0.0240  0.1404 -0.0984
 1291ERGO    R318412  11.370   3.835   6.297 -0.0482  0.1309 -0.0145
 1291ERGO    R418413  11.156   3.731   6.468 -0.0593 -0.0060 -0.1072
 1291ERGO    R518414  11.241   3.932   6.474 -0.1235  0.0200 -0.0067
 1291ERGO    C118415  11.314   3.818   6.831 -0.1758 -0.1001 -0.0336
 1291ERGO    C218416  11.289   3.735   7.126  0.0329 -0.3364  0.1399
 1292ERGO   ROH18417   0.264   0.650   6.415 -0.2602  0.1910 -0.0467
 1292ERGO    R118418   0.258   0.796   6.657 -0.0808  0.0891  0.0215
 1292ERGO    R218419   0.027   0.829   6.805 -0.0273  0.2418  0.0747
 1292ERGO    R318420   0.179   0.727   7.006 -0.0880  0.0046  0.0030
 1292ERGO    R418421  -0.063   0.825   7.139  0.0403  0.2007  0.0924
 1292ERGO    R518422   0.142   0.876   7.190  0.1044 -0.0306  0.0707
 1292ERGO    C118423   0.027   0.726   7.522  0.0227 -0.0459  0.0355
 1292ERGO    C218424  -0.059   0.775   7.874 -0.1888 -0.0839 -0.0285
 1293ERGO   ROH18425   7.229  15.666   6.373 -0.1013 -0.1008 -0.0283
 1293ERGO    R118426   7.269  15.707   6.650 -0.1313 -0.0742 -0.0279
 1293ERGO    R218427   7.103  15.597   6.842 -0.1397 -0.0740 -0.0344
 1293ERGO    R318428   7.336  15.499   6.941 -0.1396 -0.0443 -0.0048
 1293ERGO    R418429   7.183  15.581   7.178 -0.1504 -0.0044 -0.0282
 1293ERGO    R518430   7.386  15.641   7.127 -0.1520 -0.0063 -0.0316
 1293ERGO    C118431   7.449  15.479   7.467 -0.1566  0.0639  0.0031
 1293ERGO    C218432   7.406  15.446   7.822  0.0656  0.1403  0.0911
 1294ERGO   ROH18433   9.768   5.784   6.011 -0.1277  0.1303  0.0912
 1294ERGO    R118434   9.666   5.685   6.256 -0.0857 -0.0211  0.0470
 1294ERGO    R218435   9.816   5.529   6.428  0.0975  0.2566  0.1312
 1294ERGO    R318436   9.748   5.720   6.609 -0.3267  0.1564  0.0915
 1294ERGO    R418437   9.800   5.480   6.769  0.4456  0.3229  0.1625
 1294ERGO    R518438   9.619   5.602   6.773  0.0844 -0.1599  0.2166
 1294ERGO    C118439   9.726   5.630   7.139  0.2498  0.2674  0.1434
 1294ERGO    C218440   9.681   5.483   7.423 -0.0963  0.1018  0.2007
 1295ERGO   ROH18441  12.130   8.475   5.940  0.0161 -0.3035 -0.1332
 1295ERGO    R118442  12.113   8.298   6.160  0.1410 -0.2749 -0.1004
 1295ERGO    R218443  12.331   8.157   6.256  0.3014  0.1009  0.0948
 1295ERGO    R318444  12.261   8.273   6.491 -0.0574  0.0516  0.0184
 1295ERGO    R418445  12.381   8.017   6.568  0.1742  0.1904  0.1569
 1295ERGO    R518446  12.185   8.091   6.627  0.0241 -0.0271 -0.0349
 1295ERGO    C118447  12.343   8.044   6.971 -0.2367  0.1962  0.1212
 1295ERGO    C218448  12.357   8.017   7.318  0.0287  0.1345  0.0380
 1296ERGO   ROH18449   0.640   3.857   6.413 -0.0722 -0.0887 -0.1395
 1296ERGO    R118450   0.591   3.704   6.646  0.0178 -0.1621 -0.1673
 1296ERGO    R218451   0.780   3.670   6.845  0.0409 -0.0892 -0.1709
 1296ERGO    R318452   0.581   3.763   7.005 -0.0159 -0.2320 -0.1578
 1296ERGO    R418453   0.795   3.688   7.190  0.0420 -0.0769 -0.1721
 1296ERGO    R518454   0.587   3.622   7.197  0.0933 -0.2238 -0.1594
 1296ERGO    C118455   0.617   3.786   7.540 -0.0107 -0.2039 -0.1605
 1296ERGO    C218456   0.527   3.810   7.854  0.1023  0.0957 -0.2974
 1297ERGO   ROH18457  17.589  17.932   6.168 -0.0290  0.1362  0.0800
 1297ERGO    R118458  17.484  17.923   6.431  0.0814  0.1716  0.1254
 1297ERGO    R218459  17.512  17.702   6.596 -0.1191  0.0739  0.0295
 1297ERGO    R318460  17.618  17.885   6.767  0.1909 -0.1201  0.0519
 1297ERGO    R418461  17.553  17.655   6.936 -0.3432  0.0120  0.0489
 1297ERGO    R518462  17.490  17.860   6.968  0.0590  0.1530  0.0068
 1297ERGO    C118463  17.676  17.798   7.295 -0.1828 -0.2062  0.0813
 1297ERGO    C218464  17.710  17.793   7.660 -0.0906  0.3629 -0.5173
 1298ERGO   ROH18465  17.372   6.804   6.308  0.1342 -0.0798  0.0934
 1298ERGO    R118466  17.246   6.911   6.537 -0.2189 -0.2937  0.0060
 1298ERGO    R218467  17.065   6.768   6.689  0.1632 -0.7337  0.0541
 1298ERGO    R318468  17.233   6.832   6.892 -0.0477 -0.1193  0.0558
 1298ERGO    R418469  16.971   6.797   7.020  0.0103 -0.9517  0.0334
 1298ERGO    R518470  17.101   6.971   7.036 -0.5440 -0.4940  0.0018
 1298ERGO    C118471  17.074   6.875   7.404 -0.2768 -0.5019  0.0229
 1298ERGO    C218472  16.996   6.974   7.756  0.0455 -0.1291 -0.1093
 1299ERGO   ROH18473  16.505   9.365   6.225 -0.0362  0.0921 -0.0309
 1299ERGO    R118474  16.417   9.127   6.351  0.0085  0.0260 -0.1227
 1299ERGO    R218475  16.554   8.888   6.330  0.1784  0.1137 -0.0288
 1299ERGO    R318476  16.547   8.897   6.602 -0.0532  0.0884 -0.0325
 1299ERGO    R418477  16.648   8.628   6.539  0.0862  0.1230  0.0242
 1299ERGO    R518478  16.478   8.677   6.667 -0.0395  0.0590 -0.1125
 1299ERGO    C118479  16.695   8.486   6.915 -0.1849  0.1046  0.0518
 1299ERGO    C218480  16.875   8.372   7.157  0.0437  0.0173  0.0169
 1300ERGO   ROH18481  10.626  15.518   6.297  0.1888 -0.1754 -0.1037
 1300ERGO    R118482  10.682  15.363   6.527  0.0702 -0.0128  0.0382
 1300ERGO    R218483  10.629  15.452   6.783 -0.1250  0.1448 -0.0501
 1300ERGO    R318484  10.491  15.219   6.801 -0.0844  0.1255  0.0035
 1300ERGO    R418485  10.558  15.288   7.079  0.1675  0.0326 -0.0386
 1300ERGO    R518486  10.600  15.099   6.978  0.0913  0.0740 -0.1408
 1300ERGO    C118487  10.387  14.974   7.268  0.3758 -0.0508  0.0184
 1300ERGO    C218488  10.412  14.905   7.541 -0.3904 -0.0430  0.1805
 1301ERGO   ROH18489   7.548   2.153   6.157  0.0655 -0.3406  0.2122
 1301ERGO    R118490   7.450   2.205   6.417 -0.0627 -0.2835  0.1524
 1301ERGO    R218491   7.449   2.013   6.616  0.0195 -0.1815  0.2461
 1301ERGO    R318492   7.584   2.203   6.756 -0.1773 -0.0050  0.2030
 1301ERGO    R418493   7.493   2.011   6.959  0.1919 -0.1753  0.2253
 1301ERGO    R518494   7.459   2.227   6.959 -0.1168 -0.2149  0.2713
 1301ERGO    C118495   7.646   2.189   7.290  0.1075 -0.0061  0.1727
 1301ERGO    C218496   7.750   2.157   7.591 -0.0169 -0.0913  0.1047
 1302ERGO   ROH18497  13.871  17.674   6.420  0.1938 -0.0343 -0.0434
 1302ERGO    R118498  13.941  17.611   6.687  0.0837 -0.2090 -0.0531
 1302ERGO    R218499  13.864  17.768   6.902  0.4052 -0.0711 -0.0276
 1302ERGO    R318500  13.764  17.534   6.996 -0.0679  0.1098 -0.0574
 1302ERGO    R418501  13.722  17.725   7.214  0.4957  0.1209  0.0415
 1302ERGO    R518502  13.823  17.532   7.228  0.0735 -0.1156 -0.0968
 1302ERGO    C118503  13.545  17.479   7.484  0.1042  0.4022  0.0537
 1302ERGO    C218504  13.262  17.526   7.619  0.0400  0.2700  0.2810
 1303ERGO   ROH18505   1.990   4.148   6.153 -0.1334 -0.4471  0.0890
 1303ERGO    R118506   2.191   4.180   6.350 -0.1041 -0.2169  0.0251
 1303ERGO    R218507   2.173   4.366   6.553 -0.2424 -0.2202  0.0178
 1303ERGO    R318508   2.214   4.150   6.712  0.0394 -0.1681  0.0205
 1303ERGO    R418509   2.213   4.379   6.896 -0.0816 -0.1508 -0.0031
 1303ERGO    R518510   2.369   4.227   6.878  0.0518 -0.0081 -0.0646
 1303ERGO    C118511   2.275   4.183   7.245  0.2766 -0.0616 -0.0127
 1303ERGO    C218512   2.415   4.267   7.474  0.1790 -0.1599 -0.2290
 1304ERGO   ROH18513  11.709   2.248   5.831  0.0137 -0.3632  0.0292
 1304ERGO    R118514  11.807   2.376   6.063  0.1210 -0.2526 -0.0741
 1304ERGO    R218515  11.644   2.449   6.273  0.1485  0.1869 -0.1811
 1304ERGO    R318516  11.821   2.304   6.420 -0.0829  0.0861  0.0022
 1304ERGO    R418517  11.675   2.470   6.616 -0.0076  0.3148 -0.1734
 1304ERGO    R518518  11.893   2.457   6.591 -0.0200  0.0828 -0.0379
 1304ERGO    C118519  11.860   2.346   6.955 -0.3158  0.2947  0.0032
 1304ERGO    C218520  11.815   2.470   7.364 -0.0189 -0.0781  0.2560
 1305ERGO   ROH18521   1.661   2.093   6.334  0.3374  0.0490  0.0776
 1305ERGO    R118522   1.694   1.968   6.586  0.2658  0.1355  0.1302
 1305ERGO    R218523   1.899   2.033   6.759  0.1217  0.3070  0.2342
 1305ERGO    R318524   1.696   2.072   6.934 -0.0047  0.2265  0.1081
 1305ERGO    R418525   1.907   1.944   7.092 -0.0858  0.1970  0.2110
 1305ERGO    R518526   1.700   1.878   7.074 -0.0721  0.1761  0.0478
 1305ERGO    C118527   1.720   1.928   7.452 -0.3253  0.0573  0.0791
 1305ERGO    C218528   1.738   1.742   7.788  0.1343 -0.3872 -0.1003
 1306ERGO   ROH18529  10.207   9.490   6.053 -0.2234  0.0015  0.0240
 1306ERGO    R118530  10.290   9.564   6.314 -0.3424  0.1383  0.0247
 1306ERGO    R218531  10.111   9.607   6.520 -0.4171 -0.2265  0.0451
 1306ERGO    R318532  10.265   9.424   6.649 -0.0461  0.0510  0.0124
 1306ERGO    R418533  10.104   9.546   6.860 -0.2925 -0.3028  0.0344
 1306ERGO    R518534  10.321   9.528   6.857 -0.2495  0.1283  0.0289
 1306ERGO    C118535  10.244   9.338   7.179  0.1283 -0.0868 -0.0025
 1306ERGO    C218536  10.141   9.313   7.544  0.2243 -0.0286  0.0737
 1307ERGO   ROH18537   3.533   1.233   6.428 -0.2342 -0.2500 -0.0062
 1307ERGO    R118538   3.519   1.385   6.666 -0.2295 -0.1581 -0.0641
 1307ERGO    R218539   3.287   1.411   6.813 -0.2027 -0.1836 -0.0156
 1307ERGO    R318540   3.443   1.322   7.017 -0.1181 -0.0444 -0.0191
 1307ERGO    R418541   3.225   1.468   7.148 -0.0551  0.0582 -0.0273
 1307ERGO    R518542   3.439   1.501   7.177 -0.0411  0.0706 -0.1434
 1307ERGO    C118543   3.335   1.418   7.535  0.1103  0.3297 -0.0374
 1307ERGO    C218544   3.349   1.421   7.834  0.0349  0.0117 -0.2088
 1308ERGO   ROH18545   1.595  13.288   6.132 -0.0575 -0.1788 -0.0188
 1308ERGO    R118546   1.447  13.294   6.373 -0.0428  0.0439 -0.0146
 1308ERGO    R218547   1.489  13.113   6.578 -0.1872  0.0936  0.0549
 1308ERGO    R318548   1.522  13.338   6.727  0.0062  0.1265 -0.0335
 1308ERGO    R418549   1.486  13.124   6.924 -0.0801  0.2079  0.0530
 1308ERGO    R518550   1.373  13.309   6.912  0.0365  0.2845  0.0215
 1308ERGO    C118551   1.516  13.342   7.264  0.1638  0.3052 -0.0312
 1308ERGO    C218552   1.485  13.291   7.616  0.0868 -0.1589 -0.0352
 1309ERGO   ROH18553   4.321   1.961   6.290 -0.1329 -0.1217 -0.2789
 1309ERGO    R118554   4.326   1.819   6.534  0.0108 -0.0776 -0.2548
 1309ERGO    R218555   4.559   1.776   6.677  0.0655  0.1247 -0.2785
 1309ERGO    R318556   4.417   1.889   6.880  0.0062  0.0515 -0.2795
 1309ERGO    R418557   4.647   1.761   7.011  0.0682  0.1619 -0.2780
 1309ERGO    R518558   4.436   1.732   7.060  0.0812  0.0572 -0.2821
 1309ERGO    C118559   4.565   1.859   7.396  0.0140  0.1149 -0.2786
 1309ERGO    C218560   4.769   1.861   7.637 -0.0870 -0.0644 -0.4407
 1310ERGO   ROH18561   5.286   8.728   6.275  0.3473  0.0482  0.0720
 1310ERGO    R118562   5.154   8.718   6.525  0.2280  0.4168  0.0290
 1310ERGO    R218563   5.168   8.498   6.692 -0.4606  0.3526  0.0229
 1310ERGO    R318564   5.251   8.682   6.874  0.0193  0.1149  0.0614
 1310ERGO    R418565   5.117   8.477   7.033 -0.5366  0.4119  0.0159
 1310ERGO    R518566   5.075   8.690   7.036  0.0165  0.5403  0.0537
 1310ERGO    C118567   5.165   8.637   7.403 -0.1302  0.2234  0.0481
 1310ERGO    C218568   5.087   8.700   7.804  0.1726  0.1541 -0.0454
 1311ERGO   ROH18569  15.310   5.384   6.039 -0.2233  0.0036  0.0069
 1311ERGO    R118570  15.455   5.305   6.269 -0.1871  0.0140 -0.0123
 1311ERGO    R218571  15.645   5.466   6.388 -0.1929  0.0339 -0.0287
 1311ERGO    R318572  15.494   5.424   6.611 -0.1628  0.0081 -0.0132
 1311ERGO    R418573  15.715   5.595   6.701 -0.2234  0.1036 -0.0503
 1311ERGO    R518574  15.655   5.404   6.788 -0.1452  0.0934 -0.0201
 1311ERGO    C118575  15.615   5.630   7.093 -0.2128  0.1199 -0.0483
 1311ERGO    C218576  15.602   5.776   7.385  0.0537 -0.1674 -0.0529
 1312ERGO   ROH18577  14.776   7.120   6.088  0.0313  0.0278 -0.0129
 1312ERGO    R118578  14.591   7.206   6.284  0.0514 -0.0979  0.0626
 1312ERGO    R218579  14.564   7.080   6.529  0.2554 -0.1011  0.0877
 1312ERGO    R318580  14.606   7.330   6.626  0.1100 -0.0598  0.0456
 1312ERGO    R418581  14.539   7.170   6.861  0.1215 -0.0362  0.0603
 1312ERGO    R518582  14.443   7.355   6.799  0.0519 -0.0966 -0.0059
 1312ERGO    C118583  14.564   7.457   7.146 -0.0928  0.0404  0.0048
 1312ERGO    C218584  14.550   7.568   7.462 -0.1875  0.1475  0.0726
 1313ERGO   ROH18585   1.903   6.007   6.719 -0.0479  0.1623  0.0967
 1313ERGO    R118586   2.001   6.098   6.968 -0.1015  0.1661  0.1165
 1313ERGO    R218587   1.838   6.212   7.160 -0.1600  0.0748  0.1202
 1313ERGO    R318588   1.945   6.020   7.319 -0.0957  0.0949  0.1024
 1313ERGO    R418589   1.816   6.207   7.505  0.0828  0.1878  0.1397
 1313ERGO    R518590   2.023   6.138   7.512  0.0732  0.1360  0.0122
 1313ERGO    C118591   1.903   6.023   7.855  0.2845  0.2726  0.1343
 1313ERGO    C218592   2.003   6.061   8.135 -0.0697 -0.2865 -0.1831
 1314ERGO   ROH18593  10.408  11.591   6.202 -0.2969  0.0065 -0.0397
 1314ERGO    R118594  10.514  11.490   6.445 -0.1991 -0.0637 -0.1102
 1314ERGO    R218595  10.541  11.646   6.671  0.0366 -0.0865 -0.1188
 1314ERGO    R318596  10.396  11.447   6.786 -0.0068 -0.0069 -0.0358
 1314ERGO    R418597  10.395  11.664   6.984  0.1891  0.0075 -0.0522
 1314ERGO    R518598  10.455  11.457   7.018  0.1045 -0.0179 -0.0643
 1314ERGO    C118599  10.174  11.488   7.274  0.2370  0.1369  0.0645
 1314ERGO    C218600  10.155  11.386   7.582  0.0361 -0.2335 -0.1634
 1315ERGO   ROH18601  10.065   5.534   5.746 -0.0102 -0.1646 -0.1564
 1315ERGO    R118602  10.047   5.430   6.009 -0.0767 -0.0838 -0.1276
 1315ERGO    R218603  10.167   5.192   6.084 -0.1332 -0.0877 -0.0342
 1315ERGO    R318604  10.279   5.347   6.277 -0.1384 -0.0482 -0.0640
 1315ERGO    R418605  10.292   5.075   6.384  0.0373 -0.0457 -0.0884
 1315ERGO    R518606  10.205   5.249   6.482 -0.0113 -0.0985 -0.0444
 1315ERGO    C118607  10.469   5.152   6.740  0.1318  0.0158 -0.1479
 1315ERGO    C218608  10.865   5.214   6.874 -0.0666  0.0811 -0.2908
 1316ERGO   ROH18609   1.314  14.924   6.313 -0.0899 -0.0522 -0.0580
 1316ERGO    R118610   1.332  14.975   6.591  0.0351 -0.1565 -0.0455
 1316ERGO    R218611   1.112  15.045   6.745  0.1512  0.0710  0.0242
 1316ERGO    R318612   1.191  14.833   6.895 -0.0755 -0.0758 -0.0588
 1316ERGO    R418613   1.051  15.009   7.083  0.1124  0.0007  0.0095
 1316ERGO    R518614   1.252  14.929   7.106  0.0277 -0.2248 -0.0205
 1316ERGO    C118615   1.090  14.789   7.421 -0.1231 -0.1780 -0.0769
 1316ERGO    C218616   0.968  14.826   7.850  0.2525 -0.2460 -0.1878
 1317ERGO   ROH18617   6.948  10.637   6.340  0.2107 -0.0889 -0.1615
 1317ERGO    R118618   7.098  10.699   6.571  0.1130 -0.0510 -0.1082
 1317ERGO    R218619   7.001  10.861   6.773  0.0042 -0.0692 -0.1483
 1317ERGO    R318620   7.064  10.648   6.930 -0.0046 -0.0507 -0.1185
 1317ERGO    R418621   7.005  10.864   7.119 -0.0906 -0.0457 -0.1465
 1317ERGO    R518622   7.186  10.742   7.113 -0.0680 -0.0188 -0.0905
 1317ERGO    C118623   7.067  10.667   7.467 -0.1540 -0.0147 -0.1175
 1317ERGO    C218624   7.171  10.652   7.787  0.1699 -0.1163  0.1202
 1318ERGO   ROH18625  17.102   4.278   6.145 -0.1248 -0.0663 -0.0068
 1318ERGO    R118626  17.041   4.156   6.392 -0.0086 -0.1215 -0.0042
 1318ERGO    R218627  17.213   3.981   6.518  0.1595  0.0380 -0.0027
 1318ERGO    R318628  17.183   4.152   6.727  0.0016  0.0166 -0.0072
 1318ERGO    R418629  17.271   3.900   6.849  0.0559  0.0544  0.0196
 1318ERGO    R518630  17.095   4.015   6.903 -0.0127 -0.0238 -0.0487
 1318ERGO    C118631  17.277   4.013   7.238 -0.1525  0.0439  0.0284
 1318ERGO    C218632  17.418   4.010   7.563 -0.1617  0.3299  0.1096
 1319ERGO   ROH18633  13.182   0.215   5.920  0.0126 -0.2404 -0.0490
 1319ERGO    R118634  12.999   0.226   6.137  0.0041 -0.3695 -0.0490
 1319ERGO    R218635  13.049   0.105   6.380  0.2420 -0.0622  0.0600
 1319ERGO    R318636  13.001   0.354   6.477 -0.1990 -0.0508 -0.1629
 1319ERGO    R418637  12.966   0.177   6.708  0.2368  0.0894  0.0265
 1319ERGO    R518638  12.822   0.324   6.634 -0.0829 -0.2493 -0.0636
 1319ERGO    C118639  12.872   0.452   6.990 -0.1801  0.1883 -0.2023
 1319ERGO    C218640  12.964   0.407   7.341 -0.1059 -0.0067  0.2857
 1320ERGO   ROH18641  17.006  14.580   5.892  0.0910  0.1822 -0.0729
 1320ERGO    R118642  16.981  14.468   6.151  0.2595 -0.0397 -0.1500
 1320ERGO    R218643  17.198  14.371   6.293  0.4200  0.2320 -0.1991
 1320ERGO    R318644  17.107  14.541   6.484  0.1073 -0.0463 -0.0911
 1320ERGO    R418645  17.271  14.346   6.630  0.4577  0.1561 -0.2127
 1320ERGO    R518646  17.065  14.400   6.673  0.3555 -0.2424 -0.1781
 1320ERGO    C118647  17.228  14.491   7.006  0.1861 -0.1494 -0.1192
 1320ERGO    C218648  17.278  14.421   7.283  0.4400  0.4503  0.0463
 1321ERGO   ROH18649   1.207   2.484   6.499 -0.1245 -0.2293  0.1755
 1321ERGO    R118650   1.299   2.327   6.716 -0.1123 -0.2229  0.1776
 1321ERGO    R218651   1.445   2.432   6.926  0.0778 -0.2498  0.0743
 1321ERGO    R318652   1.250   2.319   7.076  0.0727 -0.0672  0.2045
 1321ERGO    R418653   1.492   2.294   7.239  0.1266 -0.2384  0.0704
 1321ERGO    R518654   1.356   2.133   7.183 -0.0292 -0.1318  0.1767
 1321ERGO    C118655   1.335   2.107   7.563  0.1503 -0.0604  0.1904
 1321ERGO    C218656   1.317   2.081   7.887 -0.0774  0.0325  0.3345
 1322ERGO   ROH18657   0.165  12.478   6.370 -0.0785  0.1017 -0.2838
 1322ERGO    R118658   0.101  12.663   6.574 -0.1055  0.0236 -0.2215
 1322ERGO    R218659  -0.038  12.591   6.802  0.0109 -0.0981 -0.1918
 1322ERGO    R318660   0.175  12.703   6.928 -0.0065 -0.0129 -0.2368
 1322ERGO    R418661  -0.031  12.683   7.135  0.0854 -0.2376 -0.1542
 1322ERGO    R518662   0.079  12.862   7.078 -0.0526 -0.1378 -0.1275
 1322ERGO    C118663   0.174  12.841   7.447  0.1125 -0.2390 -0.1745
 1322ERGO    C218664   0.075  12.787   7.706 -0.0584  0.0186  0.0159
 1323ERGO   ROH18665   8.119  10.303   6.403  0.0380 -0.0517  0.0836
 1323ERGO    R118666   8.000  10.306   6.659 -0.0105  0.1929  0.0605
 1323ERGO    R218667   8.070  10.126   6.857 -0.2681  0.1828  0.1426
 1323ERGO    R318668   8.113  10.352   7.002 -0.0207  0.1885  0.0651
 1323ERGO    R418669   8.105  10.136   7.201 -0.1476  0.2475  0.1293
 1323ERGO    R518670   7.986  10.319   7.203  0.0125  0.3561  0.1168
 1323ERGO    C118671   8.166  10.355   7.537  0.1548  0.2905  0.0488
 1323ERGO    C218672   8.207  10.263   7.885 -0.2424 -0.1138 -0.1255
 1324ERGO   ROH18673   1.612  13.773   6.013 -0.0697 -0.1907 -0.1533
 1324ERGO    R118674   1.472  13.881   6.234  0.1512  0.0877 -0.1455
 1324ERGO    R218675   1.330  13.724   6.412 -0.2784  0.3726 -0.2277
 1324ERGO    R318676   1.485  13.849   6.596  0.0056 -0.0682 -0.1521
 1324ERGO    R418677   1.280  13.711   6.753 -0.3077  0.2802 -0.2345
 1324ERGO    R518678   1.331  13.922   6.764  0.1584  0.1754 -0.1109
 1324ERGO    C118679   1.398  13.820   7.126 -0.0580 -0.1876 -0.1673
 1324ERGO    C218680   1.342  13.757   7.494  0.1393 -0.1097 -0.1707
 1325ERGO   ROH18681   7.071  13.235   6.575  0.0605  0.3015 -0.1262
 1325ERGO    R118682   7.181  13.179   6.830 -0.0799  0.0959 -0.1078
 1325ERGO    R218683   7.215  13.374   7.023  0.2035  0.0278 -0.0849
 1325ERGO    R318684   7.071  13.202   7.176 -0.1156  0.2481 -0.1281
 1325ERGO    R418685   7.199  13.383   7.368  0.3563 -0.1211 -0.0728
 1325ERGO    R518686   7.208  13.165   7.369 -0.1125 -0.1528 -0.1977
 1325ERGO    C118687   7.054  13.226   7.713  0.1456 -0.0010 -0.1064
 1325ERGO    C218688   7.150  13.161   8.029 -0.1752  0.1374  0.1645
 1326ERGO   ROH18689  16.724  11.951   5.984  0.0803 -0.1905 -0.0567
 1326ERGO    R118690  16.744  11.782   6.210  0.0761 -0.1590 -0.0327
 1326ERGO    R218691  16.929  11.823   6.411 -0.0346 -0.0377  0.0449
 1326ERGO    R318692  16.708  11.816   6.570 -0.1014 -0.1456 -0.0504
 1326ERGO    R418693  16.921  11.695   6.732 -0.0747  0.0769  0.0900
 1326ERGO    R518694  16.726  11.608   6.687  0.0091 -0.0904  0.0350
 1326ERGO    C118695  16.710  11.614   7.068 -0.1607  0.0422  0.0268
 1326ERGO    C218696  16.688  11.448   7.292 -0.2189 -0.1506 -0.0670
 1327ERGO   ROH18697   8.163  13.287   6.614 -0.1697  0.0302  0.1896
 1327ERGO    R118698   8.087  13.161   6.856 -0.1190 -0.0685  0.1535
 1327ERGO    R218699   8.269  13.033   7.021 -0.0675 -0.0314  0.1210
 1327ERGO    R318700   8.163  13.198   7.210 -0.1450 -0.1307  0.1666
 1327ERGO    R418701   8.349  13.026   7.357  0.0869  0.0404  0.0870
 1327ERGO    R518702   8.139  13.059   7.403  0.0703 -0.1595  0.1778
 1327ERGO    C118703   8.298  13.176   7.730  0.1040 -0.0112  0.1102
 1327ERGO    C218704   8.313  13.197   8.113  0.1668  0.0206  0.3116
 1328ERGO   ROH18705  10.368   8.704   6.072 -0.0325 -0.1659 -0.0634
 1328ERGO    R118706  10.470   8.589   6.309 -0.1130 -0.1254 -0.0077
 1328ERGO    R218707  10.465   8.720   6.553 -0.0316 -0.0075 -0.0634
 1328ERGO    R318708  10.338   8.494   6.635 -0.1858  0.1126  0.0327
 1328ERGO    R418709  10.533   8.552   6.847  0.0956 -0.1302 -0.1622
 1328ERGO    R518710  10.511   8.364   6.739 -0.2171 -0.0888 -0.1688
 1328ERGO    C118711  10.454   8.242   7.095  0.0248 -0.0889 -0.1296
 1328ERGO    C218712  10.504   8.192   7.347 -0.1732 -0.1877 -0.1164
 1329ERGO   ROH18713  10.085  11.254   6.335 -0.1440 -0.0372  0.0613
 1329ERGO    R118714  10.044  11.470   6.513 -0.2098  0.0058 -0.0047
 1329ERGO    R218715   9.803  11.513   6.641 -0.1664 -0.1440  0.1330
 1329ERGO    R318716   9.958  11.509   6.865 -0.0149  0.0811  0.0357
 1329ERGO    R418717   9.689  11.574   6.962 -0.0011 -0.0741  0.1800
 1329ERGO    R518718   9.871  11.687   7.000 -0.0587  0.0826  0.0052
 1329ERGO    C118719   9.767  11.605   7.358  0.2373  0.1780  0.1160
 1329ERGO    C218720   9.611  11.665   7.545  0.0776  0.0122 -0.1498
 1330ERGO   ROH18721   8.412   1.517   5.754 -0.1944  0.0312  0.0032
 1330ERGO    R118722   8.214   1.476   5.952 -0.1887 -0.3731 -0.0667
 1330ERGO    R218723   8.184   1.235   6.085  0.4072 -0.3787  0.0859
 1330ERGO    R318724   8.208   1.392   6.306 -0.1236 -0.1436 -0.0100
 1330ERGO    R418725   8.132   1.129   6.410  0.3325 -0.2283  0.1237
 1330ERGO    R518726   8.032   1.318   6.451 -0.1075 -0.3963 -0.1164
 1330ERGO    C118727   8.123   1.214   6.806 -0.2093  0.0800  0.0558
 1330ERGO    C218728   8.082   1.224   7.218 -0.2306  0.1384  0.0333
 1331ERGO   ROH18729  15.214   9.503   6.052 -0.0405  0.2585 -0.0609
 1331ERGO    R118730  15.273   9.630   6.298 -0.1239  0.3018 -0.0619
 1331ERGO    R218731  15.077   9.727   6.466 -0.2023  0.0140  0.0244
 1331ERGO    R318732  15.202   9.570   6.650  0.0759  0.1471 -0.0464
 1331ERGO    R418733  15.053   9.768   6.808 -0.2590 -0.1730  0.0430
 1331ERGO    R518734  15.266   9.723   6.823 -0.1778  0.1856  0.0143
 1331ERGO    C118735  15.156   9.644   7.180 -0.0307 -0.1570 -0.0125
 1331ERGO    C218736  14.963   9.726   7.495  0.1416 -0.2554  0.1201
 1332ERGO   ROH18737   6.578   8.188   6.312  0.2217 -0.1048 -0.0479
 1332ERGO    R118738   6.683   8.235   6.571  0.1180  0.2556 -0.0642
 1332ERGO    R218739   6.572   8.416   6.747 -0.2828  0.1188 -0.1586
 1332ERGO    R318740   6.567   8.202   6.914  0.1674  0.1798 -0.0563
 1332ERGO    R418741   6.505   8.432   7.085 -0.2852  0.1318 -0.1604
 1332ERGO    R518742   6.662   8.284   7.118  0.0201  0.4643 -0.1025
 1332ERGO    C118743   6.461   8.240   7.440  0.1362  0.1968 -0.0654
 1332ERGO    C218744   6.477   8.206   7.742  0.0659 -0.1291  0.0164
 1333ERGO   ROH18745  11.559  13.755   6.135  0.2450 -0.0657 -0.1422
 1333ERGO    R118746  11.464  13.726   6.400  0.2236 -0.0380 -0.1475
 1333ERGO    R218747  11.598  13.577   6.591  0.2826  0.1008 -0.0832
 1333ERGO    R318748  11.583  13.808   6.734  0.1266  0.1369 -0.1541
 1333ERGO    R418749  11.593  13.596   6.936  0.2530  0.2017 -0.0881
 1333ERGO    R518750  11.443  13.753   6.920  0.1504  0.1024 -0.1446
 1333ERGO    C118751  11.576  13.823   7.271  0.0892  0.2944 -0.1577
 1333ERGO    C218752  11.539  13.807   7.690  0.1189  0.0266 -0.1319
 1334ERGO   ROH18753   8.964   3.688   6.038  0.1473  0.1103 -0.0615
 1334ERGO    R118754   8.915   3.631   6.310  0.0230 -0.0144 -0.1067
 1334ERGO    R218755   9.042   3.427   6.446  0.0312 -0.0270 -0.1136
 1334ERGO    R318756   9.108   3.626   6.618 -0.1325 -0.0612 -0.0122
 1334ERGO    R418757   9.171   3.378   6.763  0.1410 -0.0662 -0.1652
 1334ERGO    R518758   9.045   3.542   6.833 -0.0021 -0.2373 -0.0489
 1334ERGO    C118759   9.308   3.537   7.110  0.0513 -0.1211 -0.1000
 1334ERGO    C218760   9.378   3.403   7.473  0.2540 -0.1438  0.0862
 1335ERGO   ROH18761   9.205   4.664   5.785  0.0684 -0.1388 -0.0520
 1335ERGO    R118762   9.151   4.701   6.060  0.0131 -0.0323 -0.0762
 1335ERGO    R218763   9.212   4.512   6.251 -0.1471 -0.0179 -0.0041
 1335ERGO    R318764   9.344   4.719   6.368 -0.0605 -0.0594 -0.0293
 1335ERGO    R418765   9.234   4.564   6.592 -0.2169  0.0800 -0.0149
 1335ERGO    R518766   9.207   4.778   6.555 -0.0794  0.0822 -0.0895
 1335ERGO    C118767   9.370   4.789   6.900 -0.1761  0.0982 -0.0448
 1335ERGO    C218768   9.236   4.770   7.210  0.0637  0.1371 -0.1187
 1336ERGO   ROH18769   2.456   5.247   6.399 -0.0837 -0.0746  0.0366
 1336ERGO    R118770   2.475   5.159   6.668 -0.2342 -0.0019  0.0728
 1336ERGO    R218771   2.663   5.258   6.844  0.0044 -0.3135  0.0065
 1336ERGO    R318772   2.445   5.309   6.998  0.1182  0.2120  0.0116
 1336ERGO    R418773   2.663   5.264   7.189  0.0188 -0.3361  0.0065
 1336ERGO    R518774   2.470   5.162   7.186 -0.2389  0.1317  0.0012
 1336ERGO    C118775   2.459   5.315   7.535  0.1340  0.1441  0.0112
 1336ERGO    C218776   2.486   5.339   7.813  0.1549 -0.0031 -0.1899
 1337ERGO   ROH18777   3.113   6.887   6.262  0.4517  0.1779 -0.0699
 1337ERGO    R118778   3.196   7.011   6.502  0.2698  0.1398  0.0133
 1337ERGO    R218779   3.060   6.979   6.741  0.1563  0.0069 -0.0697
 1337ERGO    R318780   3.304   6.903   6.832  0.1418  0.0857  0.0383
 1337ERGO    R418781   3.156   6.983   7.073 -0.0134 -0.0260 -0.0184
 1337ERGO    R518782   3.352   7.056   7.010 -0.0098  0.0671  0.0970
 1337ERGO    C118783   3.442   6.914   7.352 -0.1257  0.0288  0.1128
 1337ERGO    C218784   3.588   6.884   7.645  0.1496  0.0597 -0.0372
 1338ERGO   ROH18785   4.453  16.373   6.632  0.2708 -0.0747  0.0586
 1338ERGO    R118786   4.409  16.436   6.904  0.1941 -0.0599  0.0423
 1338ERGO    R218787   4.264  16.272   7.073  0.1657 -0.0591  0.0132
 1338ERGO    R318788   4.488  16.286   7.226  0.1223 -0.0291  0.0758
 1338ERGO    R418789   4.293  16.143   7.392 -0.0233  0.2449  0.1584
 1338ERGO    R518790   4.406  16.321   7.448  0.0590  0.2443  0.0163
 1338ERGO    C118791   4.521  16.081   7.722 -0.1741  0.4501  0.3017
 1338ERGO    C218792   4.516  15.834   7.900 -0.2089  0.3708 -0.2977
 1339ERGO   ROH18793  13.945   8.543   5.725 -0.0655  0.0570 -0.0600
 1339ERGO    R118794  14.039   8.763   5.876  0.0736 -0.0314 -0.0166
 1339ERGO    R218795  13.870   8.959   5.974  0.2049  0.0877 -0.0356
 1339ERGO    R318796  13.988   8.896   6.211  0.1043 -0.0245 -0.0134
 1339ERGO    R418797  13.807   9.118   6.275  0.1359  0.0076 -0.0065
 1339ERGO    R518798  14.020   9.107   6.319  0.1216 -0.0646  0.0672
 1339ERGO    C118799  13.880   9.151   6.672  0.0014 -0.1444  0.0314
 1339ERGO    C218800  13.869   9.099   7.078 -0.0094  0.0516  0.1501
 1340ERGO   ROH18801  10.256  17.288   6.277 -0.0080  0.0128  0.1399
 1340ERGO    R118802  10.355  17.499   6.438  0.3551 -0.0395 -0.0048
 1340ERGO    R218803  10.243  17.565   6.682  0.2563  0.5147 -0.1887
 1340ERGO    R318804  10.498  17.533   6.771  0.1046 -0.0236  0.1053
 1340ERGO    R418805  10.341  17.581   7.013 -0.0609  0.5917 -0.0952
 1340ERGO    R518806  10.519  17.690   6.951  0.2859  0.1110 -0.0240
 1340ERGO    C118807  10.637  17.561   7.289 -0.3882  0.1311  0.2353
 1340ERGO    C218808  10.818  17.544   7.604  0.1109  0.3223  0.0800
 1341ERGO   ROH18809  16.145   7.141   6.385  0.1546 -0.0645  0.1795
 1341ERGO    R118810  16.024   7.190   6.636  0.1772  0.1048  0.1577
 1341ERGO    R218811  16.035   7.008   6.844 -0.0736  0.1084  0.1702
 1341ERGO    R318812  16.135   7.221   6.982  0.1652 -0.0002  0.1729
 1341ERGO    R418813  16.020   7.045   7.187 -0.0546  0.1239  0.1704
 1341ERGO    R518814  15.976   7.257   7.157  0.1891  0.1824  0.1640
 1341ERGO    C118815  16.104   7.267   7.517  0.1808  0.0309  0.1730
 1341ERGO    C218816  16.055   7.161   7.884 -0.1633 -0.0044  0.2448
 1342ERGO   ROH18817   0.673  13.763   6.115  0.0723 -0.0401 -0.0785
 1342ERGO    R118818   0.813  13.777   6.361  0.0389 -0.1149 -0.0543
 1342ERGO    R218819   0.847  14.013   6.500  0.2162 -0.1150 -0.0913
 1342ERGO    R318820   0.737  13.871   6.704  0.0537  0.0156 -0.0868
 1342ERGO    R418821   0.881  14.090   6.835  0.2531 -0.1081 -0.0971
 1342ERGO    R518822   0.902  13.877   6.876  0.0407 -0.1254 -0.0693
 1342ERGO    C118823   0.798  14.001   7.222  0.1220  0.0185 -0.0964
 1342ERGO    C218824   0.858  13.934   7.594 -0.1209  0.3320 -0.0534
 1343ERGO   ROH18825   1.806   8.101   6.151  0.0630  0.1987  0.0157
 1343ERGO    R118826   1.734   8.025   6.414  0.0719  0.3911  0.0746
 1343ERGO    R218827   1.785   7.772   6.516 -0.5137  0.2442  0.0275
 1343ERGO    R318828   1.908   7.912   6.713  0.0295 -0.0725 -0.0663
 1343ERGO    R418829   1.811   7.669   6.844 -0.4343  0.1214 -0.0164
 1343ERGO    R518830   1.773   7.874   6.907  0.1178  0.2202  0.0629
 1343ERGO    C118831   1.942   7.739   7.221  0.1219 -0.2475 -0.1299
 1343ERGO    C218832   1.866   7.666   7.482  0.0622 -0.0867  0.4116
 1344ERGO   ROH18833  14.124   3.860   6.196 -0.1572  0.1486 -0.0327
 1344ERGO    R118834  14.051   3.880   6.469 -0.2270  0.0877 -0.0465
 1344ERGO    R218835  13.849   3.728   6.580 -0.1465 -0.0576 -0.0936
 1344ERGO    R318836  14.043   3.657   6.757 -0.1324  0.0694 -0.0580
 1344ERGO    R418837  13.801   3.685   6.920 -0.1420  0.0696 -0.0765
 1344ERGO    R518838  13.993   3.783   6.954 -0.1714  0.1364 -0.1115
 1344ERGO    C118839  13.956   3.594   7.284 -0.1261  0.2630 -0.0332
 1344ERGO    C218840  13.845   3.472   7.499  0.2915 -0.2060 -0.2404
 1345ERGO   ROH18841   9.685   4.371   5.881  0.1646 -0.0826  0.0332
 1345ERGO    R118842   9.618   4.334   6.154  0.0637 -0.0705  0.0113
 1345ERGO    R218843   9.808   4.277   6.347 -0.0233 -0.1971  0.0640
 1345ERGO    R318844   9.701   4.495   6.470  0.0644 -0.1463  0.0496
 1345ERGO    R418845   9.831   4.344   6.685 -0.1782 -0.2950  0.0941
 1345ERGO    R518846   9.624   4.412   6.681 -0.1256 -0.1394 -0.0165
 1345ERGO    C118847   9.744   4.587   6.998 -0.1860 -0.3045  0.0981
 1345ERGO    C218848   9.752   4.753   7.269 -0.0044  0.1044 -0.2571
 1346ERGO   ROH18849  17.056  12.746   5.961 -0.1230  0.1566 -0.0086
 1346ERGO    R118850  17.293  12.763   6.114 -0.1301  0.0162  0.0174
 1346ERGO    R218851  17.369  12.994   6.247 -0.0165 -0.0357  0.0365
 1346ERGO    R318852  17.379  12.828   6.462 -0.1277 -0.0509  0.0303
 1346ERGO    R418853  17.524  13.067   6.547 -0.0508 -0.1078  0.0729
 1346ERGO    R518854  17.597  12.862   6.554 -0.1316 -0.1387  0.0781
 1346ERGO    C118855  17.624  12.954   6.923 -0.1753 -0.1641  0.0882
 1346ERGO    C218856  17.576  13.013   7.295 -0.2410  0.1612 -0.0917
 1347ERGO   ROH18857   4.442  11.609   6.416  0.1806  0.0134  0.0175
 1347ERGO    R118858   4.385  11.476   6.659  0.2146 -0.1449 -0.0581
 1347ERGO    R218859   4.583  11.388   6.831  0.2401  0.0139  0.0081
 1347ERGO    R318860   4.445  11.535   7.013 -0.0185 -0.2036 -0.0094
 1347ERGO    R418861   4.522  11.291   7.157  0.2667 -0.1121 -0.0254
 1347ERGO    R518862   4.321  11.373   7.138  0.1639 -0.3867 -0.0717
 1347ERGO    C118863   4.357  11.372   7.518  0.0393 -0.3893 -0.0613
 1347ERGO    C218864   4.558  11.390   7.779 -0.0714 -0.0078 -0.2117
 1348ERGO   ROH18865   0.304  14.075   6.224 -0.0553 -0.0333 -0.0562
 1348ERGO    R118866   0.391  14.031   6.490  0.0552 -0.0127 -0.0878
 1348ERGO    R218867   0.472  14.237   6.656 -0.0093  0.0193 -0.0888
 1348ERGO    R318868   0.285  14.132   6.823  0.1005 -0.1090 -0.0453
 1348ERGO    R418869   0.499  14.225   7.000  0.1001 -0.0331 -0.0991
 1348ERGO    R518870   0.412  14.025   6.995  0.2056 -0.0732 -0.1053
 1348ERGO    C118871   0.339  14.119   7.357  0.2669 -0.1840 -0.0642
 1348ERGO    C218872   0.301  14.194   7.709  0.1378  0.2303 -0.1266
 1349W        W18873   3.780  12.103   4.870 -0.2131 -0.3220  0.0505
 1350W        W18874  13.967   3.187  11.646 -0.1183 -0.4871 -0.1406
 1351W        W18875  13.535   8.092  14.875 -0.1372  0.1029 -0.0030
 1352W        W18876  16.140   2.867   1.495 -0.1631 -0.1360  0.1074
 1353W        W18877   0.452  12.579   5.052  0.3240  0.0985 -0.0964
 1354W        W18878  16.452   6.025  11.856 -0.0390 -0.0845 -0.0050
 1355W        W18879  14.590  17.023   2.542  0.0052  0.0593 -0.1329
 1356W        W18880  10.374   9.314  15.411  0.2407 -0.2448 -0.1589
 1357W        W18881   0.014  13.917  11.084 -0.0830  0.0906  0.1309
 1358W        W18882   5.696  11.275   1.122  0.0561  0.3233 -0.0362
 1359W        W18883  13.900  17.075   5.618  0.1889 -0.0370  0.1334
 1360W        W18884   0.424   8.442  15.889 -0.0017 -0.0727 -0.1786
 1361W        W18885   2.659  16.903  16.177 -0.1490  0.0231 -0.1167
 1362W        W18886  15.914  17.912   0.274 -0.1770  0.0883  0.2738
 1363W        W18887  12.863  15.214   0.075  0.2911  0.0593 -0.0189
 1364W        W18888   2.350  17.527  15.463 -0.0916  0.0791 -0.0500
 1365W        W18889   0.785  11.510  10.326 -0.2538 -0.2129 -0.0601
 1366W        W18890   3.044   5.977   4.614  0.3911 -0.2119 -0.0048
 1367W        W18891   3.092  14.243  15.830 -0.2371 -0.2699 -0.1745
 1368W        W18892  16.654  16.880  13.925 -0.1133 -0.3470 -0.0043
 1369W        W18893   5.678  11.583  11.572 -0.2520  0.0698  0.1173
 1370W        W18894  17.231   3.675  12.903 -0.0987 -0.1257 -0.0964
 1371W        W18895   2.121  16.376   3.525  0.1078  0.2366  0.1680
 1372W        W18896  11.898   0.694  14.041 -0.0778 -0.0060  0.2738
 1373W        W18897   9.491  12.339  14.342  0.1778  0.1241  0.1757
 1374W        W18898  12.798  14.352   4.292  0.1185  0.1506 -0.2101
 1375W        W18899  15.480  10.186  12.534  0.1504 -0.1016 -0.0379
 1376W        W18900  16.978  12.475  15.799  0.0772  0.3735 -0.0054
 1377W        W18901  12.775  10.301  12.553  0.0180 -0.0698  0.0873
 1378W        W18902  16.229  13.312  11.448 -0.0135  0.1425 -0.1124
 1379W        W18903   6.472   1.278  11.870  0.0181  0.2301 -0.1000
 1380W        W18904  16.115  11.289   1.136 -0.1763  0.0201  0.2381
 1381W        W18905   3.219  16.062  14.381  0.1556  0.1550 -0.2420
 1382W        W18906   2.131  11.432  14.844 -0.0147  0.2270  0.3189
 1383W        W18907   5.485  13.951   5.202 -0.0307 -0.2423 -0.0076
 1384W        W18908   9.957   6.480   3.980  0.0887 -0.0704  0.0951
 1385W        W18909  11.427   6.877  11.787 -0.1675  0.0518 -0.0147
 1386W        W18910  17.337  15.761  12.627 -0.1732 -0.2361  0.0784
 1387W        W18911   1.215   2.193  12.632 -0.0623 -0.2095 -0.1494
 1388W        W18912  13.321   4.726   2.375 -0.2424  0.0389  0.2739
 1389W        W18913  13.127  11.122   0.777  0.0202  0.0579  0.0836
 1390W        W18914  11.488   2.065   2.473  0.2865 -0.0048 -0.0402
 1391W        W18915   5.279   3.143   2.894 -0.1360  0.2983 -0.1234
 1392W        W18916   3.880   2.035  13.814 -0.0520 -0.0718 -0.1163
 1393W        W18917   3.055  15.050   0.836  0.1472  0.2521  0.0897
 1394W        W18918   3.022   9.070   0.045 -0.3173 -0.0321  0.1415
 1395W        W18919   1.521   8.362  12.336 -0.2935 -0.0415  0.0881
 1396W        W18920   3.585  15.368   4.105  0.3098  0.0137 -0.0452
 1397W        W18921   1.029  11.089  10.461  0.2121 -0.1445 -0.0045
 1398W        W18922   7.719  15.990   2.816 -0.2579  0.0160 -0.1632
 1399W        W18923  11.732   1.078  15.238  0.2454 -0.2518 -0.0482
 1400W        W18924  15.870   7.270  13.977  0.1343  0.0337  0.1286
 1401W        W18925   7.662   3.911  11.801 -0.0787  0.1033  0.0102
 1402W        W18926   8.455   0.284  14.245 -0.0625 -0.2699  0.1068
 1403W        W18927   5.459   1.165   1.146 -0.2661 -0.1182 -0.1428
 1404W        W18928   2.766  11.268   4.460 -0.0258 -0.1038 -0.2886
 1405W        W18929   7.209  17.159  14.565 -0.0791  0.2728 -0.3119
 1406W        W18930  13.675  11.577  15.096 -0.1696  0.0121 -0.1038
 1407W        W18931  14.614   2.347   1.874  0.0038 -0.2471  0.0437
 1408W        W18932  16.767   4.019  13.202 -0.2626 -0.0653  0.0847
 1409W        W18933   1.735   4.774  11.352 -0.2897 -0.1224 -0.2673
 1410W        W18934   2.891   1.018   2.080 -0.0343  0.1494  0.0417
 1411W        W18935   8.060   8.611  12.087 -0.0721 -0.3280 -0.0185
 1412W        W18936   6.547  17.169   2.974  0.0651 -0.0476  0.0465
 1413W        W18937  17.706  15.654  15.767  0.1314  0.0174  0.1607
 1414W        W18938   5.965  16.828   4.936  0.2064  0.0584 -0.3126
 1415W        W18939  14.327   0.289   4.275 -0.0202  0.1067  0.0218
 1416W        W18940   6.653  12.539  13.536  0.0243  0.0657  0.1397
 1417W        W18941  14.792  11.494   1.617 -0.2859 -0.1724 -0.0243
 1418W        W18942   8.276   9.886   4.998 -0.0478 -0.1384  0.2562
 1419W        W18943   3.622   7.445  13.539 -0.0909  0.1253  0.1051
 1420W        W18944  15.733  11.496   4.578 -0.0330 -0.0482  0.0272
 1421W        W18945  11.824  16.050   1.664 -0.0519 -0.0321 -0.0171
 1422W        W18946   5.171   4.704  12.191 -0.2086  0.3952 -0.1346
 1423W        W18947   5.244  17.625  13.879  0.0964 -0.1313 -0.0226
 1424W        W18948  11.291  10.054   0.549  0.0440  0.1199  0.0299
 1425W        W18949   0.568   2.989  14.837 -0.0764 -0.0538  0.0501
 1426W        W18950   9.399  10.054  13.568 -0.0436  0.2710  0.0244
 1427W        W18951  11.063  15.346  13.160 -0.2870 -0.1172  0.0023
 1428W        W18952   2.888  11.470  15.808  0.1580  0.0240  0.0175
 1429W        W18953   2.559   6.978   0.793 -0.0168  0.0842  0.0039
 1430W        W18954  15.800  15.734   2.787 -0.0506  0.0372  0.0058
 1431W        W18955   8.995   0.332   2.614  0.0950  0.0084 -0.1634
 1432W        W18956   5.523  12.339  14.955  0.0267  0.1069 -0.2668
 1433W        W18957   8.102  15.692  14.802  0.2480  0.0011  0.0008
 1434W        W18958   7.094   4.250  14.295  0.3134  0.2517 -0.0551
 1435W        W18959   2.566  12.416   0.475  0.0897 -0.1688 -0.2199
 1436W        W18960   8.572   7.952   3.493  0.1527  0.1137  0.0908
 1437W        W18961   8.139  14.375   5.468  0.0375  0.2621 -0.1067
 1438W        W18962  10.421  11.098   3.412  0.1499 -0.0734  0.0656
 1439W        W18963   2.051   1.438  12.203  0.1578  0.1587 -0.2869
 1440W        W18964   3.195   9.364   0.883  0.4875 -0.0182 -0.4068
 1441W        W18965   8.454   9.150  13.301  0.1761  0.0110  0.0531
 1442W        W18966  10.185  16.147   1.897 -0.2253 -0.2574  0.1261
 1443W        W18967   4.123  15.541   2.553  0.0623  0.0568  0.2359
 1444W        W18968   8.080  17.761   1.773 -0.0512  0.1663 -0.1175
 1445W        W18969   6.985   4.201  12.247 -0.1181  0.0509  0.4504
 1446W        W18970  14.287   7.323   3.092 -0.1678 -0.1977 -0.2614
 1447W        W18971   1.741  12.630  12.852  0.0527 -0.0322 -0.0482
 1448W        W18972  10.396   4.774   3.227  0.0660 -0.1890  0.0891
 1449W        W18973   5.637  12.376  12.516  0.0724  0.3089 -0.0433
 1450W        W18974  16.894  15.133  11.549  0.1762  0.1086 -0.1136
 1451W        W18975  17.920   0.977   3.031 -0.1433  0.1664 -0.1772
 1452W        W18976   2.565   0.477   1.155  0.1584 -0.0466 -0.1026
 1453W        W18977   9.209   2.101   0.511 -0.1729 -0.0539  0.3034
 1454W        W18978  17.539  11.547   2.077 -0.1202 -0.0844  0.2413
 1455W        W18979   1.948   0.479  13.126 -0.0760  0.1020 -0.0561
 1456W        W18980  16.289   9.617   1.225  0.1309  0.0020 -0.3681
 1457W        W18981  17.793   8.453  12.785  0.0784 -0.1455  0.1234
 1458W        W18982   5.737   8.518  14.193 -0.2710 -0.0188 -0.0183
 1459W        W18983  12.438  10.776   1.366 -0.0748 -0.1643 -0.0632
 1460W        W18984  16.744  14.912   4.646  0.4376  0.1665 -0.1272
 1461W        W18985  12.548   1.223   2.853  0.0096 -0.1323 -0.0616
 1462W        W18986   6.019  12.811   2.227  0.1028 -0.3312  0.3263
 1463W        W18987  14.871  16.939  16.094  0.0231  0.0691  0.3930
 1464W        W18988  16.439   5.409   5.523 -0.2331  0.1024  0.1838
 1465W        W18989   0.605  15.290  13.048 -0.1240  0.1983 -0.0529
 1466W        W18990   0.821   1.751  15.553 -0.0394 -0.1739  0.1070
 1467W        W18991   2.377  11.731   4.390 -0.0301  0.0579 -0.3302
 1468W        W18992  17.111  10.776   4.626  0.3453 -0.0095  0.0032
 1469W        W18993   5.322   0.822   2.907 -0.1119  0.1040 -0.2202
 1470W        W18994   6.426   7.955   4.169  0.0766 -0.0640 -0.0433
 1471W        W18995   9.148  11.445  15.389 -0.0365 -0.1078  0.0474
 1472W        W18996  12.993  12.422   3.063 -0.0411  0.0903 -0.1537
 1473W        W18997   0.744   7.550   2.109 -0.0037 -0.2701  0.0999
 1474W        W18998   5.668   3.412  12.153  0.0985 -0.2629 -0.0591
 1475W        W18999  15.917   4.759  14.654 -0.3158  0.0449  0.1269
 1476W        W19000  17.184   4.063  16.237 -0.0678  0.1115  0.0004
 1477W        W19001   6.071  10.539  12.823 -0.3371 -0.2955  0.2011
 1478W        W19002   4.875   9.360  11.300  0.0166 -0.2518  0.0776
 1479W        W19003   5.070  11.766   4.381 -0.2652  0.1430  0.1685
 1480W        W19004   3.311  14.590  15.371 -0.0037  0.0427 -0.4795
 1481W        W19005   9.784  12.743   1.021  0.1126 -0.0687 -0.1984
 1482W        W19006   1.985   4.307   4.688  0.1174  0.1799 -0.0758
 1483W        W19007  16.292   6.823   1.066  0.1177 -0.4033  0.2439
 1484W        W19008  15.807   1.627  14.303  0.0261 -0.0180 -0.2657
 1485W        W19009  13.422   4.577   3.833  0.0973 -0.2155  0.0959
 1486W        W19010   6.639  10.401   1.284 -0.0162  0.1568 -0.3435
 1487W        W19011  16.590   5.491  11.500  0.2536  0.0853  0.1625
 1488W        W19012   4.728   4.136   2.915 -0.1544  0.2325  0.1356
 1489W        W19013  13.764   1.070   4.461  0.1491  0.2492  0.1855
 1490W        W19014  11.426   1.587   0.236 -0.3796  0.2369  0.3406
 1491W        W19015   9.625  14.274  15.972 -0.4260  0.0919 -0.0000
 1492W        W19016   2.168  16.618  15.449  0.2351 -0.0668  0.0840
 1493W        W19017  15.886  15.645  14.455 -0.4441  0.0179 -0.2229
 1494W        W19018   1.929   8.840  15.125  0.3112 -0.0012 -0.1471
 1495W        W19019  17.003   1.644   5.582  0.0575  0.2592 -0.1153
 1496W        W19020  11.647   6.431   3.997 -0.0125  0.3377  0.3941
 1497W        W19021  17.268   4.219   3.997  0.1593  0.1273 -0.0551
 1498W        W19022   8.589   7.660  12.396 -0.2281 -0.2236 -0.2046
 1499W        W19023   7.461   8.934   3.677 -0.1818 -0.0670  0.1006
 1500W        W19024  14.633   0.068   3.858  0.0762 -0.0151  0.1042
 1501W        W19025   4.196   9.874   3.331  0.0792  0.2833 -0.0785
 1502W        W19026  14.686  14.272   3.244 -0.1225 -0.2762 -0.0403
 1503W        W19027  11.606   2.759   2.858 -0.0109  0.0061  0.1807
 1504W        W19028   3.540  11.642  14.540 -0.2899 -0.1932 -0.0891
 1505W        W19029  16.519  12.035  15.134 -0.2515  0.0356  0.0455
 1506W        W19030  17.469   3.041   4.872  0.1065  0.2494 -0.1128
 1507W        W19031   9.179  12.504  12.848  0.0224 -0.0127 -0.1258
 1508W        W19032   9.388   0.285  11.302 -0.0248 -0.1259 -0.1153
 1509W        W19033   6.337   4.024  12.732  0.4670  0.1890 -0.1816
 1510W        W19034   1.367   2.290  11.632  0.0211  0.0827 -0.0325
 1511W        W19035   8.709   0.053  13.200  0.1175 -0.2260  0.0221
 1512W        W19036   6.988   5.452  13.284 -0.0902 -0.1088 -0.0224
 1513W        W19037   8.560   7.279  15.917  0.1505  0.1304  0.2098
 1514W        W19038   6.781  13.479   4.449  0.0508 -0.0430  0.0059
 1515W        W19039  17.371   6.198   4.328 -0.3497  0.0962  0.1100
 1516W        W19040  16.832  17.256   4.685  0.4112 -0.0417 -0.0684
 1517W        W19041   5.443   9.290  11.265 -0.0521 -0.1980 -0.0701
 1518W        W19042  14.715   1.443  13.663 -0.1338 -0.0676 -0.0670
 1519W        W19043   6.854  14.403   0.997 -0.0677  0.1118  0.2441
 1520W        W19044   1.117   5.541  15.645 -0.2595 -0.0011  0.0030
 1521W        W19045  10.685   2.945  14.231  0.0480 -0.1200  0.2531
 1522W        W19046   5.586   2.845  12.127  0.3470  0.2569 -0.0317
 1523W        W19047  13.922   9.119  13.397  0.2680  0.1986 -0.0559
 1524W        W19048   0.772   0.666  13.778  0.1498  0.1455  0.0936
 1525W        W19049   9.803   4.302  11.671 -0.0587 -0.0539 -0.1031
 1526W        W19050  11.261  14.656   0.366  0.1815  0.0542 -0.3268
 1527W        W19051   1.515  12.944   0.725 -0.1980  0.3757  0.1410
 1528W        W19052  16.632   5.423   4.357 -0.2268  0.3196 -0.1752
 1529W        W19053   2.306  15.125  12.761 -0.0715 -0.1783  0.2648
 1530W        W19054  10.007   3.382   0.712 -0.1872  0.1703  0.2819
 1531W        W19055   7.797  17.710   0.976 -0.1756  0.4092 -0.1736
 1532W        W19056  10.349  14.927   1.926 -0.1300  0.0748  0.0963
 1533W        W19057  17.710  15.401   1.757  0.0193 -0.4638 -0.5404
 1534W        W19058  11.003  10.149   1.088  0.0132  0.1331 -0.1019
 1535W        W19059   4.533   6.740   0.510 -0.2048  0.0805  0.0332
 1536W        W19060   6.379   4.546  14.782  0.0511 -0.3473 -0.0681
 1537W        W19061   8.968   4.486   2.967 -0.1916 -0.2455 -0.0323
 1538W        W19062  12.008   0.372  15.944  0.0551  0.0781  0.0342
 1539W        W19063  16.494  14.410   4.687 -0.4351  0.1322  0.0271
 1540W        W19064   9.020   7.341  13.467 -0.2178 -0.2406 -0.2229
 1541W        W19065   1.619   7.737   0.706  0.3656  0.4503 -0.0764
 1542W        W19066  16.430  12.025   1.472  0.0693 -0.0401  0.0447
 1543W        W19067   0.143  16.177   1.436  0.1825 -0.1272 -0.2628
 1544W        W19068   2.767  16.835   4.936  0.1725  0.0061  0.0029
 1545W        W19069   2.166   6.136   0.441 -0.0273  0.2092 -0.1715
 1546W        W19070  14.806   8.632  11.348  0.1044  0.2030  0.2424
 1547W        W19071  13.025   0.584  15.963 -0.1736 -0.0774  0.0215
 1548W        W19072   8.067  12.086  14.233 -0.2216 -0.0006  0.0457
 1549W        W19073   8.133  10.078   4.500  0.1100  0.1785  0.0514
 1550W        W19074   6.530   8.673  12.175  0.1734  0.0322 -0.2539
 1551W        W19075   1.059   1.872  12.252  0.0675 -0.0271 -0.0486
 1552W        W19076   9.713   4.410   5.153  0.1349  0.1463 -0.0232
 1553W        W19077   7.832  16.313  12.573 -0.0011 -0.1571  0.0645
 1554W        W19078  10.231  11.312   2.850 -0.2270 -0.1387 -0.0039
 1555W        W19079   2.694  10.083  16.250 -0.0450 -0.0758  0.3744
 1556W        W19080   0.299  13.275  13.323  0.2518  0.1623 -0.0236
 1557W        W19081  14.813  16.084   0.314 -0.0372 -0.1632  0.0412
 1558W        W19082   3.965   4.531   3.526 -0.3815  0.1103  0.0617
 1559W        W19083   7.392  16.584   1.865  0.0400 -0.5324 -0.0027
 1560W        W19084   0.490   5.456  13.717 -0.3811 -0.0640 -0.0937
 1561W        W19085   4.437   3.314   1.218 -0.3350 -0.4119 -0.2225
 1562W        W19086  15.533  17.385   4.296 -0.0752 -0.0190 -0.2145
 1563W        W19087  10.678  12.435   3.156  0.4100  0.2093 -0.0033
 1564W        W19088  12.305  16.884  14.505  0.0845  0.1955  0.0336
 1565W        W19089  14.572   6.404  15.907 -0.0577 -0.0201 -0.3082
 1566W        W19090   4.464   0.744   3.061 -0.1372 -0.3609 -0.1987
 1567W        W19091  10.154   5.519   4.276 -0.0867 -0.1194 -0.1003
 1568W        W19092  15.452   0.062   0.129  0.2770 -0.0598 -0.0274
 1569W        W19093  16.855  14.062   3.899 -0.0359 -0.2752 -0.1664
 1570W        W19094   6.221  13.931  13.374 -0.3168 -0.0707  0.0345
 1571W        W19095  15.449   4.246  15.502  0.2797 -0.1482  0.3129
 1572W        W19096  11.085  13.379  15.865 -0.1140  0.0753 -0.2071
 1573W        W19097   4.207   9.168  12.216  0.0576 -0.1972  0.1832
 1574W        W19098  16.786   9.329  11.696  0.2063 -0.1277 -0.0527
 1575W        W19099  14.438  15.666   4.413 -0.3501  0.1854 -0.2167
 1576W        W19100   4.147   1.180  13.727 -0.0050 -0.3544  0.2116
 1577W        W19101  14.993   8.630   5.420 -0.1704 -0.1987 -0.1578
 1578W        W19102  12.844   5.520   5.046  0.0384 -0.0641 -0.0701
 1579W        W19103   6.194  17.452  14.796  0.1751  0.1417  0.0078
 1580W        W19104   9.365  13.930  12.812 -0.0290 -0.1203 -0.2022
 1581W        W19105   9.210  13.070  11.728  0.0336 -0.1746  0.4407
 1582W        W19106   2.553  11.647   3.904 -0.2272  0.2063 -0.2448
 1583W        W19107   4.584   1.524   4.365  0.2128 -0.0020 -0.1437
 1584W        W19108  15.477  12.615   2.975  0.0226 -0.1209 -0.0974
 1585W        W19109  16.032  14.440   3.456  0.1882 -0.1526 -0.1480
 1586W        W19110  11.124   8.303   1.826 -0.5102 -0.1233  0.1409
 1587W        W19111   4.752  13.095  14.644 -0.2360 -0.2209  0.1978
 1588W        W19112   2.098  13.492  11.987 -0.1516 -0.1051 -0.3693
 1589W        W19113   4.228   6.402  15.274 -0.1772 -0.0398  0.0352
 1590W        W19114   7.112   6.778   1.820  0.0585  0.0348 -0.0813
 1591W        W19115   3.734   2.483  11.952 -0.2311  0.0551  0.1151
 1592W        W19116   0.393   4.512   2.895  0.3429  0.0687 -0.0787
 1593W        W19117   3.716   4.286   5.033  0.1772 -0.0934 -0.1972
 1594W        W19118   4.810   5.772   3.193 -0.0188 -0.2401  0.1549
 1595W        W19119  11.392  13.665  11.796 -0.2671  0.0423 -0.2118
 1596W        W19120   5.977   5.269   3.585 -0.0579  0.2466  0.0501
 1597W        W19121  14.601   6.761  11.659 -0.0569 -0.0402 -0.0864
 1598W        W19122   6.380  14.786  14.401 -0.1231 -0.0104  0.2004
 1599W        W19123   4.498   7.396   3.177  0.1187  0.0806  0.1666
 1600W        W19124   0.337   3.077  13.663  0.1052 -0.2482  0.1371
 1601W        W19125   0.895   6.368  12.961  0.0919 -0.1649 -0.1583
 1602W        W19126  15.611  16.980   4.025 -0.2068  0.1639  0.0600
 1603W        W19127  13.999  16.636  15.661  0.2694  0.6819  0.0179
 1604W        W19128   3.037   2.419   2.907 -0.1160 -0.0542 -0.1592
 1605W        W19129  15.274   5.802   3.304 -0.0731  0.2343  0.0333
 1606W        W19130   4.536   5.826   0.493 -0.4068  0.0297  0.0343
 1607W        W19131   2.905   1.144  13.186 -0.0273  0.3452  0.1301
 1608W        W19132  12.226   1.712  15.346 -0.0592  0.1891 -0.1142
 1609W        W19133  11.869   4.442  14.110 -0.1179 -0.0886  0.2423
 1610W        W19134   7.800  13.641   0.978  0.0345  0.0135  0.4428
 1611W        W19135  15.384  13.674   0.030 -0.1354  0.1866  0.0460
 1612W        W19136   0.947   6.744  12.654  0.0618 -0.0409 -0.0821
 1613W        W19137  14.770  12.061  15.137  0.1994  0.2340  0.1628
 1614W        W19138   0.060  13.165   4.253 -0.2048 -0.1165  0.0213
 1615W        W19139  15.925   6.316  12.360 -0.2232 -0.2769  0.2077
 1616W        W19140  12.567  13.566  14.327 -0.1303 -0.0096 -0.0051
 1617W        W19141  12.356   1.646   4.474  0.1337 -0.3546 -0.0666
 1618W        W19142  15.265   6.782   3.000 -0.2504  0.0719 -0.2133
 1619W        W19143  17.138  13.843  13.042 -0.0081 -0.3257  0.1219
 1620W        W19144   9.424   6.749  15.496  0.0639  0.4134 -0.2585
 1621W        W19145   8.316  13.737   1.999  0.0815  0.2484 -0.3009
 1622W        W19146   1.286   6.201  13.716 -0.0296  0.1466  0.1771
 1623W        W19147  10.856   1.084  14.231  0.0251 -0.0974  0.1570
 1624W        W19148  11.062  14.227   4.192  0.3126 -0.0526  0.0720
 1625W        W19149  15.713  14.810  14.127  0.4724  0.0120  0.0154
 1626W        W19150   9.507   4.652   4.359 -0.3101  0.1315  0.1765
 1627W        W19151  11.403  16.119  15.125 -0.0269 -0.1501 -0.0287
 1628W        W19152   4.439  12.940   5.947 -0.0492  0.1797 -0.0542
 1629W        W19153   6.311   6.951  13.251  0.2031 -0.1972 -0.0945
 1630W        W19154   7.730   4.292   4.304  0.1342  0.0511 -0.2763
 1631W        W19155   4.496  12.532   4.254  0.2893 -0.1237  0.2560
 1632W        W19156   1.131   2.441  16.105  0.3134  0.0152  0.1151
 1633W        W19157   1.164  14.587  12.945  0.1875  0.1807  0.0676
 1634W        W19158   9.850   0.739   4.815 -0.0644 -0.1591  0.0888
 1635W        W19159  10.062   7.348   1.287 -0.1489  0.0228  0.3830
 1636W        W19160   6.509  14.840   3.624 -0.1645  0.1997  0.1421
 1637W        W19161   8.655   8.134  13.822 -0.2823  0.3426 -0.3430
 1638W        W19162   8.699  13.326  11.872 -0.0841  0.0340  0.0658
 1639W        W19163  10.006  10.928  13.681 -0.1601 -0.0273  0.3332
 1640W        W19164   5.141  16.629  15.902 -0.1414 -0.1527 -0.0897
 1641W        W19165  12.573   7.614   2.641 -0.2129  0.0948  0.2157
 1642W        W19166  11.872   2.465   4.301  0.1083  0.2049 -0.1227
 1643W        W19167  12.209   3.652   1.589  0.0376 -0.1124 -0.2568
 1644W        W19168   1.954  14.307  13.891  0.1568  0.0581 -0.2357
 1645W        W19169  14.631   2.093   3.409 -0.2674 -0.1496  0.2428
 1646W        W19170   9.534   7.190   4.699  0.0327  0.0825  0.2130
 1647W        W19171   0.245  17.305  13.946  0.1222  0.0764 -0.0492
 1648W        W19172   5.095  15.943  12.291  0.2109  0.2962 -0.2617
 1649W        W19173   5.092   4.073   1.376 -0.0449 -0.0791  0.3461
 1650W        W19174   8.504  15.651   2.939 -0.0623 -0.2552  0.0795
 1651W        W19175   3.895  14.813   0.279  0.1885  0.1659  0.1536
 1652W        W19176   7.517  11.628   2.309  0.2678 -0.0163  0.1086
 1653W        W19177  14.143  11.887   3.205  0.1646 -0.0251  0.3517
 1654W        W19178  15.335  10.276  13.770 -0.0624 -0.2342 -0.3200
 1655W        W19179   1.219   9.852   1.208  0.0547  0.1593  0.1481
 1656W        W19180  12.463  13.793  12.383 -0.2061  0.0180  0.0457
 1657W        W19181  16.745  16.827  15.959  0.0266  0.0264 -0.2008
 1658W        W19182   4.734   1.753  13.070  0.0004 -0.4470 -0.1850
 1659W        W19183   8.529  17.329   4.102 -0.0696  0.2619  0.2850
 1660W        W19184  14.738  17.051   2.060  0.1454  0.1454 -0.1755
 1661W        W19185  11.849   8.228  12.097  0.0014  0.0241  0.4070
 1662W        W19186   3.659  14.945   2.047 -0.0486 -0.1398 -0.2134
 1663W        W19187   9.803   9.999  11.617 -0.0729  0.0901  0.0697
 1664W        W19188   3.572   5.734  12.449 -0.1339  0.1103  0.1934
 1665W        W19189   7.654  14.967   1.823 -0.3976 -0.3407 -0.1891
 1666W        W19190  10.031   2.410   2.719 -0.0940  0.0455 -0.0020
 1667W        W19191   3.013   2.273   0.967  0.0847  0.0927  0.0587
 1668W        W19192  15.858   4.103  15.255  0.2613  0.0092  0.5086
 1669W        W19193   8.158  11.177  12.409 -0.0619  0.0550  0.1349
 1670W        W19194   9.093   7.622   4.754  0.0512 -0.1729 -0.0384
 1671W        W19195   0.917  17.737  14.474 -0.2335 -0.3769  0.0915
 1672W        W19196  16.249  14.322  12.863  0.0726 -0.1983 -0.3516
 1673W        W19197  11.598  17.793  13.093 -0.2419 -0.1941  0.0925
 1674W        W19198  10.584  10.193  12.198  0.2100  0.0330 -0.2044
 1675W        W19199  17.368   5.408  15.035 -0.0780  0.2124  0.1135
 1676W        W19200  13.181   9.735   1.323 -0.0734 -0.0152 -0.0109
 1677W        W19201  16.385  10.254  15.015  0.2918  0.0182  0.1102
 1678W        W19202  16.405   8.883   5.911  0.1504 -0.1804 -0.0008
 1679W        W19203  17.290   4.576   4.382  0.3126  0.1745  0.0691
 1680W        W19204  17.540  11.190   0.663  0.0614 -0.1633  0.2940
 1681W        W19205   5.132   2.914   5.062 -0.0933  0.2726 -0.0949
 1682W        W19206  13.835   7.816  11.579 -0.0124  0.0645  0.1021
 1683W        W19207   0.810   6.499   2.725  0.1837 -0.1203 -0.1575
 1684W        W19208   3.598   7.392  16.101  0.0887 -0.0437  0.0193
 1685W        W19209   2.658  11.998   2.938 -0.4743 -0.0232  0.0286
 1686W        W19210  10.651   9.050  13.742  0.0595  0.1069  0.1318
 1687W        W19211  13.631   0.337  12.498  0.2446  0.0446  0.1056
 1688W        W19212   8.881   9.039  14.245 -0.0656 -0.1641  0.0553
 1689W        W19213   7.982   9.432  11.116  0.1111  0.0583 -0.0331
 1690W        W19214   4.136  13.462   3.349  0.0475 -0.1221  0.0311
 1691W        W19215   2.914   4.297  15.956  0.1031  0.0642 -0.1055
 1692W        W19216   1.644   0.391   3.011 -0.1241 -0.0736  0.0838
 1693W        W19217   2.428   5.598   5.817 -0.1396  0.0830 -0.0445
 1694W        W19218  14.336   4.800   4.001  0.0998  0.1922 -0.1032
 1695W        W19219   4.278   9.435  14.621 -0.1611 -0.0614 -0.0474
 1696W        W19220   5.977   6.863  14.387  0.0630  0.1286  0.2817
 1697W        W19221   0.342  17.855  15.687 -0.1292  0.2397  0.0403
 1698W        W19222  17.635  12.159   0.481  0.1222  0.2853 -0.1532
 1699W        W19223  16.700   5.926  12.533 -0.4971  0.3101  0.1261
 1700W        W19224  12.844   7.571  11.579 -0.1304 -0.3841 -0.1245
 1701W        W19225   5.298  13.738  10.987  0.1482  0.0465 -0.1387
 1702W        W19226   6.864   5.699   4.715 -0.1049 -0.3398 -0.0819
 1703W        W19227   7.552   1.369   0.085  0.2561  0.0604 -0.0038
 1704W        W19228  17.474  12.393  12.027 -0.0407 -0.0442 -0.1860
 1705W        W19229  12.059   5.304  12.810  0.0750  0.1245 -0.1496
 1706W        W19230  10.295  13.049   1.665  0.0254  0.1986 -0.0800
 1707W        W19231   1.144   1.588   0.432 -0.0845 -0.0806  0.1793
 1708W        W19232  13.896   0.885  15.464  0.2561 -0.2571  0.0688
 1709W        W19233   8.546  13.142   1.497  0.0413  0.0576  0.1406
 1710W        W19234   9.121  16.977   4.800  0.1880 -0.2645  0.3627
 1711W        W19235   4.057   1.869   2.045 -0.2055 -0.0608 -0.0696
 1712W        W19236   7.302  12.131  15.348 -0.0845  0.2997  0.0267
 1713W        W19237   1.985  13.537  15.824  0.2877  0.0066  0.1348
 1714W        W19238  17.329  16.261   0.816 -0.2540 -0.1823 -0.1098
 1715W        W19239  15.419  16.588  16.224  0.0851  0.1616  0.0320
 1716W        W19240  15.517  17.515   3.230  0.0883 -0.4388  0.0900
 1717W        W19241  11.592   9.612  14.703  0.1157 -0.0409 -0.0684
 1718W        W19242   7.418   9.038  11.914 -0.2268 -0.1924  0.0233
 1719W        W19243  13.700   5.604   4.179 -0.2338  0.1300 -0.3310
 1720W        W19244  14.428   6.967  14.479  0.1350  0.1776  0.0186
 1721W        W19245   9.127   0.780  12.140  0.0040  0.0744 -0.0311
 1722W        W19246  13.056   0.599  14.907  0.0580 -0.3387 -0.0505
 1723W        W19247   1.682  16.192   1.136 -0.0698 -0.1509 -0.1574
 1724W        W19248   8.945  12.846   5.043  0.2168  0.0208  0.0346
 1725W        W19249   8.372   8.140   4.480 -0.0006  0.1191 -0.0642
 1726W        W19250   7.976  16.326   1.051  0.3116  0.1451  0.1513
 1727W        W19251  11.563  17.336  12.896  0.1468  0.0606 -0.1866
 1728W        W19252   3.746   7.286  11.186  0.0221  0.2028  0.2074
 1729W        W19253  10.857  15.848  13.191  0.1990  0.2121 -0.1092
 1730W        W19254  11.470  16.727  11.712  0.1066 -0.0351 -0.0929
 1731W        W19255   5.825   0.252   1.222  0.1205 -0.0689 -0.1431
 1732W        W19256  17.899   9.847   5.061 -0.0260  0.0092 -0.3870
 1733W        W19257  16.908  15.540  16.158 -0.2091 -0.2293  0.3155
 1734W        W19258  17.011  16.290  13.455 -0.2900 -0.0661 -0.2218
 1735W        W19259  10.781  15.240   2.061  0.0532  0.1445  0.2063
 1736W        W19260  14.094   2.323  11.640 -0.0142  0.0040 -0.0969
 1737W        W19261  17.847   7.236   1.506 -0.2050 -0.2611  0.0555
 1738W        W19262  11.813   7.561   2.029 -0.0653 -0.0163  0.0657
 1739W        W19263  16.870  16.668   4.023 -0.1412 -0.1257 -0.0252
 1740W        W19264  15.075   1.539  14.925 -0.0589 -0.1276  0.0970
 1741W        W19265  10.969   0.928   2.833  0.0189  0.0482  0.3296
 1742W        W19266   8.668  17.806  11.975  0.1266 -0.1967 -0.1894
 1743W        W19267   1.982   7.541   1.607  0.0337  0.3269 -0.1438
 1744W        W19268   2.440  16.955  13.241  0.0730 -0.1259  0.1878
 1745W        W19269   7.719   1.014   2.388  0.0405  0.0138  0.1700
 1746W        W19270   6.561   0.199   2.498 -0.5224  0.0362 -0.2322
 1747W        W19271  15.997   9.813  13.125  0.2516  0.1858 -0.1060
 1748W        W19272   6.817  16.051  14.239 -0.1319 -0.1865  0.2119
 1749W        W19273  15.045  16.353  15.801  0.0156  0.4821  0.2384
 1750W        W19274   9.735   3.240   5.285  0.0742  0.1710  0.0714
 1751W        W19275   7.422  12.441  16.166 -0.0685  0.0594  0.3352
 1752W        W19276  17.605   4.831   0.304  0.1108  0.0534  0.1243
 1753W        W19277  12.182   7.005  11.031  0.2193 -0.1021 -0.0598
 1754W        W19278   1.870   7.581  14.366  0.0444  0.1399 -0.0194
 1755W        W19279   3.077  16.539  11.322  0.3663 -0.4024 -0.2794
 1756W        W19280   7.124  10.025  14.742  0.1071 -0.0021  0.0682
 1757W        W19281  13.591   0.188   0.383  0.0470 -0.2446  0.0469
 1758W        W19282  16.869   4.462  16.143 -0.2253 -0.1403  0.0931
 1759W        W19283  10.408   0.863   4.557 -0.1705 -0.0583 -0.2068
 1760W        W19284   9.267  13.966  16.005  0.1602 -0.0012  0.0920
 1761W        W19285   5.342   2.050  11.986 -0.3219  0.0403 -0.0476
 1762W        W19286  15.398  14.859   2.111 -0.0481  0.2102  0.2653
 1763W        W19287  15.018   3.294  12.624  0.0818  0.0580 -0.0392
 1764W        W19288  16.648   9.021   5.081  0.0168 -0.0906 -0.0949
 1765W        W19289  14.199   2.441   3.419 -0.0448  0.1770  0.0591
 1766W        W19290   5.972   1.075  12.572  0.2070 -0.3616 -0.0318
 1767W        W19291  17.420   0.129   5.182 -0.0694 -0.0404  0.1277
 1768W        W19292  10.362   5.501  15.778 -0.3047  0.0635 -0.1219
 1769W        W19293   5.604  12.044   1.765 -0.1064 -0.2174  0.0185
 1770W        W19294   3.119  15.374   5.389  0.0792 -0.1516 -0.1589
 1771W        W19295   1.260   1.044   0.154 -0.1707 -0.2617  0.1972
 1772W        W19296   3.222  16.885   1.087 -0.0756  0.3285 -0.0042
 1773W        W19297   9.949   2.056  12.083 -0.0488  0.0534  0.2577
 1774W        W19298  17.715   6.686  10.365  0.1137  0.1586 -0.0355
 1775W        W19299  12.749   6.155   4.822 -0.0024 -0.0316 -0.2206
 1776W        W19300   8.512   1.209  10.892  0.0854  0.1767 -0.4315
 1777W        W19301   8.175   6.232   1.545  0.0596 -0.5923 -0.1969
 1778W        W19302  16.674   8.867   1.868  0.3093  0.0046  0.1836
 1779W        W19303   5.824  14.004  14.619  0.0541  0.0298  0.1580
 1780W        W19304  10.514  16.825  13.498 -0.2792  0.0616  0.1826
 1781W        W19305   1.837  12.170  11.305 -0.0576 -0.0389 -0.0074
 1782W        W19306   8.364   1.470  13.955  0.2035  0.1050 -0.0098
 1783W        W19307  10.538  17.742  10.415 -0.0844  0.1987  0.2821
 1784W        W19308  16.428   6.431   3.867 -0.0403  0.1870  0.3184
 1785W        W19309   7.299  12.160  12.859 -0.0055  0.1183  0.0247
 1786W        W19310  10.136  14.782   5.098 -0.0433  0.1224  0.1568
 1787W        W19311   6.400  12.645   0.111 -0.0885 -0.2141  0.1495
 1788W        W19312   0.333   5.041  15.052 -0.3820  0.0357 -0.0536
 1789W        W19313   0.368  15.795   1.158  0.1184 -0.2074 -0.0131
 1790W        W19314   8.291  17.664   4.593 -0.0383 -0.3381 -0.2592
 1791W        W19315  14.183  11.495  14.891  0.4296 -0.0811 -0.0561
 1792W        W19316   6.066  10.464   1.767  0.0324 -0.2205 -0.2413
 1793W        W19317  12.658   9.053  14.694  0.1712 -0.0044 -0.4254
 1794W        W19318  14.142  14.395  12.407 -0.2359  0.1012 -0.0958
 1795W        W19319   7.319  15.278   1.462 -0.1596  0.0816  0.2860
 1796W        W19320   3.124   0.446  12.244  0.0082  0.0659  0.0792
 1797W        W19321  12.498   5.245  15.969 -0.0134 -0.0637 -0.2183
 1798W        W19322  12.902   1.906  13.804  0.1980  0.0613 -0.2777
 1799W        W19323   2.878   5.082   3.120  0.0399  0.2038  0.0545
 1800W        W19324   6.113   7.128   3.010  0.0044  0.2711 -0.3206
 1801W        W19325   3.419   8.981  14.964 -0.3341 -0.3398 -0.0093
 1802W        W19326   5.812   2.013  11.861 -0.1523  0.0699 -0.0538
 1803W        W19327   7.859   4.942   0.226 -0.0097 -0.0178 -0.0871
 1804W        W19328  10.977  16.230   2.570 -0.0748 -0.2162 -0.1116
 1805W        W19329   5.233  11.816   5.131 -0.2391 -0.0953 -0.1265
 1806W        W19330   5.282   0.237  14.790 -0.1661  0.0676  0.1421
 1807W        W19331  17.142  15.479   5.770  0.0129 -0.1322  0.1767
 1808W        W19332  14.638  11.947  11.776 -0.1722  0.0980 -0.2769
 1809W        W19333   7.442   7.962   2.463  0.0086  0.1984  0.0933
 1810W        W19334   1.256   5.304   3.934  0.2375  0.0667 -0.1957
 1811W        W19335   9.474   0.955  11.782  0.1346 -0.2613 -0.0940
 1812W        W19336   0.942  14.651  15.469 -0.1112 -0.1758 -0.1285
 1813W        W19337   7.240   9.632  15.019  0.1628  0.0265 -0.2456
 1814W        W19338   4.012   4.819   5.081  0.0917  0.0505 -0.4043
 1815W        W19339  16.566   6.021   2.923  0.0023 -0.0950  0.3389
 1816W        W19340   5.511  10.684  13.662 -0.0596 -0.0292  0.1351
 1817W        W19341   8.163   8.548   2.769 -0.1440 -0.2423 -0.3547
 1818W        W19342  13.207  11.027  13.075 -0.3081 -0.2379  0.0394
 1819W        W19343  13.100   3.808   2.079  0.1019  0.2447 -0.1833
 1820W        W19344   5.255   2.286   2.905  0.1992  0.1215  0.2648
 1821W        W19345   8.201   3.261  14.016 -0.1674 -0.2156  0.1038
 1822W        W19346  12.476  14.843   6.188 -0.0863 -0.1976  0.0351
 1823W        W19347   5.368   8.365   3.735  0.0845 -0.0511 -0.0291
 1824W        W19348   7.059   4.177  11.281 -0.2309  0.1858  0.1582
 1825W        W19349   0.976   4.339   3.072 -0.2376 -0.0618 -0.1894
 1826W        W19350   6.470  14.832   1.116 -0.0492  0.3370 -0.0265
 1827W        W19351   4.010   0.382   4.929 -0.2069  0.0682  0.0499
 1828W        W19352  17.246   9.272   2.341 -0.0954  0.1932 -0.2691
 1829W        W19353   9.556  16.996  11.210 -0.1133 -0.1755 -0.1374
 1830W        W19354   3.050  16.170   1.658 -0.3108 -0.2906 -0.0522
 1831W        W19355   5.240  13.400  15.521  0.1824  0.0463 -0.3766
 1832W        W19356   7.336   7.789  16.230  0.4625 -0.2921 -0.0845
 1833W        W19357  17.436  17.346   5.306 -0.1285  0.1279  0.0696
 1834W        W19358  12.020   2.966  11.893  0.2553  0.2696 -0.2254
 1835W        W19359  14.176   9.955   0.241 -0.4727  0.0769  0.2499
 1836W        W19360  15.088   9.484  11.427  0.4124 -0.0137  0.1130
 1837W        W19361   4.552   1.484  15.234  0.1952  0.3526 -0.0476
 1838W        W19362  15.734   5.274  12.120 -0.1084  0.1242  0.1302
 1839W        W19363   0.913  10.156  12.114 -0.1637 -0.1333  0.0898
 1840W        W19364   5.067  17.606  11.943  0.0008 -0.1035  0.2496
 1841W        W19365  14.785  17.456  11.893  0.0739 -0.2585  0.2080
 1842W        W19366  13.987   2.527   3.890  0.2817  0.2025 -0.0574
 1843W        W19367  12.391  11.741   0.855 -0.2216  0.0548  0.0151
 1844W        W19368  14.094  14.104   3.882  0.0032 -0.2403  0.1365
 1845W        W19369  15.816  14.400   0.608 -0.1308 -0.1655  0.1508
 1846W        W19370  13.648   2.994   3.145  0.0340 -0.3733  0.0911
 1847W        W19371  12.324   6.158  15.501 -0.0702  0.3239  0.0126
 1848W        W19372   3.255   6.781   4.211 -0.2242  0.1872 -0.4316
 1849W        W19373  10.290   3.277  15.162 -0.2386 -0.0054  0.1957
 1850W        W19374  16.233   7.818  12.525 -0.1485 -0.1685 -0.2465
 1851W        W19375  14.790   8.992   3.900  0.3212 -0.0809 -0.3465
 1852W        W19376  13.883  13.912   2.075  0.3175 -0.4070  0.0939
 1853W        W19377   7.971  10.465  11.544 -0.0304 -0.1262 -0.0952
 1854W        W19378  17.269  14.486   1.025  0.1373 -0.1413  0.1054
 1855W        W19379   0.812   6.287   5.137 -0.0980  0.1548  0.1198
 1856W        W19380   9.230   9.632   3.521 -0.1286  0.2991 -0.2437
 1857W        W19381   3.136   1.179   4.030 -0.1698 -0.0191  0.2851
 1858W        W19382   7.771  14.583   0.455 -0.1217 -0.2367  0.0241
 1859W        W19383   6.138  16.128   3.633 -0.0378 -0.1226 -0.1215
 1860W        W19384  10.846   6.205  13.198 -0.0275 -0.0287  0.0708
 1861W        W19385  14.751  13.446   1.851  0.3260  0.0617  0.0381
 1862W        W19386   0.173  16.701  10.843  0.1923 -0.0345 -0.1309
 1863W        W19387   0.343   3.085   0.804  0.0687 -0.0875 -0.0998
 1864W        W19388   4.930   8.524  13.843 -0.0201 -0.0269  0.1853
 1865W        W19389   5.336  11.305  11.714  0.2180  0.2497  0.2814
 1866W        W19390   3.208  14.055  13.712  0.0870 -0.0124 -0.2256
 1867W        W19391  14.984   5.947  11.187  0.0435 -0.1378  0.0614
 1868W        W19392   5.175  14.989   2.431 -0.0284  0.2009  0.0168
 1869W        W19393  10.151  12.585   1.507  0.1641  0.0182 -0.2105
 1870W        W19394   6.765   5.974   1.796 -0.0843  0.1383 -0.1193
 1871W        W19395  16.924   0.477  15.277  0.0339 -0.1400  0.1326
 1872W        W19396  14.658   9.535   2.614  0.0256  0.0928  0.1327
 1873W        W19397  17.378   6.148   1.583  0.2369  0.0778  0.1202
 1874W        W19398   2.003  15.193  16.022 -0.1671  0.1914  0.1102
 1875W        W19399  11.301   1.885  14.133  0.1375  0.1511  0.2377
 1876W        W19400  13.291   1.469  13.391 -0.1474 -0.0018 -0.2037
 1877W        W19401  17.471   5.801  14.104 -0.2223  0.2092  0.1486
 1878W        W19402   7.127  14.961   0.924 -0.1486 -0.2051 -0.1062
 1879W        W19403  12.657  11.564  14.431  0.2818 -0.1796  0.2600
 1880W        W19404   3.877   6.041  10.737 -0.1889 -0.0668  0.2726
 1881W        W19405   7.962  17.703  14.842  0.0666  0.4505 -0.1183
 1882W        W19406   4.514   3.296   6.083  0.0726  0.2364  0.1936
 1883W        W19407   6.373   4.162   3.120  0.1167  0.2153 -0.1714
 1884W        W19408  15.380  13.580  14.967 -0.0790  0.1016  0.1274
 1885W        W19409   7.615   2.582  13.972 -0.0474 -0.0198 -0.2369
 1886W        W19410   0.300  14.177   4.379 -0.1996  0.0097  0.1132
 1887W        W19411  13.591   1.247   0.524  0.1622  0.0996  0.2099
 1888W        W19412  16.815  16.774   2.943  0.1023 -0.1720  0.2386
 1889W        W19413   5.911  11.791   0.105  0.1223 -0.1017  0.1878
 1890W        W19414  15.342  15.771   4.403 -0.3654  0.1564  0.0126
 1891W        W19415   0.528   7.744   0.783 -0.1367 -0.3354  0.1876
 1892W        W19416  10.258   2.888  12.718  0.0654 -0.0467 -0.0327
 1893W        W19417  17.881   5.407   4.051 -0.1166  0.1896 -0.0205
 1894W        W19418  16.920  16.004  15.416  0.0483 -0.3241  0.2875
 1895W        W19419   1.205  17.178  11.571 -0.2173  0.2771  0.2170
 1896W        W19420   0.404   5.172   4.210 -0.0089 -0.1693  0.3605
 1897W        W19421  16.237  13.221   1.689  0.0129  0.0670  0.2007
 1898W        W19422  15.615   3.832   2.371 -0.0261  0.2815 -0.0272
 1899W        W19423  13.330   1.336  14.119 -0.1238 -0.0413  0.0275
 1900W        W19424   2.223   4.317   1.629  0.0898  0.2221  0.1165
 1901W        W19425  16.620   6.338   1.898 -0.0904 -0.0421 -0.2357
 1902W        W19426   3.035   5.081   2.615 -0.0987 -0.2512  0.0379
 1903W        W19427   1.219   5.465   1.534 -0.0507  0.1467 -0.0696
 1904W        W19428  11.583   4.090   2.628  0.1878 -0.1276 -0.0121
 1905W        W19429   7.154   8.679   5.224 -0.3022 -0.3392 -0.2471
 1906W        W19430   9.897   5.379   4.880 -0.0446  0.1304  0.2950
 1907W        W19431  17.603   7.181   4.643  0.0876 -0.4911  0.0501
 1908W        W19432  17.921  17.907  12.946  0.1206 -0.3284  0.1073
 1909W        W19433  15.629   6.648   4.790 -0.1173  0.2262  0.1167
 1910W        W19434   7.643  15.994  16.108 -0.2225 -0.3545  0.0844
 1911W        W19435  16.631  15.094   0.009 -0.3546 -0.1972  0.0381
 1912W        W19436  17.598   9.054   3.969 -0.0832  0.0466  0.0754
 1913W        W19437   5.309  13.300   3.597 -0.0763  0.2547 -0.0988
 1914W        W19438   0.953  13.601  14.717 -0.1399 -0.0555  0.0275
 1915W        W19439  16.956  12.153   4.246  0.0503  0.2501  0.3748
 1916W        W19440  16.027   7.150   0.392 -0.1409 -0.0956  0.1974
 1917W        W19441  13.635  17.446  13.687 -0.3341  0.0528  0.2025
 1918W        W19442  11.207  12.102   3.323 -0.0409 -0.1662 -0.0846
 1919W        W19443   0.980   4.713  12.885 -0.4651  0.1596 -0.0118
 1920W        W19444   0.067   2.089  15.912  0.2224  0.1949 -0.4806
 1921W        W19445   4.043   2.928   1.277 -0.1131  0.1640 -0.1700
 1922W        W19446  14.297   9.796   2.862 -0.0560  0.0341 -0.2940
 1923W        W19447  11.776   8.122   2.815  0.0011  0.4226  0.1407
 1924W        W19448  17.740  13.019  14.647 -0.0894 -0.0715  0.0658
 1925W        W19449  14.124  13.321   2.626 -0.1896  0.1083  0.1330
 1926W        W19450  12.614  13.175  13.557  0.3395 -0.0449 -0.0151
 1927W        W19451   1.913   2.359  12.085 -0.0749  0.4778  0.1107
 1928W        W19452  16.630   6.336  15.758 -0.0968  0.0685 -0.0823
 1929W        W19453   3.987  13.898  11.727 -0.0354  0.1449 -0.1344
 1930W        W19454  12.169   9.511  13.870  0.0375 -0.1482 -0.2524
 1931W        W19455  15.880   9.666  14.458 -0.0335  0.0594  0.0284
 1932W        W19456   2.353  15.447  15.596  0.0100 -0.1387 -0.0201
 1933W        W19457   9.203   4.326   3.386  0.1532  0.0323 -0.1152
 1934W        W19458   5.647   6.419  14.385 -0.1348  0.2891 -0.4435
 1935W        W19459  16.412  16.376   0.800 -0.1806 -0.0615 -0.0996
 1936W        W19460   8.169   4.289  14.622  0.3662  0.1543  0.2587
 1937W        W19461  12.129   9.395   1.172  0.0001 -0.0098  0.2788
 1938W        W19462   0.564  15.659  12.306  0.1657  0.0855  0.1122
 1939W        W19463   2.710  17.696   1.601  0.1550 -0.0119  0.1101
 1940W        W19464  13.166  14.367   0.631  0.0425 -0.3689  0.0238
 1941W        W19465   8.121   7.038   4.417  0.0883 -0.1264 -0.1568
 1942W        W19466   9.623  14.747  16.246 -0.1726  0.0806 -0.4332
 1943W        W19467   6.787   9.195   3.023  0.1024  0.2412 -0.1778
 1944W        W19468   0.049  17.222  14.536  0.1218  0.1647  0.0613
 1945W        W19469  15.224   6.852  13.731  0.1565 -0.0245  0.0188
 1946W        W19470  17.784  12.502  16.073 -0.1174  0.0519 -0.0625
 1947W        W19471  13.373   2.169  15.532  0.1374  0.0313 -0.1001
 1948W        W19472   1.555   1.386  12.097  0.1281 -0.0192 -0.1516
 1949W        W19473   1.055  17.308   4.474  0.0885  0.0434 -0.2540
 1950W        W19474   7.898  11.858  13.740  0.2146 -0.1637 -0.0430
 1951W        W19475   7.724  14.358   3.234  0.0898 -0.0381 -0.1098
 1952W        W19476   2.549  11.823  13.942  0.0147  0.0845  0.0417
 1953W        W19477   1.774  14.443   4.028  0.0030  0.0778  0.1526
 1954W        W19478  17.512   8.280   0.008 -0.0248 -0.0858  0.2052
 1955W        W19479  10.235  14.923   0.070 -0.1809  0.3020  0.1259
 1956W        W19480   6.691   1.985   4.247 -0.1608 -0.2656  0.1968
 1957W        W19481   9.357   4.558  12.322 -0.3784 -0.0440  0.0619
 1958W        W19482  10.300   7.896   3.795  0.0509 -0.3648 -0.0002
 1959W        W19483   5.849   3.870   1.858  0.2187  0.2323 -0.2025
 1960W        W19484   3.330  17.307  13.640  0.0238 -0.0903  0.0018
 1961W        W19485   8.033   7.811   5.455 -0.0481 -0.2794 -0.0304
 1962W        W19486   1.364   9.553  16.050 -0.3422 -0.4372  0.1826
 1963W        W19487  12.070  17.548   0.912 -0.0928 -0.0937  0.0589
 1964W        W19488   9.972   1.311   0.950  0.1567 -0.1527  0.1019
 1965W        W19489   4.274   4.472   1.976  0.2245 -0.1954  0.1801
 1966W        W19490   2.916   3.756   1.188  0.1617  0.0752  0.4839
 1967W        W19491  11.851  16.236   3.571  0.1848  0.2761  0.0083
 1968W        W19492   8.522   1.998  15.152  0.0079 -0.0893  0.3943
 1969W        W19493   6.267  11.115  14.464  0.1139 -0.1973 -0.0307
 1970W        W19494   8.970   4.788  12.010 -0.0706  0.1438 -0.1070
 1971W        W19495   6.967  12.745  12.075 -0.0476 -0.0552 -0.1890
 1972W        W19496  10.571  16.740  14.330  0.2255 -0.1986 -0.1552
 1973W        W19497  12.895   5.511   4.565  0.0812 -0.0289 -0.1012
 1974W        W19498   3.947  10.773  14.297  0.2419 -0.1470 -0.2651
 1975W        W19499   8.147  15.167   3.859 -0.0523  0.4054 -0.2226
 1976W        W19500   2.992   1.774   4.786  0.1529  0.1309  0.0439
 1977W        W19501  10.025   7.116   3.181  0.2453 -0.1323 -0.4269
 1978W        W19502   8.409  14.414   0.509 -0.1475 -0.2453 -0.0259
 1979W        W19503  13.615   2.209  11.683  0.2454 -0.0784  0.0422
 1980W        W19504  14.824  15.110  10.251 -0.1586  0.2817 -0.3264
 1981W        W19505   4.250  14.169   2.900  0.0370  0.0384 -0.2035
 1982W        W19506  12.684  13.896   3.913 -0.3322 -0.0300  0.0298
 1983W        W19507  10.214   0.475  11.883  0.1443  0.1835 -0.0981
 1984W        W19508  16.636  15.019  12.690  0.0144  0.1618  0.1341
 1985W        W19509  15.395   4.429   3.877 -0.0026 -0.0991  0.2720
 1986W        W19510  13.500  10.601  12.860 -0.1045  0.2232 -0.4165
 1987W        W19511  10.594  12.312  12.492 -0.1953  0.2414  0.0958
 1988W        W19512   3.235  16.199   0.289  0.3594  0.0993 -0.1635
 1989W        W19513  11.913   9.715  13.467 -0.1828  0.1517 -0.0405
 1990W        W19514  11.118   0.263   4.958 -0.2005  0.1629 -0.2488
 1991W        W19515   4.192   9.576   1.050  0.0276 -0.0159  0.0843
 1992W        W19516  13.167  11.796  12.762  0.3965  0.0685  0.2562
 1993W        W19517  17.352  16.338  14.423 -0.0487 -0.0767 -0.3008
 1994W        W19518   9.798  14.513   3.758 -0.2202 -0.2030 -0.0800
 1995W        W19519  17.142  15.813   4.460 -0.2133  0.0540 -0.1849
 1996W        W19520   5.077   1.547   1.109  0.0785  0.3123  0.0723
 1997W        W19521  17.676  17.095   3.905  0.1321 -0.0246 -0.1221
 1998W        W19522   1.101   7.742  14.213 -0.0904  0.0809 -0.0068
 1999W        W19523  17.522  17.204  11.298 -0.1784 -0.0131  0.1521
 2000W        W19524   2.992  13.845  12.828  0.3304  0.0312 -0.1105
 2001W        W19525   1.994   2.950  12.201  0.1305  0.2447 -0.2179
 2002W        W19526  15.273  12.958  13.764 -0.1813 -0.2451 -0.0958
 2003W        W19527  15.142   7.823  13.542 -0.1513 -0.2028 -0.2484
 2004W        W19528   7.309   2.175   0.487 -0.2106  0.0512 -0.1767
 2005W        W19529   1.608   0.408   6.169 -0.1273 -0.2364 -0.3470
 2006W        W19530   2.786   6.507   0.951  0.1867  0.1039 -0.0933
 2007W        W19531   0.154   3.031   4.736  0.0258 -0.4642 -0.2700
 2008W        W19532  10.567  12.294  13.514  0.2529  0.0616  0.0907
 2009W        W19533   8.078  11.777   1.299 -0.1223 -0.0798  0.0708
 2010W        W19534   2.392   8.212  14.077  0.0934 -0.1419 -0.0237
 2011W        W19535  10.861   5.387  15.736 -0.0070  0.2049  0.0739
 2012W        W19536  10.817  15.269  12.706 -0.0256 -0.2820 -0.1421
 2013W        W19537  10.898   8.430  11.871 -0.0409  0.2495  0.2474
 2014W        W19538  10.376  10.589  13.817 -0.4207  0.1177  0.0922
 2015W        W19539  13.220   8.625  14.118  0.1004 -0.0257 -0.2512
 2016W        W19540   9.683   4.922   2.078 -0.0596 -0.1976  0.1339
 2017W        W19541   7.871  10.146   5.004  0.3897 -0.2225  0.1570
 2018W        W19542   6.390   6.458  11.897 -0.4811 -0.0921 -0.0110
 2019W        W19543   5.129   2.749   3.203 -0.1321 -0.1197  0.0310
 2020W        W19544   8.509   9.305   2.994  0.3168  0.2143 -0.0455
 2021W        W19545  15.383   0.190   4.995 -0.1149  0.0512  0.1318
 2022W        W19546   8.042  13.200   3.659  0.0593  0.0170  0.1018
 2023W        W19547  10.110   9.688  15.781  0.1766 -0.1024  0.0372
 2024W        W19548  15.355   8.828   1.950 -0.1223  0.2255  0.2197
 2025W        W19549   3.232   5.616   1.856  0.0192  0.0373  0.1867
 2026W        W19550  17.823  14.524  11.172  0.1614  0.0888 -0.0110
 2027W        W19551   6.177   7.883  13.594 -0.2096  0.2399 -0.0291
 2028W        W19552   9.151   9.467   2.455  0.0253  0.2771  0.1172
 2029W        W19553   3.543   7.117   4.826  0.0565  0.0061 -0.0105
 2030W        W19554   3.584  17.814   1.108  0.1282  0.0140 -0.2376
 2031W        W19555   5.576  15.701   4.309  0.0375  0.0302  0.1451
 2032W        W19556  11.177   9.120  13.142  0.2081  0.2055 -0.0430
 2033W        W19557   9.556  13.467  15.178 -0.2261 -0.0519 -0.1397
 2034W        W19558  16.791  12.482   3.534  0.2808 -0.1850  0.2315
 2035W        W19559  10.010   3.121  11.223 -0.1830 -0.0321  0.2657
 2036W        W19560   1.060  15.867  11.645 -0.1884 -0.1532 -0.0055
 2037W        W19561  16.874   5.622  14.053 -0.2785 -0.0351 -0.3483
 2038W        W19562  11.341   9.350  15.086 -0.3219  0.0657  0.0982
 2039W        W19563  15.068   2.540   5.640 -0.0414  0.0168  0.3658
 2040W        W19564   3.304  17.591  12.154  0.2230 -0.0114 -0.2755
 2041W        W19565  13.765  16.997  11.854  0.0655 -0.1219  0.0194
 2042W        W19566   3.287   3.640  15.345 -0.1960  0.1280 -0.3587
 2043W        W19567  11.299  17.779   2.763 -0.2291  0.1710 -0.2390
 2044W        W19568   3.509  17.425   3.763 -0.0519  0.0807 -0.0719
 2045W        W19569   3.490   6.179   2.498 -0.2573  0.0494 -0.2734
 2046W        W19570  12.392   5.046  12.470 -0.0936  0.0053  0.0265
 2047W        W19571   6.436   7.182  13.677 -0.1062  0.0438  0.1999
 2048W        W19572   5.883   7.317   1.191 -0.0699 -0.1898 -0.2064
 2049W        W19573   7.738   0.187   2.293  0.0153 -0.1778  0.0164
 2050W        W19574  10.657  17.683  11.410 -0.0522  0.2617 -0.1262
 2051W        W19575  10.308  10.053   0.316  0.3151  0.1429 -0.2478
 2052W        W19576   0.727   8.175   1.774  0.2359  0.2496 -0.1660
 2053W        W19577   8.969   6.358   0.585  0.3062  0.1211 -0.2690
 2054W        W19578  13.034  16.963   0.017 -0.0382 -0.1936 -0.0328
 2055W        W19579   3.304   2.469  14.576 -0.0443 -0.2978  0.0664
 2056W        W19580   0.487   1.240  12.076 -0.1121  0.0780 -0.0114
 2057W        W19581   7.105   8.708   2.741  0.0704  0.2919 -0.3549
 2058W        W19582   0.898  13.728   5.570  0.3027 -0.1192 -0.0178
 2059W        W19583   4.805   6.284  13.228 -0.3618  0.0944 -0.1341
 2060W        W19584   0.321  11.416  12.482  0.0997 -0.1521  0.0818
 2061W        W19585  14.638   2.991  14.493 -0.3803  0.1362 -0.1130
 2062W        W19586  14.392   2.796   3.857 -0.1806 -0.0880 -0.2971
 2063W        W19587  11.740  12.794  11.795  0.3116 -0.0219 -0.2597
 2064W        W19588   4.730  12.093  15.914  0.4606  0.1513 -0.1178
 2065W        W19589   5.789  16.542   3.016 -0.1517 -0.0457  0.1163
 2066W        W19590   1.122   1.980   4.527  0.1860 -0.0855 -0.0374
 2067W        W19591   8.391   1.148  16.177  0.1866  0.1254  0.0228
 2068W        W19592  14.214   7.453  14.558 -0.0615  0.2184 -0.2205
 2069W        W19593   9.748   0.227   1.515 -0.3003  0.0972 -0.0005
 2070W        W19594  11.348   7.078  14.497 -0.1808 -0.0506 -0.1069
 2071W        W19595   1.660   8.360  13.350 -0.0829 -0.1331 -0.0888
 2072W        W19596   8.184   3.292   0.415  0.0723 -0.0598  0.1266
 2073W        W19597   2.545  10.099  14.332 -0.1356 -0.0195  0.1031
 2074W        W19598  10.542   3.304  13.709 -0.1049  0.2876  0.0942
 2075W        W19599   9.388  13.104   1.687  0.1943 -0.0079 -0.2000
 2076W        W19600   2.098  16.198   2.568 -0.0749 -0.1528 -0.4147
 2077W        W19601   9.974  13.410   1.656  0.0430  0.1020  0.2568
 2078W        W19602  17.745   0.079  13.414  0.0019  0.2037 -0.0491
 2079W        W19603   0.113   0.331   1.032 -0.2214 -0.2496 -0.1347
 2080W        W19604  10.982   2.829  13.300  0.1685 -0.0776  0.4478
 2081W        W19605   8.693   7.153   4.223  0.0648  0.3274  0.2148
 2082W        W19606   8.776  13.682   1.818  0.1840 -0.2358 -0.0494
 2083W        W19607  10.350   2.069  15.579  0.0725  0.0304 -0.3457
 2084W        W19608   0.061   4.458   3.542 -0.1708 -0.0029  0.2051
 2085W        W19609   0.180  17.257   4.170  0.1325 -0.0790 -0.3869
 2086W        W19610   4.081   1.759   1.042 -0.2070  0.0240  0.0928
 2087W        W19611   2.149   3.660   3.450 -0.2521 -0.1928  0.2407
 2088W        W19612   0.439  10.071   3.708  0.0368  0.3404  0.1624
 2089W        W19613   7.118  16.343   5.321  0.1553  0.0378  0.1398
 2090W        W19614   8.791  14.939  13.764  0.1932  0.4500  0.0440
 2091W        W19615   1.003   7.639   1.672 -0.1044  0.0166 -0.2225
 2092W        W19616   9.462  12.859   2.150  0.0846  0.1965 -0.1434
 2093W        W19617  10.186   8.722   3.923  0.0884 -0.4582 -0.1722
 2094W        W19618   5.335   3.990  11.573  0.3681 -0.0470 -0.0374
 2095W        W19619  13.181   4.669  15.015  0.0407  0.0053 -0.1491
 2096W        W19620  12.992   5.704   3.131 -0.2714 -0.0398  0.2816
 2097W        W19621  15.709   0.851  12.977 -0.0666  0.0147 -0.1461
 2098W        W19622   2.244  11.109  12.726  0.2262 -0.0617  0.2876
 2099W        W19623   4.078   4.142   0.249  0.0520  0.1990  0.3481
 2100W        W19624  16.497  11.509   1.405 -0.3075  0.1792  0.2374
 2101W        W19625   1.336  14.328   2.456 -0.1172  0.0339  0.0885
 2102W        W19626  12.832   4.084  10.932  0.1794  0.2891  0.0692
 2103W        W19627   5.983  17.548  12.925 -0.0456 -0.1184  0.0017
 2104W        W19628  17.158   3.413   1.787 -0.0099  0.1411  0.2877
 2105W        W19629   5.194  13.223   1.935 -0.1200  0.0467 -0.0986
 2106W        W19630  14.943  13.684   3.798  0.0266 -0.2638 -0.1894
 2107W        W19631  13.130  16.141  15.174 -0.0039  0.2641  0.2974
 2108W        W19632   6.736  16.992   0.222 -0.2660  0.1046  0.0790
 2109W        W19633  12.640   7.032  14.367 -0.2208 -0.0682  0.0578
 2110W        W19634   5.994  12.246  12.897  0.3949  0.1612 -0.1363
 2111W        W19635   3.558   0.209   1.517 -0.1371 -0.1921  0.1370
 2112W        W19636   9.619   3.507  13.557 -0.1966  0.2823 -0.0118
 2113W        W19637  13.966   5.647   0.659  0.0718 -0.2896  0.1549
 2114W        W19638   2.327  17.145   4.908  0.0337  0.2790 -0.0941
 2115W        W19639  13.786  10.610  14.222 -0.0452  0.1313 -0.0989
 2116W        W19640  11.503   4.787  14.030  0.0648  0.1244 -0.1801
 2117W        W19641   2.746   1.172   2.893  0.2109  0.3005  0.1728
 2118W        W19642   8.368  16.685   0.974 -0.1474 -0.1643 -0.5110
 2119W        W19643  15.087  10.474  15.792 -0.0649  0.2592  0.0720
 2120W        W19644   2.972   8.845  12.117 -0.2217 -0.3487  0.1460
 2121W        W19645   3.851   8.891   2.751 -0.1395  0.3726 -0.0879
 2122W        W19646   2.099  15.222  15.072  0.0018  0.0105  0.1091
 2123W        W19647  11.869   6.398   3.533 -0.1470 -0.0782 -0.2828
 2124W        W19648   8.377   4.466  12.105  0.2705 -0.0962  0.3363
 2125W        W19649  11.964  15.903  12.791  0.1802  0.0643 -0.2316
 2126W        W19650  14.234  10.188  14.684  0.1624  0.0527 -0.0399
 2127W        W19651   5.021  10.500  13.393  0.2768  0.0874  0.0644
 2128W        W19652   2.876   9.113   1.253  0.1171 -0.1795  0.3333
 2129W        W19653  15.666   2.734   4.048  0.1021  0.1087  0.1210
 2130W        W19654  15.678  14.796   0.995  0.2375  0.0693  0.1871
 2131W        W19655   3.382  10.880  14.095  0.0649  0.1198  0.0275
 2132W        W19656  12.455   7.300  12.736 -0.2875 -0.2466 -0.0087
 2133W        W19657  13.436  13.448  14.076 -0.2137  0.3449 -0.0726
 2134W        W19658  16.714   8.835  13.279  0.0893  0.0548 -0.0255
 2135W        W19659  17.707   0.612   3.911 -0.1752 -0.2181  0.1251
 2136W        W19660  12.971  11.491   3.756 -0.1527 -0.0176  0.0628
 2137W        W19661  13.533   1.740   0.367 -0.0528 -0.0403 -0.0470
 2138W        W19662  17.667   7.759  13.015 -0.0254 -0.1069  0.2006
 2139W        W19663   4.598  12.358   4.868  0.0451  0.2989  0.1335
 2140W        W19664   2.893   4.752  10.417 -0.0831  0.1341  0.0201
 2141W        W19665  10.777   6.089   3.782  0.2183  0.0919 -0.0282
 2142W        W19666  13.736  16.233   2.452  0.2005  0.0884  0.0638
 2143W        W19667   0.435  11.869   0.786  0.2075 -0.1223 -0.2550
 2144W        W19668   9.469  11.699   3.871  0.2335 -0.2012  0.1359
 2145W        W19669  14.471  10.771   3.795  0.0186  0.2259  0.2262
 2146W        W19670   7.280   9.637   2.616  0.0945  0.1004  0.1539
 2147W        W19671  15.540  16.065  15.819 -0.2380  0.1051 -0.0009
 2148W        W19672  15.884   5.555  13.618 -0.2377 -0.2915  0.1460
 2149W        W19673   3.749   3.946  15.527  0.2704  0.4142  0.0324
 2150W        W19674  10.188   8.667   1.419 -0.1360 -0.2017 -0.0033
 2151W        W19675   5.238  11.402  14.062 -0.2669 -0.1183  0.1138
 2152W        W19676   0.401   5.227   0.598 -0.0833 -0.0267  0.0806
 2153W        W19677  12.709   5.286   3.750  0.3390 -0.3530 -0.1459
 2154W        W19678  13.788  11.608  11.859 -0.1506  0.2087  0.3350
 2155W        W19679  11.178   7.206  12.103  0.0120  0.0721 -0.1552
 2156W        W19680   9.348   4.571   2.121  0.0063  0.2909  0.1373
 2157W        W19681  17.697   5.539  12.643  0.0177  0.1518 -0.0251
 2158W        W19682  15.486  12.445   5.046 -0.3045  0.0857  0.1317
 2159W        W19683   5.737   7.338   0.686 -0.2093  0.2061 -0.0369
 2160W        W19684   0.022  15.114  13.900  0.2083  0.2000  0.1312
 2161W        W19685   0.583   6.001  14.861 -0.0301  0.1586  0.2190
 2162W        W19686  17.164   3.596  14.086  0.0141 -0.2120 -0.0528
 2163W        W19687  17.884   1.936   4.014  0.1167 -0.0481 -0.2803
 2164W        W19688  10.941   9.416   4.867  0.2479  0.1925 -0.2003
 2165W        W19689   1.790   7.050  16.012 -0.1133 -0.1387  0.0463
 2166W        W19690  12.478  16.880   3.858  0.0985 -0.0640 -0.1264
 2167W        W19691   3.622  14.211  15.130  0.0006  0.0736  0.3986
 2168W        W19692   2.658   1.262  15.395  0.1822  0.3051  0.2089
 2169W        W19693  10.322  15.919  13.416  0.2873 -0.0651 -0.1118
 2170W        W19694   6.328  14.486   5.072  0.0496  0.0823 -0.0648
 2171W        W19695   2.832   4.466   0.186  0.1971 -0.1453 -0.1909
 2172W        W19696  17.677   3.202  14.941  0.0083  0.0799  0.0867
 2173W        W19697   2.512   0.616   0.707  0.3012  0.1940  0.0760
 2174W        W19698   9.988  10.386   0.627  0.0242  0.0178 -0.1966
 2175W        W19699  16.243   0.728   4.526  0.2808  0.0533  0.0377
 2176W        W19700  10.231   0.980  13.621  0.2510  0.0363 -0.2208
 2177W        W19701   0.277   8.157   2.530  0.1165  0.3221 -0.1508
 2178W        W19702  13.630   6.482  13.341  0.2583  0.0573  0.2862
 2179W        W19703  11.557   7.568  14.278 -0.2481 -0.2563 -0.0575
 2180W        W19704  15.007  12.975   1.762  0.1647  0.0199  0.1268
 2181W        W19705   9.263   8.601  14.975  0.2711  0.3599  0.3543
 2182W        W19706  13.853   8.832   1.850  0.2180 -0.0997  0.0073
 2183W        W19707  14.923   0.967  13.622  0.0726 -0.1167  0.2694
 2184W        W19708   6.254   2.325   5.072  0.2400  0.0921  0.2499
 2185W        W19709   7.632   7.793  13.739  0.2374  0.0691 -0.1980
 2186W        W19710  14.561   6.792   1.964  0.0288 -0.2131 -0.2387
 2187W        W19711   8.283   9.615  13.197  0.1122  0.0672  0.4045
 2188W        W19712   5.750  12.967  14.375 -0.0229  0.1402 -0.0315
 2189W        W19713   9.528  15.353  14.931 -0.1358  0.1317  0.0310
 2190W        W19714  16.375   8.845  14.623  0.2806  0.3902  0.1789
 2191W        W19715   3.931   0.890   5.122  0.1975 -0.2101 -0.2900
 2192W        W19716   7.673   9.293  12.594  0.1397 -0.4114 -0.0793
 2193W        W19717   4.376   0.520  13.150 -0.1713 -0.1034 -0.0627
 2194W        W19718   0.708  15.096   3.218 -0.4738 -0.0296  0.3609
 2195W        W19719   4.932  11.790   5.559 -0.2305 -0.0756  0.3139
 2196W        W19720  10.466   2.360   3.889  0.0414  0.0748 -0.2630
 2197W        W19721   9.489  14.197  14.586 -0.0252  0.2476  0.0382
 2198W        W19722  16.238  17.262   3.352  0.3575  0.1820  0.0999
 2199W        W19723   3.187   4.872  12.184  0.0050  0.0052 -0.3052
 2200W        W19724   2.313   8.636  14.283 -0.4486 -0.0475  0.0248
 2201W        W19725   7.863  14.244   2.756  0.1411 -0.1621 -0.0783
 2202W        W19726   6.764   2.321  14.658 -0.1400  0.3806 -0.0181
 2203W        W19727   8.718   1.240   2.256 -0.0022  0.1761 -0.0906
 2204W        W19728   3.660   4.202   4.450 -0.3239 -0.0430 -0.2845
 2205W        W19729   3.275   2.568   3.800 -0.2954 -0.0786  0.0585
 2206W        W19730   2.394   7.514  14.363  0.1443  0.0427  0.1464
 2207W        W19731  15.979  14.982   2.362  0.2777 -0.1154  0.2941
 2208W        W19732   3.583   2.933   0.786  0.0249  0.1354  0.3170
 2209W        W19733  16.187   0.861  14.348 -0.1268 -0.0201 -0.3397
 2210W        W19734   5.418   9.942   2.944  0.0927 -0.2555  0.2740
 2211W        W19735   3.742   7.157   1.259 -0.0812  0.0445 -0.1643
 2212W        W19736   4.847   5.257   5.545 -0.0419  0.0085  0.1953
 2213W        W19737   8.322   4.675   4.933  0.1384  0.0509 -0.0507
 2214W        W19738   6.284   4.117   0.032  0.1756  0.0509 -0.3828
 2215W        W19739  16.779   1.134  15.601  0.0528  0.0527 -0.2215
 2216W        W19740   8.931  16.967   3.065 -0.0381  0.0771 -0.1386
 2217W        W19741  12.419  14.627   5.602  0.0240  0.1085 -0.1392
 2218W        W19742   7.724  11.950  12.950  0.2807 -0.0048  0.2077
 2219W        W19743  17.693  17.545  16.111  0.1579  0.2466  0.1973
 2220W        W19744   7.460   9.169   4.151  0.2027 -0.1378  0.1200
 2221W        W19745  11.261   1.268   1.360  0.0694  0.2392  0.0375
 2222W        W19746   9.830   7.362   0.240  0.1783 -0.2052  0.1555
 2223W        W19747   6.150   9.457   4.357  0.0265 -0.0743 -0.2492
 2224W        W19748  10.298   3.803   0.884 -0.0056 -0.0296  0.0551
 2225W        W19749   1.988  12.853   0.939 -0.2146 -0.0349 -0.1480
 2226W        W19750   4.377   0.302  14.785 -0.1867  0.3427 -0.0381
 2227W        W19751   4.144   0.765  15.056  0.3050  0.1150  0.0632
 2228W        W19752   3.119   3.680   2.439  0.0012  0.2484  0.2314
 2229W        W19753   7.205  13.252  13.570 -0.2797  0.0628  0.0945
 2230W        W19754  15.186   4.448   2.136  0.0172  0.1562  0.0197
 2231W        W19755   7.934  11.896   3.335  0.2028 -0.1479 -0.4627
 2232W        W19756  12.119   8.701   2.305  0.1820 -0.0713  0.0576
 2233W        W19757   3.458  16.463   0.703 -0.1594  0.0023 -0.1080
 2234W        W19758   0.662   4.527  13.697 -0.2258 -0.0698  0.1094
 2235W        W19759  17.002   4.473  14.694  0.0874 -0.2756  0.1266
 2236W        W19760  11.878  15.927   0.210 -0.0180 -0.0740  0.4042
 2237W        W19761   1.510   6.857  13.014 -0.0834  0.3218 -0.0725
 2238W        W19762   9.042  10.498   0.589  0.1777  0.0636 -0.2752
 2239W        W19763   7.601   3.953   0.080  0.0673 -0.0707 -0.0248
 2240W        W19764   8.220  12.181   3.942  0.0067  0.0660 -0.2594
 2241W        W19765  10.101   5.818   4.665 -0.2009 -0.0646 -0.0339
 2242W        W19766  14.902  14.706  11.457 -0.0874  0.1551 -0.1579
 2243W        W19767   1.111  12.748   3.323  0.0077 -0.0797 -0.1710
 2244W        W19768  10.066  15.408  11.977 -0.0927  0.1511  0.0667
 2245W        W19769  17.793  17.668  13.867  0.0734 -0.0748 -0.1955
 2246W        W19770  13.573   3.997  14.776  0.0913  0.1995  0.0448
 2247W        W19771  14.069  17.389  12.143 -0.1279  0.1343 -0.1630
 2248W        W19772  10.334  14.374  10.467 -0.0590 -0.0580  0.1384
 2249W        W19773  10.715   7.987   4.461 -0.0003 -0.1198 -0.0154
 2250W        W19774   2.772   9.588  12.870 -0.0348 -0.2431 -0.1945
 2251W        W19775  12.192   0.655  11.054 -0.1231 -0.2870 -0.1447
 2252W        W19776   9.856  10.706  15.006  0.0735 -0.2072 -0.0635
 2253W        W19777  16.206   2.987  11.470 -0.1064  0.0205 -0.0496
 2254W        W19778   7.325   6.214   0.448  0.0378 -0.1378  0.1312
 2255W        W19779   6.282   0.453  14.076 -0.0088  0.1285  0.2667
 2256W        W19780  14.704   8.746   0.859  0.0616  0.0071  0.1554
 2257W        W19781   6.819  17.784   2.263 -0.1123 -0.0808 -0.1938
 2258W        W19782   2.138   6.770   1.103 -0.0025 -0.0602 -0.1321
 2259W        W19783   2.509   6.176  11.712 -0.0536  0.1062 -0.1807
 2260W        W19784   5.540   8.109   1.195  0.0639 -0.0407 -0.1019
 2261W        W19785   6.943  15.574   1.553 -0.0548 -0.1791 -0.0205
 2262W        W19786   7.563  17.414   3.363 -0.1077 -0.1695 -0.1801
 2263W        W19787  15.062   3.131  11.106  0.1148 -0.3785  0.0880
 2264W        W19788   1.326  17.708   3.485  0.0145 -0.2793 -0.2989
 2265W        W19789   8.524  12.464   3.675  0.2440  0.1609  0.0534
 2266W        W19790   3.901  14.640   3.519 -0.0058  0.1188 -0.4190
 2267W        W19791  12.144  13.000   5.090  0.2792 -0.1863 -0.1671
 2268W        W19792   0.368   2.475  14.470  0.2993 -0.1787  0.0246
 2269W        W19793  11.556  14.177  13.417 -0.2149  0.2378  0.2014
 2270W        W19794  11.532   3.923  12.580 -0.1194 -0.2247 -0.2227
 2271W        W19795  17.021   3.998   3.555  0.2629  0.1467  0.0485
 2272W        W19796  11.604  10.859  10.997 -0.0425 -0.1336  0.2616
 2273W        W19797  10.776  17.174  12.293  0.0119  0.1425 -0.0394
 2274W        W19798  12.135  13.030  12.765  0.1372  0.2911 -0.1672
 2275W        W19799   9.572   2.188  11.705 -0.1719 -0.1351  0.0325
 2276W        W19800  17.802  13.219  13.157 -0.2449 -0.2525  0.2303
 2277W        W19801  13.840   2.108  11.273  0.1336  0.2313  0.0651
 2278W        W19802  17.126   2.970  11.517  0.1630  0.0241 -0.1371
 2279W        W19803   7.614  14.261  11.832 -0.2409 -0.0477  0.0232
 2280W        W19804   2.834   3.885  12.415  0.2884 -0.1994  0.1600
 2281W        W19805   8.165  12.782  16.091  0.1072  0.0986 -0.0826
 2282W        W19806   7.282  13.683   1.251  0.0696  0.0376 -0.1445
 2283W        W19807   3.545  10.710   3.798  0.0235 -0.0014  0.0177
 2284W        W19808  11.467   4.327  14.916 -0.1256  0.1657  0.1088
 2285W        W19809   5.699  13.082   1.326  0.0166  0.1288  0.0883
 2286W        W19810   1.984   3.092   4.213 -0.2853 -0.0617  0.2839
 2287W        W19811  15.278   8.956  11.370 -0.0426 -0.2844 -0.2322
 2288W        W19812   3.491  12.792   1.926 -0.2024 -0.2129 -0.0279
 2289W        W19813  11.180   6.480   5.178 -0.0251  0.1636 -0.0782
 2290W        W19814  10.753   1.200  13.709 -0.0610  0.2442  0.0257
 2291W        W19815  10.853   7.262   1.031  0.2681  0.3016 -0.0107
 2292W        W19816  10.167   1.377  11.537  0.0804  0.0407 -0.3198
 2293W        W19817  16.441  14.553   3.156  0.3312 -0.1532  0.0987
 2294W        W19818   1.342   5.081  14.791  0.0133 -0.1540 -0.0614
 2295W        W19819   6.460  11.898   3.270  0.2856 -0.0894 -0.0322
 2296W        W19820  11.023  12.303   0.096  0.0849  0.1682  0.2317
 2297W        W19821  10.693   3.313   5.497 -0.0171 -0.1193 -0.0301
 2298W        W19822  11.356  12.336   5.080  0.2538  0.3593  0.2071
 2299W        W19823  15.590   2.182   2.246 -0.1242 -0.0690  0.0186
 2300W        W19824   9.305   3.409  14.377 -0.1156 -0.1901 -0.0715
 2301W        W19825   2.645   0.211   0.369  0.0178  0.1347 -0.3088
 2302W        W19826   2.479  10.261   5.193 -0.1856 -0.3083 -0.0846
 2303W        W19827   0.841  14.299  15.829  0.1351 -0.0060 -0.0162
 2304W        W19828  14.585   0.840   4.807  0.2846  0.1552 -0.0934
 2305W        W19829  16.353   0.569  11.306 -0.1047  0.1365 -0.0295
 2306W        W19830   1.035  14.253  13.920 -0.1811 -0.2109 -0.0850
 2307W        W19831   6.027   7.126   6.284 -0.1385  0.0995  0.1661
 2308W        W19832  13.843  15.854   3.646  0.0884  0.0657 -0.0109
 2309W        W19833  17.630   6.689  15.929  0.1648 -0.0106  0.0028
 2310W        W19834  11.722   4.853   1.703 -0.1326  0.1659  0.0817
 2311W        W19835   2.905   1.050   0.543 -0.1414 -0.0553 -0.1033
 2312W        W19836   2.020  15.537   0.120 -0.0702 -0.1841 -0.0949
 2313W        W19837   4.410  15.926   4.415 -0.1449  0.0254 -0.1061
 2314W        W19838  10.367  15.942  13.946 -0.1280 -0.1206  0.0833
 2315W        W19839   3.745   2.233   4.417 -0.0629 -0.1464 -0.2033
 2316W        W19840   7.542   6.343  12.755 -0.0850 -0.0434 -0.1724
 2317W        W19841   7.975  15.427   4.725 -0.2650 -0.2994  0.0475
 2318W        W19842  13.770  16.967  14.432  0.3328  0.1280 -0.1043
 2319W        W19843   2.771   4.424   4.599 -0.0526 -0.1420  0.0769
 2320W        W19844  11.148   2.303  13.939  0.1079 -0.2367 -0.3216
 2321W        W19845   2.592  11.305   3.080  0.1326  0.1646  0.1746
 2322W        W19846  17.246  10.686   5.182  0.2361  0.1065  0.1769
 2323W        W19847  13.828   4.478  14.282  0.0957 -0.0165  0.1532
 2324W        W19848   8.385   7.717   1.435  0.2450  0.3503 -0.1402
 2325W        W19849  17.228   3.240   3.877  0.0290  0.3306 -0.0925
 2326W        W19850   6.639   0.164   5.454  0.1276  0.2452  0.0906
 2327W        W19851  16.990   5.047  12.339 -0.1400  0.3757  0.1602
 2328W        W19852   6.144   6.822  15.680  0.0500 -0.1522  0.0224
 2329W        W19853  14.696   5.168  12.499 -0.1068 -0.2894 -0.2007
 2330W        W19854  17.301   7.647  15.531  0.1020 -0.1247  0.0410
 2331W        W19855  11.463   6.487   2.073  0.0525  0.2605  0.0661
 2332W        W19856  14.793   4.014   3.382 -0.0810 -0.1128  0.1680
 2333W        W19857   2.280   3.335  14.512 -0.3065 -0.0690  0.3721
 2334W        W19858  10.503   7.259  14.992 -0.3494  0.3882 -0.1767
 2335W        W19859   9.296   2.828   1.150  0.1268 -0.0932  0.0927
 2336W        W19860  16.425   1.025  13.362 -0.0072 -0.1661 -0.1184
 2337W        W19861  14.460  14.971   4.897  0.0817 -0.0772  0.0037
 2338W        W19862  10.857  14.738   0.099  0.0308  0.1848 -0.0242
 2339W        W19863  11.453  17.663   4.600 -0.0206  0.0791  0.2013
 2340W        W19864  17.808  14.534  15.350 -0.0211 -0.0111  0.0836
 2341W        W19865   6.038  10.211  11.901  0.1033  0.1370 -0.2762
 2342W        W19866   7.683  15.924   3.473  0.0326  0.0800 -0.3758
 2343W        W19867   1.531   7.169   2.744 -0.0345  0.0477 -0.0769
 2344W        W19868  13.999   2.928   4.568 -0.0881  0.0404 -0.2288
 2345W        W19869   5.050   4.047  15.734  0.2151 -0.0844  0.1865
 2346W        W19870   0.364   6.936  11.791 -0.0166  0.1147 -0.0674
 2347W        W19871  12.204   4.156  12.530 -0.0826  0.0432  0.1525
 2348W        W19872  16.260   7.369   2.617  0.0160 -0.1211 -0.0061
 2349W        W19873  16.382   9.359   2.921  0.1861 -0.0998 -0.1199
 2350W        W19874  15.376  11.260   1.453  0.1005 -0.0198  0.1909
 2351W        W19875   3.532  11.288   4.789  0.0721  0.3283  0.0792
 2352W        W19876  10.050   3.197  13.342  0.3261 -0.0865 -0.1717
 2353W        W19877  10.984   5.539   0.213 -0.1368  0.0763 -0.1526
 2354W        W19878  12.906   0.347   4.012 -0.0131  0.0251 -0.0023
 2355W        W19879  15.713   3.815   4.279 -0.0440  0.2596  0.2345
 2356W        W19880   4.729  15.658   0.830  0.2153 -0.0034  0.0510
 2357W        W19881  15.470  14.904   1.534 -0.2761  0.0557  0.1560
 2358W        W19882   9.298  10.484  12.383  0.0864  0.0032  0.0842
 2359W        W19883   1.975   2.853   2.773 -0.1961 -0.0502 -0.0599
 2360W        W19884   8.002  13.886  11.544 -0.1845 -0.0708  0.0525
 2361W        W19885   3.452  11.009  15.524 -0.0292  0.0208  0.2432
 2362W        W19886   4.961   8.598  12.433  0.0766  0.0207  0.0141
 2363W        W19887  11.055  10.412   1.490  0.1321  0.1172 -0.0885
 2364W        W19888   7.981  17.238  12.297  0.0125 -0.2171 -0.1124
 2365W        W19889  12.926  16.873   2.119 -0.1999 -0.0417  0.2753
 2366W        W19890   3.483   1.765  12.984 -0.1605  0.2530 -0.1106
 2367W        W19891  17.360   5.708  11.016  0.0862  0.1187 -0.5176
 2368W        W19892   1.847   5.533  15.950  0.1477  0.0997  0.0189
 2369W        W19893   3.840   8.040   0.573  0.1044 -0.0578 -0.1404
 2370W        W19894  13.798  15.172   0.358 -0.0754 -0.1537  0.1457
 2371W        W19895   2.249  15.084  13.703 -0.0842  0.3550  0.3367
 2372W        W19896  14.110   4.094   1.361  0.1320  0.0175  0.3304
 2373W        W19897   9.579  16.360  12.685 -0.2800  0.0311  0.0025
 2374W        W19898   3.720   8.663   1.397  0.0200 -0.0651 -0.0855
 2375W        W19899   9.900   2.041   4.367 -0.1286  0.1356 -0.0568
 2376W        W19900   6.203   2.185   1.280 -0.2077 -0.1775  0.0313
 2377W        W19901   7.247  15.849   2.413 -0.1094 -0.1409 -0.1577
 2378W        W19902   8.809   2.683   3.797  0.1000 -0.1450  0.0204
 2379W        W19903   0.570   2.554   3.860  0.1641 -0.0240 -0.2840
 2380W        W19904  15.727   6.720  14.019  0.4018  0.0102  0.1128
 2381W        W19905   1.719   7.092   0.240  0.0366 -0.3017 -0.3710
 2382W        W19906  15.913   5.358  13.083  0.1716  0.0116 -0.0714
 2383W        W19907   7.126  14.339  15.548  0.1236  0.0190  0.0839
 2384W        W19908   7.050   1.076  13.720 -0.1026 -0.1642  0.0985
 2385W        W19909   6.778  11.074   5.480  0.1944 -0.1195  0.2543
 2386W        W19910  14.914  13.306   1.084 -0.1149  0.0370 -0.1072
 2387W        W19911   8.616  17.429  12.883  0.1722 -0.2063  0.2882
 2388W        W19912   1.794  15.757  10.992 -0.0106 -0.0661  0.0139
 2389W        W19913   1.663   3.791   3.514 -0.2452  0.0607 -0.2403
 2390W        W19914  13.883   2.058   0.664  0.0896  0.0820 -0.2721
 2391W        W19915   7.836   7.053   5.616  0.0239  0.1966  0.0247
 2392W        W19916   9.557   4.086   4.231  0.0321  0.0172  0.0098
 2393W        W19917   4.513  17.718   0.125  0.0582  0.0249  0.0081
 2394W        W19918  17.744   2.406  14.740  0.1613  0.2675 -0.1135
 2395W        W19919  11.462  11.700  16.096 -0.0364  0.1360 -0.0176
 2396W        W19920   0.279  17.777  16.144 -0.3086  0.0273 -0.3002
 2397W        W19921   4.589  16.956   5.187  0.2281  0.1384 -0.0486
 2398W        W19922  15.080   5.131  15.642  0.1294 -0.3377  0.1822
 2399W        W19923  16.431  16.364   1.327 -0.3502  0.0015 -0.3605
 2400W        W19924   6.104   9.399  13.935 -0.1414 -0.0416  0.0604
 2401W        W19925   9.420   8.794   0.152 -0.2090  0.0635 -0.1903
 2402W        W19926  13.487  12.429   3.172 -0.2131  0.0137 -0.3010
 2403W        W19927  12.158   8.111   0.004 -0.0148 -0.0345 -0.1542
 2404W        W19928  16.434  10.975   2.418 -0.1332 -0.1212 -0.0526
 2405W        W19929  17.711   0.324  13.921 -0.0158 -0.1418  0.1684
 2406W        W19930   7.111   1.061   3.170  0.2469  0.1272 -0.0882
 2407W        W19931  14.601  16.471  14.344 -0.3525  0.0907  0.1518
 2408W        W19932   4.924   6.550  12.828  0.1910  0.1082 -0.0041
 2409W        W19933   0.190  16.841  16.002 -0.0761 -0.1423  0.4042
 2410W        W19934   9.448  17.052   3.287 -0.0191 -0.1568  0.2765
 2411W        W19935  16.752  10.112   4.241  0.2036  0.1643  0.2970
 2412W        W19936  17.374   4.609  16.131  0.2810 -0.3463 -0.0084
 2413W        W19937  16.838   8.167   5.160  0.2017  0.0043  0.1281
 2414W        W19938   6.726  15.229   2.742  0.0232 -0.1160 -0.3419
 2415W        W19939  14.735  15.533   3.492 -0.0233  0.4256  0.0507
 2416W        W19940   9.110  17.707   4.269 -0.0833 -0.1260  0.2012
 2417W        W19941   3.595   3.052   5.438  0.1476 -0.0162  0.1337
 2418W        W19942   2.005  15.058   6.141 -0.0728  0.0520  0.0587
 2419W        W19943   1.306   6.439   4.146 -0.0056  0.1669 -0.2994
 2420W        W19944  16.664   8.009   1.392  0.0527  0.3708  0.3296
 2421W        W19945   8.780   1.981   2.140  0.2121 -0.0912 -0.0508
 2422W        W19946  11.909   2.921  15.684  0.1709  0.0849 -0.2857
 2423W        W19947   8.668   5.073  11.621  0.0721  0.0624  0.1276
 2424W        W19948   0.069   2.459  12.535  0.0229  0.0859 -0.0547
 2425W        W19949  14.042  13.874  13.119  0.2607 -0.2988 -0.1704
 2426W        W19950   1.799   7.400  12.736  0.0776  0.0237 -0.3611
 2427W        W19951  14.000  16.393  13.021 -0.0284 -0.0781 -0.0978
 2428W        W19952   3.663   3.847   4.833 -0.1208 -0.2321  0.0388
 2429W        W19953  11.993  15.128   4.316 -0.1069  0.1234 -0.0617
 2430W        W19954  14.670   3.887  15.643 -0.0149 -0.4189 -0.0468
 2431W        W19955  14.144  17.574  16.088  0.2009  0.0535  0.1098
 2432W        W19956  13.585  11.105   4.358 -0.3283 -0.1388  0.1034
 2433W        W19957   9.263  16.716  15.510 -0.0480 -0.0093 -0.0023
 2434W        W19958   3.904   8.500   3.727 -0.1038 -0.1584  0.0750
 2435W        W19959   3.950  11.694   2.887  0.0231  0.3381  0.0473
 2436W        W19960   2.599  11.429  13.019  0.2107  0.1433 -0.0235
 2437W        W19961   4.113   0.860   1.723 -0.3611 -0.1208 -0.2049
 2438W        W19962  10.845   3.317  11.388 -0.1144  0.0606 -0.0962
 2439W        W19963   9.045  13.429   4.978 -0.0799 -0.0854 -0.1297
 2440W        W19964   8.346  11.857  13.401 -0.2038  0.2626  0.0903
 2441W        W19965   6.395   1.682   4.528  0.0941  0.0466  0.1524
 2442W        W19966   4.545   5.682  11.552 -0.2067  0.2772  0.1124
 2443W        W19967  14.974   1.373   3.469  0.3269 -0.0482  0.0757
 2444W        W19968  15.799   5.660  12.638 -0.0019 -0.0892 -0.0677
 2445W        W19969  14.041   1.837  14.587 -0.1331 -0.0310  0.3256
 2446W        W19970  11.410   4.027   1.309 -0.3306  0.1289 -0.2152
 2447W        W19971   6.305   3.545  12.706 -0.0386  0.0679  0.2884
 2448W        W19972  12.782  12.156   1.742  0.2809 -0.2254  0.0323
 2449W        W19973   4.278   6.088   4.901 -0.0380 -0.1963  0.2108
 2450W        W19974   6.819  14.658   1.433  0.2828  0.1669  0.1412
 2451W        W19975   0.966  11.185   2.461  0.0651  0.0618  0.0884
 2452W        W19976   8.191  11.926  12.871 -0.1389 -0.2929  0.0034
 2453W        W19977   4.917   9.843   2.616  0.0565  0.0525 -0.3275
 2454W        W19978  13.675  15.595   2.070  0.1222 -0.2460  0.0063
 2455W        W19979  14.790  17.114   0.306 -0.0205  0.1115  0.0072
 2456W        W19980   2.779  12.370  14.742 -0.1747  0.2586  0.1132
 2457W        W19981  15.487   6.012   1.028  0.0596 -0.1494  0.1701
 2458W        W19982  12.426   6.526   4.881 -0.0504  0.3023 -0.4317
 2459W        W19983  16.228  16.172  14.015 -0.0032  0.0770 -0.2304
 2460W        W19984  16.304   8.108  14.900  0.3844 -0.0899 -0.2555
 2461W        W19985   8.864  15.373  12.134  0.2873 -0.1056  0.0655
 2462W        W19986   3.563   6.324  15.975 -0.0067  0.0413 -0.2923
 2463W        W19987   3.509   5.367   3.029  0.2236  0.0091 -0.0152
 2464W        W19988  17.139   3.685  13.454  0.2785 -0.0296 -0.1338
 2465W        W19989  11.056  10.761  14.944  0.0440 -0.1384  0.0168
 2466W        W19990   0.666   0.106  16.084 -0.1090 -0.2343 -0.0115
 2467W        W19991  14.352  16.359   1.555 -0.0696 -0.2078  0.2176
 2468W        W19992   0.355   9.633  13.376 -0.1347 -0.0073 -0.4181
 2469W        W19993  14.074   0.310   1.955 -0.0891 -0.0246 -0.0846
 2470W        W19994   0.329   6.730   0.700 -0.0967  0.1706  0.0568
 2471W        W19995  14.304  11.054   4.651 -0.2918  0.1165  0.1634
 2472W        W19996   0.155   9.943  12.570  0.3061 -0.2576 -0.1244
 2473W        W19997   3.181  10.976   2.530 -0.0908 -0.0491 -0.0106
 2474W        W19998   8.166  16.289   2.755 -0.1398 -0.2474 -0.2171
 2475W        W19999  15.008   7.729   4.496 -0.3143 -0.1360  0.0983
 2476W        W20000   6.738  15.638   3.073  0.2523  0.1188 -0.1550
 2477W        W20001  16.556  10.607   3.296 -0.1285 -0.0607 -0.0188
 2478W        W20002   4.228  11.603  13.183  0.0643 -0.0047  0.0297
 2479W        W20003   4.628  11.226   0.251  0.1366 -0.2891 -0.1502
 2480W        W20004  13.616  13.642  12.742  0.0598  0.1897  0.4591
 2481W        W20005   2.542   2.708  13.658 -0.0531  0.2917 -0.2303
 2482W        W20006   7.617  10.069  14.062  0.0855 -0.1320  0.2510
 2483W        W20007  11.054   0.739   1.805  0.0635 -0.0627 -0.1554
 2484W        W20008  16.180  10.951   3.579 -0.0345 -0.0531  0.2829
 2485W        W20009  12.597  10.144   4.432  0.0063 -0.1304 -0.0252
 2486W        W20010   3.649   8.340   6.032  0.0849 -0.0316  0.1500
 2487W        W20011  15.819  14.396  15.811  0.0446  0.4437 -0.0373
 2488W        W20012   6.427   9.880  11.967  0.2018 -0.1200 -0.0594
 2489W        W20013   0.598  11.715  15.602  0.2135  0.0739  0.1217
 2490W        W20014   2.697   8.416  15.602  0.0986 -0.3475  0.3711
 2491W        W20015  10.876  16.319   1.571  0.0504  0.0165 -0.0188
 2492W        W20016   6.291   2.481  11.248  0.1219  0.2120 -0.1902
 2493W        W20017   7.877   8.526  14.774  0.1126  0.0335  0.2501
 2494W        W20018   1.148  10.289  14.428 -0.0150  0.0422  0.2179
 2495W        W20019  16.225  17.317  12.100  0.0872  0.1840  0.1556
 2496W        W20020  11.523  16.130  13.656  0.2234  0.0663 -0.0307
 2497W        W20021  14.018   7.795  14.201 -0.1725  0.0491 -0.1371
 2498W        W20022  13.138  11.213   1.811 -0.1610  0.0479  0.4097
 2499W        W20023  15.464  14.155   0.355 -0.0319  0.0872 -0.1517
 2500W        W20024   8.264   2.654  12.192 -0.2224  0.0398  0.0349
 2501W        W20025   6.316   0.231   4.835  0.3412 -0.1378 -0.2507
 2502W        W20026   7.513   3.011  12.840 -0.0946 -0.4059  0.3064
 2503W        W20027   3.001   5.661   4.167  0.0396 -0.2111  0.0593
 2504W        W20028  12.320   5.007   3.398  0.1128 -0.0560  0.4446
 2505W        W20029  16.277  12.255  11.387  0.0290  0.0229 -0.4428
 2506W        W20030   0.473   8.295   3.034  0.0074 -0.5382 -0.0622
 2507W        W20031   9.286   1.755   2.694  0.2833 -0.2390 -0.2511
 2508W        W20032  14.440   5.631   3.761  0.0957  0.1458 -0.2170
 2509W        W20033   9.020  14.957   2.581 -0.1335 -0.0458 -0.0341
 2510W        W20034   5.785  15.872   0.166 -0.2142  0.2282 -0.2172
 2511W        W20035  16.110   3.079  14.889 -0.4763 -0.1677 -0.0583
 2512W        W20036  11.892  12.514  12.653  0.3826  0.0716  0.1767
 2513W        W20037   7.792  10.740   0.050  0.1481  0.0598  0.0278
 2514W        W20038  17.495  12.551   1.898  0.1906  0.1373 -0.0524
 2515W        W20039   1.024  10.822   4.139 -0.0459  0.0705  0.2292
 2516W        W20040  14.077   5.666   3.363  0.0995 -0.1190  0.0821
 2517W        W20041   4.528   3.233   1.730  0.1748 -0.2118 -0.2131
 2518W        W20042  17.955   6.893   2.918 -0.0231 -0.1558  0.0267
 2519W        W20043  14.889  11.347  15.543  0.2019 -0.1797  0.2576
 2520W        W20044  15.376  14.199  16.144  0.1549 -0.0119  0.0013
 2521W        W20045   0.107  13.900   4.938 -0.0136 -0.0488 -0.1912
 2522W        W20046   0.432  16.444  12.038 -0.0648  0.0110 -0.0098
 2523W        W20047   4.792   8.128  10.767 -0.2354 -0.2501  0.0939
 2524W        W20048   3.610   0.526  12.650 -0.0410  0.0734  0.2285
 2525W        W20049   8.230  17.357  15.554  0.1858  0.2881 -0.0513
 2526W        W20050  16.963   8.395   3.837  0.2616  0.2615 -0.0446
 2527W        W20051   4.573  17.298   4.823  0.1272 -0.1117 -0.0551
 2528W        W20052  17.798   9.770  16.080  0.0245  0.2923 -0.3217
 2529W        W20053   6.664  15.215   0.842  0.0158 -0.2144 -0.0049
 2530W        W20054   3.621   2.880   0.263 -0.0520 -0.0663 -0.0037
 2531W        W20055   0.798  13.432  12.555 -0.0114 -0.0818 -0.0701
 2532W        W20056   8.412  14.289   3.533 -0.0492 -0.1291 -0.0261
 2533W        W20057  16.357   0.883   1.453  0.4159 -0.1706  0.0156
 2534W        W20058   0.484  15.157   4.996  0.1111  0.2180  0.0098
 2535W        W20059  17.012   3.636  11.491 -0.0656 -0.0141  0.2953
 2536W        W20060   7.924  12.459   3.083 -0.3661  0.1231 -0.1007
 2537W        W20061  14.944   7.870   1.568  0.2342  0.2457 -0.0681
 2538W        W20062  10.542   1.419   4.357 -0.4075  0.1079 -0.1974
 2539W        W20063   9.048   4.564  13.269  0.0405 -0.0317  0.5682
 2540W        W20064  11.659   5.212   4.892 -0.1781 -0.2305 -0.1769
 2541W        W20065   4.780   8.550  14.767 -0.4462 -0.2060 -0.1346
 2542W        W20066   9.217   6.098   2.786 -0.2906 -0.3862  0.2928
 2543W        W20067   2.640   6.429  14.538 -0.2476 -0.0650 -0.1509
 2544W        W20068  11.299   3.596  14.245  0.1326  0.0988 -0.4231
 2545W        W20069   0.758   7.390   0.232 -0.1496 -0.0778  0.6278
 2546W        W20070  17.584  16.511   2.259  0.0600 -0.0447 -0.2809
 2547W        W20071   1.316   3.057   3.616 -0.0795 -0.1698  0.2226
 2548W        W20072   2.254  10.520  15.327  0.1153 -0.1321  0.0202
 2549W        W20073  17.632   3.148   2.957 -0.3018  0.1937 -0.0911
 2550W        W20074  12.617  14.080  14.960 -0.0188  0.5662 -0.1279
 2551W        W20075  14.733   7.521  10.514 -0.3772 -0.0344 -0.1053
 2552W        W20076   2.178   7.737   2.297 -0.2885  0.1563  0.3389
 2553W        W20077  12.137  12.621  13.040 -0.3248  0.2907 -0.1684
 2554W        W20078  16.868   2.112   3.744  0.0683  0.1846  0.1503
 2555W        W20079   1.269   5.132  12.226 -0.1134  0.0165 -0.2490
 2556W        W20080   3.705  14.899  12.172 -0.1278 -0.1753  0.2472
 2557W        W20081  17.183   0.119  11.662 -0.1973  0.4900 -0.1937
 2558W        W20082  13.280  16.351  12.681 -0.1694  0.1790  0.0145
 2559W        W20083   6.941  12.359  12.549  0.3542 -0.0253  0.0726
 2560W        W20084  11.308   1.675   4.306 -0.1387  0.1810 -0.2630
 2561W        W20085   7.107   1.765   4.762 -0.3816  0.0413  0.0692
 2562W        W20086  11.433   6.686  13.233 -0.1957 -0.1411 -0.0600
 2563W        W20087  12.303   8.474   0.869 -0.0317 -0.2154 -0.2866
 2564W        W20088   0.615  17.477   1.592  0.1096  0.1461  0.0259
 2565W        W20089   4.983  15.446  12.420 -0.0783 -0.1226  0.1651
 2566W        W20090   3.133   5.527  11.500 -0.1814 -0.0554  0.2769
 2567W        W20091   7.599   4.557   3.294 -0.0759  0.4217 -0.0753
 2568W        W20092   4.049   0.655   2.241 -0.0499  0.0122 -0.0887
 2569W        W20093   1.903  11.566  12.626  0.1139  0.1440 -0.3098
 2570W        W20094  16.866   1.124   0.514 -0.2074  0.0235 -0.2667
 2571W        W20095  11.325  16.318  10.168  0.1071 -0.1945  0.1864
 2572W        W20096   1.686  14.833   2.277 -0.0736  0.0347 -0.0051
 2573W        W20097   7.681   6.559   2.671  0.0236  0.0826 -0.1063
 2574W        W20098   1.025   0.249  14.362 -0.0132  0.0687  0.2112
 2575W        W20099  16.928  14.614  14.212 -0.0893  0.3203 -0.2406
 2576W        W20100   4.616   4.225  13.241  0.2691 -0.2751 -0.0303
 2577W        W20101   1.236  14.532  16.095  0.0962  0.1355  0.1572
 2578W        W20102  11.825   7.217   4.661 -0.1255  0.0858  0.1688
 2579W        W20103  10.666  11.006   0.734  0.4271  0.1825 -0.0637
 2580W        W20104   1.364   0.858  12.207  0.1951 -0.1585 -0.0285
 2581W        W20105   9.183  17.768   3.710  0.0950  0.1747  0.0063
 2582W        W20106   9.786   5.345  12.905 -0.1519  0.2296 -0.2695
 2583W        W20107   3.452   2.372   3.218 -0.1757 -0.0302 -0.1085
 2584W        W20108   0.097  15.338  13.053 -0.3424  0.1204 -0.0697
 2585W        W20109   0.967   0.834  15.485  0.3136 -0.0085 -0.3164
 2586W        W20110   8.588   3.900  15.769 -0.1695  0.2414 -0.0593
 2587W        W20111   6.124  10.217  14.986 -0.0584 -0.1523  0.0436
 2588W        W20112   3.425  16.435   2.826 -0.0229 -0.2617 -0.1555
 2589W        W20113  12.346  11.465   0.431  0.2836  0.1270 -0.0484
 2590W        W20114   6.645  10.390  12.752  0.0234 -0.1873 -0.0523
 2591W        W20115   9.484  12.632  15.288 -0.1309  0.1276  0.0704
 2592W        W20116   4.211   4.888   3.297  0.1699 -0.2454  0.0252
 2593W        W20117  13.377   4.067  16.000  0.0900  0.1767 -0.4600
 2594W        W20118  10.644   3.805  13.625  0.2493  0.1356 -0.3751
 2595W        W20119   1.578   1.358   1.549 -0.1402  0.1091  0.3621
 2596W        W20120   8.442   6.207   2.024  0.2770 -0.0648 -0.1206
 2597W        W20121   8.981  15.538   3.057 -0.0340  0.2812 -0.1428
 2598W        W20122   4.117  14.431   1.214 -0.0883 -0.1242  0.1590
 2599W        W20123   8.957   9.180  15.587  0.1314 -0.0164  0.0556
 2600W        W20124  17.102  10.391  13.717  0.3755 -0.1277 -0.0957
 2601W        W20125   8.763   1.029  12.308 -0.1356 -0.1009  0.1498
 2602W        W20126   2.688  10.978   0.799 -0.2031  0.1220 -0.1155
 2603W        W20127  15.550   7.048   2.680 -0.3991 -0.0479 -0.0121
 2604W        W20128   6.821  16.581  12.876 -0.0892 -0.4678  0.3310
 2605W        W20129  17.914  15.300   4.645  0.0990  0.0010  0.0074
 2606W        W20130   1.224   4.046   3.943  0.2223  0.2315  0.0431
 2607W        W20131   8.727  13.915   4.229 -0.2579  0.3208  0.0755
 2608W        W20132   1.941   0.769   3.194 -0.1481 -0.0562  0.3003
 2609W        W20133   1.320   0.043  13.513 -0.0676 -0.0716  0.0304
 2610W        W20134   3.172   9.725   1.382 -0.2725  0.1158 -0.3842
 2611W        W20135   4.657   8.005  16.175  0.0919 -0.0317  0.2413
 2612W        W20136   3.849   4.871   0.569  0.0377  0.2648 -0.1738
 2613W        W20137   6.100   1.575  14.589 -0.1713 -0.0153  0.1411
 2614W        W20138   7.543  14.262  11.161  0.2132 -0.0610  0.0732
 2615W        W20139  11.501   8.942  12.340 -0.2829 -0.1208  0.3944
 2616W        W20140   7.701  16.664  12.935 -0.0303  0.1083 -0.1019
 2617W        W20141  14.415  16.411  15.786 -0.1522  0.3855  0.2009
 2618W        W20142   8.039   2.179  15.223 -0.1035 -0.0486  0.2125
 2619W        W20143  12.501  10.695  12.619 -0.0179  0.0847 -0.3235
 2620W        W20144   4.817  12.857   0.832  0.0165 -0.2421  0.3100
 2621W        W20145   3.402  14.975  14.624  0.1571 -0.0799 -0.0237
 2622W        W20146   9.650   8.958  14.883 -0.1402  0.0106 -0.1802
 2623W        W20147   5.364   9.321   1.734  0.1647 -0.0602  0.2244
 2624W        W20148   5.661   8.785  14.791 -0.1711  0.0819  0.2976
 2625W        W20149  12.835  10.083  12.032  0.0752 -0.0800 -0.0191
 2626W        W20150   2.713  17.640   0.581  0.0803  0.3371  0.1481
 2627W        W20151   5.959  14.569   4.588  0.1565 -0.3352 -0.2014
 2628W        W20152  11.109   3.098  13.702 -0.1423 -0.0596 -0.0272
 2629W        W20153  13.893   0.883   0.756  0.0590  0.0238 -0.0616
 2630W        W20154  15.777  16.972  13.592 -0.2292  0.0062 -0.4680
 2631W        W20155  12.987   0.658  10.785 -0.1887 -0.0028  0.0573
 2632W        W20156   6.665   8.555  15.488  0.3023  0.1231  0.0627
 2633W        W20157   3.417  13.971  15.530 -0.0317 -0.3108  0.0257
 2634W        W20158  17.890   4.621   2.743 -0.3824  0.0661  0.2232
 2635W        W20159  14.177  12.464  13.295 -0.1319  0.0092 -0.0008
 2636W        W20160   0.936  16.647  13.943 -0.2295 -0.0493  0.2259
 2637W        W20161   7.530  13.916   3.079  0.1517 -0.1091  0.1249
 2638W        W20162  11.613  11.874   2.929 -0.0201  0.0358 -0.2015
 2639W        W20163   9.364   1.769  11.475 -0.2278 -0.3391 -0.0818
 2640W        W20164   0.179  10.041  11.087 -0.2050  0.0496 -0.1051
 2641W        W20165   9.825  15.624   2.640 -0.0746  0.0287  0.1723
 2642W        W20166   8.602   2.539  15.135  0.2558 -0.0439 -0.0510
 2643W        W20167   3.681   4.528   2.634  0.0566 -0.0437 -0.2318
 2644W        W20168  10.992   6.894  15.236 -0.1924  0.0737  0.1867
 2645W        W20169   3.368  12.965   2.388  0.0182 -0.1860 -0.0142
 2646W        W20170  13.941   1.274  11.584  0.0401 -0.1430 -0.1114
 2647W        W20171   4.199   8.872  12.956 -0.1408  0.1261 -0.3988
 2648W        W20172   1.428   6.251   2.002  0.1228 -0.3685 -0.0352
 2649W        W20173   6.737  10.468  14.966 -0.0348  0.3458  0.3694
 2650W        W20174   8.003   4.168  12.251 -0.1099  0.0358  0.0902
 2651W        W20175  14.474  12.021   4.746 -0.2428 -0.1364  0.0130
 2652W        W20176  17.803   5.517   0.941  0.0220 -0.1689  0.1066
 2653W        W20177   9.437  16.943   5.170 -0.1216 -0.1725  0.2309
 2654W        W20178  12.876  17.208  12.793  0.1555  0.0685 -0.0789
 2655W        W20179   9.178   8.780   1.915 -0.0614  0.0864 -0.1288
 2656W        W20180  14.483   0.627  12.776 -0.0963 -0.1779  0.0304
 2657W        W20181  17.948   4.514   0.139 -0.1361 -0.0323 -0.0584
 2658W        W20182  13.627   2.699   2.712 -0.0747 -0.0940  0.1017
 2659W        W20183  11.004   1.347  15.264 -0.0295 -0.1180 -0.0442
 2660W        W20184  15.287   8.346  11.212 -0.1755 -0.1602 -0.1595
 2661W        W20185  10.708  13.940   1.900 -0.3220 -0.0739  0.1770
 2662W        W20186  12.055   6.862  14.299  0.1205  0.1685  0.1223
 2663W        W20187  11.869  10.174   0.263  0.1255  0.0740  0.4304
 2664W        W20188   2.468  14.998   1.169  0.0344  0.0648  0.0534
 2665W        W20189   4.107   1.120   2.403 -0.1104 -0.1453  0.0163
 2666W        W20190  11.487   9.425  12.648  0.0037  0.1989  0.1194
 2667W        W20191   5.812   9.907   2.315  0.0423  0.0530  0.1123
 2668W        W20192   9.583   1.900  12.586 -0.1090 -0.0357  0.0311
 2669W        W20193  13.396  15.339   0.891 -0.2325  0.1134  0.1650
 2670W        W20194   4.070   1.327  14.377 -0.0496  0.1906 -0.2689
 2671W        W20195  14.576   4.118  13.741  0.0733 -0.1696  0.2541
 2672W        W20196  11.461  10.131   1.310  0.0391 -0.2015  0.0533
 2673W        W20197   9.055  14.268   1.146  0.1211  0.1827 -0.0841
 2674W        W20198  14.686  12.861   1.419  0.0225 -0.1022  0.3580
 2675W        W20199  10.558  17.479  11.853  0.0330 -0.1440  0.3131
 2676W        W20200   6.421  13.280  11.482 -0.0895 -0.1551  0.1796
 2677W        W20201   1.991   4.771  13.258 -0.1902  0.1052 -0.0941
 2678W        W20202  13.958  15.754  11.513 -0.1190 -0.0186 -0.2540
 2679W        W20203  12.229   4.168   0.800  0.0507 -0.1350 -0.2233
 2680W        W20204  16.265   5.736  16.040  0.0087 -0.0287  0.0410
 2681W        W20205   7.893  12.043  15.445  0.1027 -0.0965 -0.2318
 2682W        W20206  13.363  12.850   4.653  0.0921  0.0063  0.0827
 2683W        W20207  13.007   7.897   3.156 -0.1243  0.1123 -0.2382
 2684W        W20208  10.149   9.678  11.530  0.0190  0.2139  0.2949
 2685W        W20209  17.848  15.900   1.854  0.1102  0.0185 -0.0758
 2686W        W20210   8.689   5.067  10.162  0.0908 -0.0472  0.0253
 2687W        W20211  12.507  12.838   4.236 -0.0747  0.0097 -0.4471
 2688W        W20212  14.344  17.230   4.781 -0.0262 -0.3591  0.0870
 2689W        W20213   8.003  15.948  15.690 -0.0033 -0.0313  0.0193
 2690W        W20214   6.581  10.654   3.007 -0.0261  0.0886  0.2032
 2691W        W20215   0.803   8.693   1.809 -0.0065 -0.1076  0.0555
 2692W        W20216  15.774  12.674   4.684 -0.0623  0.0710 -0.2811
 2693W        W20217  10.638   2.592   4.365  0.1776 -0.2081  0.2221
 2694W        W20218  12.970   7.934   1.388  0.0616 -0.3026 -0.1356
 2695W        W20219   1.639   7.267   3.633  0.0872  0.0380  0.0948
 2696W        W20220  13.270  13.752  15.597 -0.1745 -0.4026  0.0088
 2697W        W20221   6.499   6.463   4.427 -0.1046  0.0964 -0.1975
 2698W        W20222   1.547  14.390   1.349  0.1109 -0.0960  0.0632
 2699W        W20223  13.947  17.146   5.122  0.0225 -0.0254  0.0397
 2700W        W20224  11.897   0.095  13.883  0.1372 -0.2587  0.0596
 2701W        W20225  15.228  16.851  15.752  0.1176 -0.0812 -0.1579
 2702W        W20226  10.040  13.742   2.198 -0.2354  0.2990  0.1870
 2703W        W20227   0.149   1.264  15.593 -0.1557 -0.2596 -0.1496
 2704W        W20228   6.888  13.412   2.180  0.3732  0.0767 -0.4515
 2705W        W20229  14.957  15.165   4.302  0.1061  0.3324 -0.2297
 2706W        W20230  14.812  10.480  14.527 -0.0795  0.1352 -0.0270
 2707W        W20231  15.373  13.598   1.858  0.0795  0.0139  0.0722
 2708W        W20232   8.300   2.196   1.452  0.0764 -0.0419  0.0967
 2709W        W20233   8.779  12.305  15.727 -0.3197  0.0285  0.0313
 2710W        W20234   9.642   0.288   1.025  0.1714  0.2878  0.0853
 2711W        W20235  15.978   9.674   0.805  0.0631 -0.0887 -0.5418
 2712W        W20236   4.054   8.403  15.667  0.2266 -0.0858  0.1770
 2713W        W20237   5.926  14.060  14.138  0.1688 -0.1375 -0.0946
 2714W        W20238   0.854  11.788   4.288  0.2739 -0.0073  0.0532
 2715W        W20239   6.194   5.196  13.095  0.0706 -0.2129 -0.1072
 2716W        W20240  17.384   1.276   4.612  0.0718  0.3430 -0.2784
 2717W        W20241   3.581  17.198   0.376 -0.3969  0.2378 -0.1951
 2718W        W20242  15.567  14.450   1.719 -0.0175 -0.2847 -0.2586
 2719W        W20243  14.297  12.066   5.203 -0.0669  0.1696  0.2641
 2720W        W20244   3.642   9.644   1.226 -0.0200 -0.0018 -0.0460
 2721W        W20245  11.996   0.011   2.386  0.1618  0.2081  0.1585
 2722W        W20246  15.263  10.423  11.139 -0.1410 -0.1132 -0.1630
 2723W        W20247  10.416   0.874   4.056 -0.2996  0.1700  0.0558
 2724W        W20248  12.903  16.653  14.647  0.1872 -0.0196  0.2209
 2725W        W20249  10.030   8.431  15.713 -0.1212 -0.2313  0.2795
 2726W        W20250  14.321  16.973  11.278  0.2206 -0.1001  0.1113
 2727W        W20251   9.570   8.825  15.377 -0.1562 -0.1745 -0.1387
 2728W        W20252  16.703   2.156  12.367 -0.0972  0.1782 -0.2938
 2729W        W20253  11.502   7.279  12.494  0.2290 -0.1830 -0.0862
 2730W        W20254   6.404   9.023   5.263 -0.3692 -0.0480  0.2662
 2731W        W20255   6.859   3.320  14.387 -0.0968 -0.1802 -0.1358
 2732W        W20256   6.417  11.821  12.094 -0.1745  0.3226  0.3259
 2733W        W20257  17.399   7.953  11.909 -0.0383  0.0738  0.1813
 2734W        W20258   2.965   8.476  11.674  0.0661 -0.1937 -0.1008
 2735W        W20259  12.571   8.782  12.096 -0.4357 -0.4003 -0.1705
 2736W        W20260  17.327   2.826  15.537 -0.2879  0.2392 -0.2630
 2737W        W20261   6.443   3.788  14.868 -0.1041 -0.2402  0.1207
 2738W        W20262  13.165   1.454  12.006 -0.0287  0.0243 -0.2886
 2739W        W20263  16.488   1.081  11.324  0.0799 -0.1515 -0.4647
 2740W        W20264   0.363  13.863   1.456  0.1022 -0.0694 -0.2326
 2741W        W20265   4.748   5.724  12.441  0.0705  0.3666  0.0073
 2742W        W20266  15.273  16.090   2.910  0.0422  0.2263 -0.0942
 2743W        W20267  10.354  12.607  13.798 -0.1879 -0.1147 -0.0134
 2744W        W20268   7.646  10.511   1.297  0.1580  0.1387 -0.2102
 2745W        W20269  16.273  10.782  13.016  0.0779 -0.0605 -0.2172
 2746W        W20270   4.034   3.844  13.859 -0.1724 -0.1763  0.0535
 2747W        W20271  10.470   4.425   2.139 -0.0254  0.0706 -0.2178
 2748W        W20272  17.806   4.313  14.061 -0.0841 -0.0818 -0.1366
 2749W        W20273   2.243  16.652   2.361  0.0184  0.1780  0.2548
 2750W        W20274   4.213   3.696   4.121  0.1430 -0.0736 -0.2662
 2751W        W20275  16.927   7.025  16.156 -0.0130  0.1203  0.0777
 2752W        W20276  11.270   9.692  13.676  0.3305 -0.0086 -0.2433
 2753W        W20277   0.867   5.644   1.264 -0.0578  0.0034  0.0051
 2754W        W20278   0.226   3.841   6.110  0.1718  0.1865  0.2343
 2755W        W20279   9.868   1.297   0.045  0.1903 -0.1560  0.1084
 2756W        W20280   9.579  12.928  13.835  0.2328  0.0568  0.2142
 2757W        W20281  11.713   3.731  13.338 -0.0147  0.0540 -0.0954
 2758W        W20282  10.787  16.829   1.804 -0.0814  0.1721 -0.3352
 2759W        W20283  14.899   2.122   2.900  0.1970 -0.0485  0.0239
 2760W        W20284  12.470  15.158  11.424  0.0890  0.0736  0.0182
 2761W        W20285   3.230  16.261   4.804  0.2915  0.1192 -0.2003
 2762W        W20286  11.196  17.670  14.515  0.0410 -0.2891 -0.1516
 2763W        W20287  16.919   8.970  13.758 -0.0895  0.1475 -0.2604
 2764W        W20288   7.822  12.458   5.185  0.1622 -0.0047  0.1110
 2765W        W20289  17.791   9.169   1.628  0.1448 -0.2097 -0.0608
 2766W        W20290  14.653   1.957  12.851  0.0653  0.3774 -0.0050
 2767W        W20291  11.489   3.142   0.756 -0.1639  0.0599 -0.1039
 2768W        W20292   0.102   2.850  14.710  0.0859  0.0111 -0.1378
 2769W        W20293  17.182  10.363  11.322 -0.2675 -0.0744  0.1153
 2770W        W20294  16.100   0.442   0.528 -0.1051 -0.1682 -0.2470
 2771W        W20295   4.105  17.447   3.202  0.0703 -0.0872  0.0537
 2772W        W20296   6.277  15.826  12.927  0.1675  0.1423  0.0554
 2773W        W20297   9.893  12.625   4.514  0.0216  0.0563 -0.0341
 2774W        W20298   9.130   0.355   0.931  0.2895  0.3082 -0.1489
 2775W        W20299  14.199   1.977   1.057 -0.0476  0.2322  0.1205
 2776W        W20300  11.500   4.777  11.170 -0.1255 -0.0667 -0.0073
 2777W        W20301  13.992  12.016  13.656  0.1333 -0.0394 -0.0718
 2778W        W20302   7.928  10.240   3.705 -0.0628  0.4118 -0.0366
 2779W        W20303   3.584   3.117   1.263  0.0786  0.3622 -0.2956
 2780W        W20304  14.104   3.117  14.722  0.1379  0.0640 -0.1022
 2781W        W20305  11.844  12.665   1.145 -0.1203  0.0160 -0.2981
 2782W        W20306   0.700  13.271  15.878  0.0403 -0.0511  0.0026
 2783W        W20307  17.245  17.326   2.301 -0.1623 -0.2280  0.0253
 2784W        W20308  17.690   7.904  15.631 -0.0753  0.0163 -0.1530
 2785W        W20309  13.280   4.237   5.133  0.1864 -0.1221  0.0374
 2786W        W20310   5.174  10.554   3.185  0.1662  0.1883  0.1875
 2787W        W20311   4.208  11.157   3.455 -0.3567 -0.1366  0.0573
 2788W        W20312   5.346   0.238  13.840  0.1925  0.1517 -0.1513
 2789W        W20313   6.445   5.785   1.487  0.1306 -0.0851  0.0425
 2790W        W20314   3.854   4.613  12.677  0.2820 -0.2796 -0.2179
 2791W        W20315  16.154   0.170  11.619 -0.3285  0.0998  0.1316
 2792W        W20316   8.380  16.921  12.048  0.1143  0.3160  0.0979
 2793W        W20317  17.182  10.493   2.844 -0.3024  0.1337 -0.0464
 2794W        W20318  13.209   2.999   3.477 -0.2983 -0.0475 -0.2093
 2795W        W20319   9.343  10.042   3.246  0.2722  0.1525 -0.1230
 2796W        W20320  17.894   2.952  15.641  0.1825  0.2110  0.0586
 2797W        W20321   3.996   7.376   4.541 -0.1486  0.0621 -0.0311
 2798W        W20322  11.622   1.127  13.810  0.1108 -0.2696  0.1996
 2799W        W20323   1.526   1.682  13.844  0.2018 -0.0134  0.0437
 2800W        W20324  14.115   2.024  12.444  0.2395 -0.1168 -0.1398
 2801W        W20325  10.862   7.071   0.570  0.1921 -0.1337 -0.2033
 2802W        W20326   3.679  11.321  15.957 -0.3230 -0.1102  0.2586
 2803W        W20327  11.913   7.974  13.037 -0.0057  0.0551 -0.1424
 2804W        W20328  15.998  16.261   3.563 -0.0767 -0.1808 -0.3401
 2805W        W20329   4.218  12.177  14.941  0.0273 -0.0231  0.3977
 2806W        W20330  11.103  13.540   3.419  0.0257 -0.0672 -0.2015
 2807W        W20331  12.261   5.673   1.878  0.2434 -0.1662 -0.0428
 2808W        W20332  16.900   1.022   2.247  0.5560 -0.0898 -0.0712
 2809W        W20333   1.060   3.228   2.856 -0.1610 -0.1126 -0.0276
 2810W        W20334  17.499  11.538   4.894 -0.0154 -0.0305 -0.0443
 2811W        W20335   5.569  12.688   5.038  0.2134 -0.0819  0.2172
 2812W        W20336   6.116  13.809   2.788 -0.0390  0.1002  0.1406
 2813W        W20337  10.552  16.850  12.581 -0.1326  0.0674 -0.2956
 2814W        W20338   2.871   2.959   0.739 -0.0209  0.0761  0.3448
 2815W        W20339   3.607   1.864  11.503 -0.0180  0.2288 -0.1803
 2816W        W20340  12.918   1.190   3.922 -0.0534  0.0301  0.1759
 2817W        W20341   7.368   8.215   1.223  0.0931  0.0788 -0.2894
 2818W        W20342   3.506  13.488  16.023  0.0843  0.0585  0.2020
 2819W        W20343   4.130   8.914  15.573  0.1149 -0.2243 -0.4136
 2820W        W20344  11.794  13.309  15.325 -0.2201  0.0120  0.2041
 2821W        W20345  13.711  16.362   3.705 -0.1265  0.0230 -0.3201
 2822W        W20346   0.431   0.370  15.013 -0.3033  0.1499  0.0197
 2823W        W20347   4.102   0.021   4.076  0.1248  0.0779 -0.0455
 2824W        W20348  16.562   1.880   2.596  0.0936 -0.0082  0.0182
 2825W        W20349   9.071   8.843  12.094 -0.2185 -0.1212 -0.0162
 2826W        W20350   8.745   0.478   1.753 -0.0850  0.1340 -0.2410
 2827W        W20351   0.575  15.672  13.925 -0.0130  0.2081 -0.1331
 2828W        W20352   1.186  17.807   1.665 -0.2224  0.1127 -0.0330
 2829W        W20353   4.290  14.385   3.369  0.1362  0.2504 -0.1210
 2830W        W20354   5.698   4.044   3.741  0.1538  0.0830 -0.0240
 2831W        W20355  12.797   6.025  13.508  0.0153  0.0140 -0.2759
 2832W        W20356   7.760  15.212  12.964 -0.0377  0.2933  0.0117
 2833W        W20357  17.455  13.652  12.736  0.0817  0.0116  0.1273
 2834W        W20358   6.450   1.432  13.225 -0.0847 -0.1648  0.0849
 2835W        W20359  13.405   6.995   2.415  0.1989  0.1800  0.1421
 2836W        W20360   0.856   2.659   2.041 -0.1691 -0.1863  0.3005
 2837W        W20361   3.231  12.329  16.199 -0.0568 -0.0578 -0.0169
 2838W        W20362   2.962   7.912   1.110 -0.4387 -0.0738  0.1619
 2839W        W20363   7.959  11.601  13.306  0.0392 -0.2471 -0.0198
 2840W        W20364   1.438  16.544  15.206 -0.1050  0.0147  0.4196
 2841W        W20365   7.895  11.636  12.540 -0.1973 -0.0021  0.1710
 2842W        W20366  16.298  13.887  15.887 -0.1912 -0.2390 -0.1731
 2843W        W20367   8.710  15.215   2.057 -0.0554 -0.1005 -0.0643
 2844W        W20368   2.282   6.285   1.436 -0.1677 -0.3506 -0.0265
 2845W        W20369   8.639   8.271   0.631  0.2440 -0.0404  0.0458
 2846W        W20370   2.109  12.752  12.594 -0.1876  0.0285 -0.3401
 2847W        W20371   3.084  15.374   2.560 -0.2190 -0.0152 -0.0704
 2848W        W20372   1.594   0.462   3.845 -0.0199 -0.0560 -0.3284
 2849W        W20373  15.848   9.139  12.380 -0.0040 -0.5949  0.1778
 2850W        W20374  10.256   6.744  16.158 -0.0496 -0.0034 -0.3768
 2851W        W20375  16.774  14.451  11.362  0.2338 -0.0514 -0.1977
 2852W        W20376  13.084   2.359  13.723 -0.2006  0.0096  0.1184
 2853W        W20377   3.473   5.183  13.741  0.2496 -0.0087 -0.0093
 2854W        W20378   3.014   3.866   3.829 -0.1409 -0.0631  0.1883
 2855W        W20379   6.413  11.697  13.368  0.1149 -0.0084  0.1658
 2856W        W20380   1.093  16.057   4.732 -0.0527  0.2934  0.0014
 2857W        W20381  11.630  10.279  16.097 -0.2687 -0.1093  0.0127
 2858W        W20382  11.479   4.436  10.339  0.0249 -0.1607  0.2013
 2859W        W20383  11.363  11.564  12.394 -0.2197 -0.0296  0.0509
 2860W        W20384   0.882   5.409   0.772 -0.1989  0.1314  0.1330
 2861W        W20385   7.888   9.160  13.457 -0.0700  0.1170 -0.0986
 2862W        W20386   4.545   0.405   5.081  0.2069  0.2912  0.0245
 2863W        W20387   9.722   5.753  14.587 -0.0148 -0.2589 -0.1136
 2864W        W20388  13.931   1.825   1.403 -0.1052  0.3769  0.0061
 2865W        W20389   9.403   3.476   3.186  0.0761  0.0249 -0.0086
 2866W        W20390   5.087   2.875   4.551 -0.1747 -0.1539  0.1622
 2867W        W20391   3.851   4.054   3.425 -0.0174 -0.0797  0.2506
 2868W        W20392  17.284  11.215  15.303 -0.0772  0.1832 -0.0265
 2869W        W20393  17.210   1.438   2.412  0.1542  0.2707  0.0834
 2870W        W20394   7.733   4.183  12.640  0.2156 -0.0777  0.3024
 2871W        W20395   9.689  14.632  14.843  0.2105  0.0479  0.2435
 2872W        W20396  14.095  14.707  15.404 -0.0107 -0.2912  0.1545
 2873W        W20397  13.689   3.576  10.960  0.1360 -0.1635 -0.0482
 2874W        W20398   0.535  15.219  12.552 -0.1720 -0.0465  0.0290
 2875W        W20399  15.562   8.451  15.301 -0.1946  0.0743  0.0373
 2876W        W20400   1.887  13.148   2.850  0.1581 -0.0274  0.1009
 2877W        W20401  10.023  15.725   2.143 -0.0332 -0.1219 -0.1685
 2878W        W20402   0.932   1.473   2.169  0.0209 -0.0170 -0.1044
 2879W        W20403  12.713   2.390  11.746  0.1078 -0.2408  0.2090
 2880W        W20404  13.119   0.201  11.660 -0.1327 -0.4763  0.3442
 2881W        W20405   5.102  10.476   5.057  0.0928 -0.1150  0.0233
 2882W        W20406  17.841  12.260  14.669 -0.0428 -0.0587 -0.3369
 2883W        W20407  13.355  14.363  12.430 -0.3406 -0.1437 -0.2099
 2884W        W20408  14.633  13.610   2.516 -0.4108 -0.0696  0.0586
 2885W        W20409   7.226   2.649  13.169  0.1041 -0.1055  0.0888
 2886W        W20410   8.564   9.579   3.391 -0.1978  0.0929  0.2089
 2887W        W20411  10.200   4.638  15.725 -0.4602  0.0812 -0.2911
 2888W        W20412  12.826   7.450  15.938 -0.2286  0.2365  0.2071
 2889W        W20413  14.527   8.576  13.835  0.1252 -0.0753 -0.0165
 2890W        W20414  14.516   2.015  13.380 -0.2051 -0.1425  0.1215
 2891W        W20415   2.390  16.821   1.378 -0.1020 -0.0133 -0.0752
 2892W        W20416   9.180   6.724   0.293  0.1675 -0.1510  0.1904
 2893W        W20417   9.163   5.831  13.306  0.1005 -0.3611 -0.0277
 2894W        W20418   6.029   6.229  14.104 -0.2420 -0.1223  0.3453
 2895W        W20419  10.849  17.378  13.632 -0.0271  0.0706  0.1356
 2896W        W20420   1.573  16.764  12.996 -0.1314  0.0708 -0.0033
 2897W        W20421  12.186   1.648  14.385 -0.0520  0.0690  0.1469
 2898W        W20422  12.585  17.037  15.989 -0.1038  0.2621  0.0083
 2899W        W20423  10.493   2.034   4.395 -0.4115 -0.0877 -0.0599
 2900W        W20424   6.573   5.814   3.786  0.1033 -0.1517  0.0947
 2901W        W20425   4.170   7.080   1.876  0.2995 -0.2030 -0.1731
 2902W        W20426   1.616   5.765  11.292  0.1296 -0.1422  0.2339
 2903W        W20427  10.117   4.627   4.295  0.5480 -0.0733  0.0167
 2904W        W20428  14.133  13.503   5.947 -0.0133 -0.1210 -0.1705
 2905W        W20429  13.204  12.498  13.567  0.0372 -0.0695 -0.0922
 2906W        W20430   5.891  12.100   5.538  0.1802  0.1386 -0.1147
 2907W        W20431  11.303   4.099   0.859 -0.1440  0.1823 -0.0334
 2908W        W20432  13.993  15.964   1.141  0.1962 -0.0484  0.0094
 2909W        W20433   1.734   0.279   5.193  0.0326  0.0913 -0.3109
 2910W        W20434   6.204   5.438  16.196 -0.1532 -0.1366 -0.3275
 2911W        W20435  10.895  16.378  14.351  0.0713  0.0071  0.0363
 2912W        W20436  15.649  14.358   1.225 -0.1632  0.1789 -0.3582
 2913W        W20437   0.465   1.709   0.927  0.0094  0.0171  0.0357
 2914W        W20438  17.674   5.481   4.975  0.0490  0.0900  0.2700
 2915W        W20439  16.498  11.301   3.346 -0.0674  0.0426 -0.0573
 2916W        W20440   2.704   8.577   2.929  0.0400  0.0910  0.1514
 2917W        W20441   3.459  15.842   3.922 -0.5499  0.0120  0.3449
 2918W        W20442  11.585  17.448  12.139  0.0554  0.0617  0.0277
 2919W        W20443  14.043   0.704   2.931  0.0475 -0.0438 -0.3392
 2920W        W20444  13.756  13.292  13.720  0.3046 -0.1310  0.1167
 2921W        W20445  15.112   7.407  11.955 -0.1192  0.1343  0.1691
 2922W        W20446   4.792   2.350   2.689 -0.1803 -0.1776 -0.1024
 2923W        W20447   2.040   1.358  16.127 -0.4449 -0.2506  0.0572
 2924W        W20448   9.885   6.453  10.678 -0.3829 -0.2597 -0.2813
 2925W        W20449   1.241  17.431   3.069  0.0519  0.0712  0.4064
 2926W        W20450  16.924  16.295   2.979  0.2082  0.0213 -0.0134
 2927W        W20451  12.098  14.459   6.068  0.1431  0.1291  0.0146
 2928W        W20452  17.708  12.671  11.739  0.0901  0.1680  0.0025
 2929W        W20453  16.789   6.879  15.671  0.0354  0.0477 -0.0269
 2930W        W20454  12.367   5.004  13.077  0.3161 -0.2282 -0.3522
 2931W        W20455  10.384   2.722   4.828  0.0142 -0.1804 -0.0039
 2932W        W20456   2.085   0.712   1.025  0.3488  0.1002  0.1958
 2933W        W20457   4.467   6.575   0.960  0.0741 -0.0066 -0.1154
 2934W        W20458  16.158  11.271  11.014  0.2590  0.3106 -0.0261
 2935W        W20459  16.388   6.733  15.931  0.2812  0.2617  0.0128
 2936W        W20460   1.176   4.032   2.675  0.0120  0.2466  0.0228
 2937W        W20461  13.704  10.173  11.221  0.4126  0.5191 -0.0654
 2938W        W20462  13.154  17.951  12.446 -0.0400 -0.1518 -0.0786
 2939W        W20463   2.549   8.844   2.484 -0.2240 -0.0820 -0.0767
 2940W        W20464   0.479   8.621  14.729  0.2155 -0.0578  0.1272
 2941W        W20465  12.804   1.041   2.457  0.0766 -0.3112  0.0264
 2942W        W20466   5.290   0.510  14.349 -0.1740  0.0485 -0.3931
 2943W        W20467   5.570   6.553  11.771  0.1719  0.1132  0.2609
 2944W        W20468   2.024   5.789   1.262 -0.0345  0.0726 -0.0583
 2945W        W20469   0.038  15.932   5.752 -0.2098 -0.2248 -0.2092
 2946W        W20470   3.900   3.493  13.241 -0.0755 -0.0695 -0.0656
 2947W        W20471  15.067   8.064   3.023  0.1503  0.0332 -0.0770
 2948W        W20472  12.168  15.925  14.667 -0.1495 -0.0798  0.1026
 2949W        W20473   3.600   2.250  12.889 -0.2249 -0.0474  0.0877
 2950W        W20474   9.760   3.714  15.862 -0.0805  0.1456  0.1611
 2951W        W20475   2.937   5.495  11.975 -0.2732  0.0581 -0.0298
 2952W        W20476   8.901   8.925   1.089 -0.0481 -0.0904  0.1519
 2953W        W20477   6.396  14.602   4.006 -0.1145 -0.0801 -0.0455
 2954W        W20478   1.634  10.179  14.494  0.0307 -0.0839  0.1018
 2955W        W20479   2.521  15.209   0.674 -0.1591 -0.2242  0.3510
 2956W        W20480   6.635   8.759   3.201  0.0492 -0.2600 -0.2254
 2957W        W20481  15.056   8.389   3.401  0.1502 -0.1061 -0.4384
 2958W        W20482   4.238   0.681  13.667 -0.0381 -0.2954 -0.2940
 2959W        W20483   7.514   0.399   3.508  0.0888  0.1711 -0.0564
 2960W        W20484  10.090  14.411   3.351 -0.1365 -0.0859 -0.0582
 2961W        W20485  16.364  10.641  12.175  0.1102 -0.1784  0.0513
 2962W        W20486   3.375  17.765  12.732 -0.1112  0.1684 -0.1966
 2963W        W20487  14.752   0.272  14.321  0.0156 -0.4474  0.0643
 2964W        W20488   1.400  12.521  15.258  0.0253  0.1108  0.0876
 2965W        W20489   3.670   3.051  13.288 -0.2809  0.2296  0.2078
 2966W        W20490   2.393   7.702   3.030 -0.0486  0.1609 -0.0254
 2967W        W20491   8.319   0.510  13.018 -0.1198 -0.2482 -0.0894
 2968W        W20492  15.371   4.276  13.657 -0.1904  0.2503 -0.1845
 2969W        W20493  12.494  10.467   0.474 -0.1081 -0.2677 -0.1579
 2970W        W20494   7.673  10.094  14.982  0.1649 -0.3247  0.1014
 2971W        W20495  17.190  15.330  10.523 -0.2027 -0.1444 -0.1278
 2972W        W20496  16.111  11.470   4.247  0.0106 -0.1550  0.1168
 2973W        W20497  13.515  11.875   1.952 -0.2831 -0.5627  0.0369
 2974W        W20498  13.312  12.701  14.439 -0.1328  0.4747  0.1711
 2975W        W20499  16.021   0.673  12.119  0.1793  0.0408 -0.0265
 2976W        W20500  10.107   7.598   3.427 -0.2756 -0.0668 -0.1064
 2977W        W20501   0.381  11.073  12.018  0.2459  0.1382 -0.1648
 2978W        W20502  12.681   0.972  12.731 -0.0491  0.0740 -0.2687
 2979W        W20503   2.655  13.975   5.190 -0.0970  0.0873  0.0641
 2980W        W20504   0.423  12.993  15.621 -0.0807 -0.0406  0.1672
 2981W        W20505  10.216  14.626  14.661 -0.0467  0.2413  0.2203
 2982W        W20506   2.310  10.439   0.328  0.1559  0.1090  0.0901
 2983W        W20507   0.519  16.302   1.091  0.0051 -0.2098 -0.2057
 2984W        W20508   4.660   9.677   4.127  0.0242 -0.0613 -0.1767
 2985W        W20509   2.040   3.432  12.279  0.0473  0.2448  0.1735
 2986W        W20510   4.202  16.555  14.266  0.1002  0.0525  0.1124
 2987W        W20511   4.486   4.645   3.815  0.2957  0.0730  0.1698
 2988W        W20512   6.230  15.432   3.063 -0.2002  0.2569 -0.1216
 2989W        W20513   9.408   6.102  14.714 -0.1532 -0.0848  0.4148
 2990W        W20514  13.267   8.468  11.644  0.3309  0.2091 -0.1959
 2991W        W20515  11.248   6.380  12.906  0.0184  0.1661 -0.0717
 2992W        W20516  17.375  14.376  15.122 -0.2134  0.1299 -0.2375
 2993W        W20517  12.947   0.452  13.859 -0.1497 -0.0515 -0.2089
 2994W        W20518  15.975   2.321   4.709  0.0844  0.1449 -0.2744
 2995W        W20519  16.851  13.721   3.022  0.1534  0.0147  0.1731
 2996W        W20520   6.244  16.538  11.833  0.0449  0.0355  0.1169
 2997W        W20521   6.366   5.049   0.239 -0.2489 -0.0951 -0.0089
 2998W        W20522   4.430   4.670  13.017  0.3157  0.0615  0.1216
 2999W        W20523   2.808  16.029   0.103 -0.2138  0.2336  0.0510
 3000W        W20524  12.745   8.649  15.086 -0.2892 -0.1200  0.0221
 3001W        W20525  15.521   0.290   1.467  0.3162  0.0544 -0.2650
 3002W        W20526  16.790   5.748  13.301 -0.1897  0.0699 -0.2367
 3003W        W20527   1.440  15.925  15.798  0.3008  0.0346  0.2367
 3004W        W20528   7.678  16.917   3.018  0.1951  0.0348 -0.0126
 3005W        W20529  11.215  16.235  13.291 -0.1463  0.1021 -0.1838
 3006W        W20530  10.829  13.597   1.083  0.1467  0.0974  0.1403
 3007W        W20531  14.451   6.149   2.766 -0.2184  0.0295  0.1834
 3008W        W20532   9.072   5.909  12.577 -0.1602 -0.0923 -0.3787
 3009W        W20533  16.623  17.639   3.305  0.0632 -0.2088  0.0851
 3010W        W20534  14.576  11.275  13.503 -0.0766  0.2594  0.0392
 3011W        W20535   2.255   1.990   2.800  0.1238 -0.0461 -0.1816
 3012W        W20536  16.553   9.590  13.309 -0.0416  0.0432 -0.0314
 3013W        W20537  14.570   3.933   3.916  0.1985  0.0560  0.1325
 3014W        W20538  10.730   0.738  11.413  0.1036  0.0209  0.0438
 3015W        W20539   6.000  13.581   0.294 -0.0734 -0.0635 -0.1432
 3016W        W20540  14.930  12.273   2.567 -0.0134 -0.0665 -0.0800
 3017W        W20541   9.319   9.957   4.564 -0.3546 -0.0580  0.1426
 3018W        W20542   4.886   4.505   1.195  0.0290  0.0496  0.0907
 3019W        W20543  15.994   9.921  14.869 -0.1384 -0.0298  0.3411
 3020W        W20544  12.433  16.014  15.671  0.1596 -0.0939 -0.0136
 3021W        W20545   8.316  16.982  12.852 -0.0897 -0.0401  0.1339
 3022W        W20546   2.119  15.086   3.375  0.0722 -0.0096  0.1087
 3023W        W20547   0.694  13.426  13.586  0.4197  0.1322  0.1931
 3024W        W20548   5.286  13.399  13.259  0.0899  0.1129  0.0510
 3025W        W20549  15.669  11.967  14.793 -0.0037  0.0115  0.2643
 3026W        W20550  12.061   4.529  12.234  0.2252 -0.2081 -0.4714
 3027W        W20551   1.981   6.996  12.980 -0.2930 -0.0804  0.0718
 3028W        W20552   8.809   4.883  10.617 -0.1022 -0.1325  0.0265
 3029W        W20553   8.874   5.137   1.996  0.1428 -0.2013  0.2601
 3030W        W20554  10.625  15.532   4.297 -0.0762  0.0712 -0.1565
 3031W        W20555   8.707   6.327   1.515  0.1661  0.1597 -0.0096
 3032W        W20556  13.893   5.547  11.799  0.0065  0.3454  0.0395
 3033W        W20557   9.743  11.913   2.129 -0.0565  0.0635  0.1874
 3034W        W20558   0.999  17.793  12.390  0.1772  0.1922  0.3676
 3035W        W20559   5.767  16.963   3.373  0.0883  0.0183  0.1119
 3036W        W20560  11.491   2.900  11.956 -0.0476 -0.2494 -0.1603
 3037W        W20561   1.196   0.615  11.683  0.1888  0.2334 -0.2269
 3038W        W20562  14.716   2.046  11.485 -0.0933  0.1374  0.1770
 3039W        W20563  14.191   3.832  15.487 -0.2575  0.1658  0.1709
 3040W        W20564   0.855   9.202   4.313  0.1126 -0.0010  0.4156
 3041W        W20565   6.537   4.369  11.950 -0.0391 -0.2453 -0.5185
 3042W        W20566  17.707  13.240   0.286 -0.1562 -0.1350 -0.0438
 3043W        W20567   0.878  12.318  14.090  0.0464  0.0212 -0.3869
 3044W        W20568   4.629   6.464  14.132 -0.0033  0.0919 -0.2208
 3045W        W20569   5.323  15.952   4.736  0.2497  0.0479 -0.2682
 3046W        W20570  16.258  14.591   2.449 -0.0434 -0.0759 -0.0814
 3047W        W20571   4.031   2.939   0.542 -0.0122  0.1706  0.0596
 3048W        W20572   8.053  13.908  15.505 -0.0705  0.0333  0.3543
 3049W        W20573  17.950   3.883   2.060  0.4112  0.0523 -0.1090
 3050W        W20574  14.533  14.342   1.154 -0.0051  0.0384 -0.1111
 3051W        W20575   7.143   0.468   4.573 -0.1337 -0.1127 -0.0853
 3052W        W20576   2.848  16.619   2.838 -0.3551 -0.0081 -0.1564
 3053W        W20577  12.631   3.692   0.229 -0.0695 -0.2461  0.0135
 3054W        W20578   5.454  13.972  13.921 -0.1933  0.2449  0.0557
 3055W        W20579  11.119  15.667  12.593  0.1392 -0.2779 -0.0762
 3056W        W20580   3.189   1.641   1.503  0.0174 -0.0308  0.0061
 3057W        W20581   4.383  14.852  14.888 -0.1076 -0.3791  0.0261
 3058W        W20582   8.106   0.507   0.521 -0.0691  0.0732  0.2349
 3059W        W20583   9.479   6.745  11.438 -0.3520  0.0722 -0.0759
 3060W        W20584   5.524   6.192  13.970  0.1411  0.1759  0.0602
 3061W        W20585  15.089   7.162   2.637 -0.2187  0.2405  0.0543
 3062W        W20586   6.892   6.147   4.488 -0.4426 -0.0912 -0.0086
 3063W        W20587   4.520  12.983  12.792  0.1099 -0.0688  0.0100
 3064W        W20588  13.242   6.665  14.795 -0.1661 -0.0076  0.0502
 3065W        W20589  14.148  17.927  15.731  0.0656  0.1073  0.1027
 3066W        W20590   4.742  12.803   3.851 -0.0193  0.0661  0.3309
 3067W        W20591   7.259  16.647   3.050  0.0227 -0.0125  0.1742
 3068W        W20592   7.856   1.756   2.562 -0.0014 -0.1167 -0.1100
 3069W        W20593  13.689   9.310   0.271 -0.0143 -0.3205  0.0442
 3070W        W20594   8.064   3.514   2.556 -0.1349 -0.1922 -0.1684
 3071W        W20595   3.541   3.119  14.066  0.0696 -0.0307  0.0651
 3072W        W20596   6.630   5.908   0.372 -0.1360 -0.1170  0.1161
 3073W        W20597  15.468   1.933   1.010  0.0117  0.0603  0.2194
 3074W        W20598   2.273  13.174   4.906 -0.2450 -0.0497  0.0308
 3075W        W20599   7.402  14.658   3.458 -0.2168 -0.1253  0.1006
 3076W        W20600   1.792   5.300   4.151  0.1020  0.1901  0.0730
 3077W        W20601  16.157  12.098   1.944  0.1768  0.0392  0.1012
 3078W        W20602   0.070   7.396   2.781 -0.2072 -0.2734 -0.1315
 3079W        W20603   1.117  14.260   2.024 -0.2081  0.0379 -0.3454
 3080W        W20604   7.501   5.760   0.729  0.1768 -0.0494 -0.0190
 3081W        W20605   0.304   0.403   3.542  0.0480 -0.0932  0.0059
 3082W        W20606   1.094   1.867   0.867  0.1345 -0.1052 -0.1301
 3083W        W20607   5.886   3.510  14.130 -0.1208 -0.2686 -0.0015
 3084W        W20608   1.062   9.188   4.956 -0.1215  0.1054 -0.0393
 3085W        W20609   6.958   0.179  14.803  0.0352  0.0414 -0.0315
 3086W        W20610   3.441   4.650  11.803  0.2983 -0.0981  0.1332
 3087W        W20611  12.716   6.142  15.915  0.0362  0.1712  0.2018
 3088W        W20612  17.092   6.010   0.077  0.0832 -0.4701 -0.2397
 3089W        W20613   8.769  13.239   0.519  0.3108  0.0434  0.0275
 3090W        W20614   6.629   5.503  11.402  0.3487 -0.0446 -0.3430
 3091W        W20615   2.711   7.459   4.557 -0.3023  0.1232  0.0536
 3092W        W20616   3.534   7.077  14.725 -0.0768  0.0306  0.1798
 3093W        W20617  10.634  15.284   3.069  0.1119  0.0734  0.0097
 3094W        W20618   8.951   0.012  14.071  0.1871 -0.0677  0.0789
 3095W        W20619   3.390  10.517   2.485  0.0373 -0.1299  0.0743
 3096W        W20620   9.092  16.286  16.251 -0.2378 -0.0075  0.1935
 3097W        W20621  13.864  16.055  11.134 -0.1100  0.1488 -0.2887
 3098W        W20622   9.174   7.911  12.973 -0.0382  0.1263  0.0902
 3099W        W20623  13.307  11.633   1.085 -0.3406  0.0509 -0.0992
 3100W        W20624   4.122   1.114  15.878 -0.0335  0.0652  0.2655
 3101W        W20625   1.781  14.797  11.825 -0.2447  0.2719  0.2422
 3102W        W20626   7.742  11.511   3.695 -0.2267 -0.2747  0.1706
 3103W        W20627   7.369   3.222   4.677 -0.0120 -0.0283 -0.1992
 3104W        W20628  17.499   4.566  13.247  0.3619 -0.0763  0.1133
 3105W        W20629   0.769  12.959  13.798 -0.4152 -0.2747  0.2518
 3106W        W20630   2.749   0.242   1.563  0.3441 -0.0815  0.2843
 3107W        W20631  11.144   6.463  15.432 -0.0113 -0.0148  0.0136
 3108W        W20632   6.352  10.586  15.239 -0.0123 -0.2130  0.0637
 3109W        W20633   8.129   9.428   2.014  0.2075 -0.0573 -0.1120
 3110W        W20634  10.096  14.950   3.267  0.3087 -0.0652  0.0152
 3111W        W20635   9.323   6.418   4.196 -0.0847  0.2174 -0.0675
 3112W        W20636  17.207  12.062   4.658  0.1597  0.3336 -0.0678
 3113W        W20637   1.139  16.312  12.596 -0.1052  0.3391 -0.0342
 3114W        W20638   9.133  15.559  12.562 -0.0247 -0.5735 -0.1337
 3115W        W20639  14.473   5.316   3.355 -0.0140 -0.0046 -0.0704
 3116W        W20640   1.539  15.503  13.192 -0.0590 -0.1620  0.1863
 3117W        W20641   3.993  16.220   4.057  0.0326 -0.0364  0.1289
 3118W        W20642  12.953   9.363  13.488 -0.1214  0.0794  0.2527
 3119W        W20643   8.769   6.954  11.675 -0.0336 -0.0697 -0.1486
 3120W        W20644   7.357   6.599  14.291 -0.1428 -0.2808  0.2023
 3121W        W20645  14.427   7.640   3.852 -0.0304 -0.0287  0.0073
 3122W        W20646   8.126  15.133   1.769  0.1488 -0.5154 -0.1019
 3123W        W20647   9.426  16.509  11.039  0.1605  0.0290 -0.1748
 3124W        W20648  12.662  17.815   1.095  0.0576 -0.0386  0.0899
 3125W        W20649  10.763   8.091   1.328  0.2939 -0.0167  0.3445
 3126W        W20650   0.160   8.130   0.051 -0.2221  0.0212 -0.1462
 3127W        W20651   4.727   1.835  14.296  0.0339 -0.0102 -0.2381
 3128W        W20652   2.296   2.779   4.485 -0.0601  0.0908  0.3270
 3129W        W20653   0.483  12.556   0.032 -0.0339  0.2061  0.3545
 3130W        W20654  14.672  17.825  11.489 -0.2531 -0.0691  0.2060
 3131W        W20655  13.083   6.650  14.330  0.3504 -0.3319  0.0224
 3132W        W20656   0.713   0.261   6.138 -0.2061  0.0410 -0.3960
 3133W        W20657  11.875  15.549   1.556  0.1497 -0.1554 -0.1536
 3134W        W20658  15.448  12.578  13.513 -0.0391 -0.1362  0.1282
 3135W        W20659   5.075  14.906  14.660 -0.1323  0.0201 -0.0515
 3136W        W20660  17.336   4.827   2.651 -0.0910 -0.0307 -0.0374
 3137W        W20661   0.923  12.350  11.608 -0.0970  0.1779 -0.4613
 3138W        W20662   3.435  11.840   4.508  0.1629 -0.1723  0.4069
 3139W        W20663   0.517   9.758  14.770  0.2295 -0.3711  0.0243
 3140W        W20664   2.688  13.513   2.252 -0.2150  0.1830 -0.0579
 3141W        W20665   4.105   6.044  13.363 -0.0518  0.1657  0.1418
 3142W        W20666   0.174   6.427   1.541 -0.1264  0.1662  0.2465
 3143W        W20667  16.556   9.276  12.504 -0.2224 -0.1876 -0.0048
 3144W        W20668   5.307   2.165  13.425  0.0083  0.0807  0.0275
 3145W        W20669   3.136   1.150   3.418  0.4018  0.0952  0.0574
 3146W        W20670   9.974   2.435   1.918  0.0245 -0.0128 -0.1903
 3147W        W20671  13.855  13.877  12.176  0.0283 -0.3187  0.1603
 3148W        W20672   2.327  13.087  12.970  0.1619  0.2787 -0.1953
 3149W        W20673   1.048  14.399   3.016 -0.0753 -0.2005 -0.1549
 3150W        W20674  17.620  11.212   4.366 -0.1748 -0.4473 -0.2236
 3151W        W20675   1.013   4.449   4.972  0.2354  0.3728  0.1354
 3152W        W20676   5.076   4.380  11.253 -0.1926  0.1214 -0.1060
 3153W        W20677   0.827  16.751  14.420  0.3841 -0.2598  0.3962
 3154W        W20678  16.074   2.601   4.327 -0.1123 -0.0877 -0.4290
 3155W        W20679   0.568   6.990   1.980 -0.2558  0.0431  0.3598
 3156W        W20680  15.467   4.844   1.219 -0.1432  0.1639  0.0861
 3157W        W20681   5.064  17.129   3.840 -0.0487  0.0296 -0.0440
 3158W        W20682   6.422  16.992   2.415  0.0369 -0.0124 -0.3974
 3159W        W20683  11.078  12.809   0.556 -0.0180  0.1571  0.0329
 3160W        W20684  16.618   4.453  14.356  0.1793  0.1246 -0.2983
 3161W        W20685   2.799  12.753   4.171 -0.2939 -0.0064  0.1924
 3162W        W20686   1.632   0.858   2.775  0.0896 -0.2169  0.1147
 3163W        W20687   2.427   1.876  14.631 -0.2555  0.1545  0.1583
 3164W        W20688  17.105   9.303   3.970 -0.0376 -0.1006  0.0912
 3165W        W20689  13.373  13.794  12.364  0.1489 -0.1499  0.2646
 3166W        W20690   9.780   9.112   0.377 -0.0693  0.0569  0.2307
 3167W        W20691  17.303  13.315   5.793  0.1493 -0.0609 -0.0488
 3168W        W20692   0.242  15.862  15.016  0.1452  0.3592  0.1674
 3169W        W20693   3.117  16.448   4.221 -0.0406  0.0350  0.2447
 3170W        W20694  14.707   6.396  13.669 -0.1343 -0.3418 -0.0266
 3171W        W20695  10.144   3.679  15.470  0.0774 -0.0425  0.0257
 3172W        W20696  13.468  16.788   3.733  0.1046 -0.2906  0.0772
 3173W        W20697   0.296  13.285  14.599 -0.1275  0.0072  0.0013
 3174W        W20698  14.332  11.662  15.805  0.2061  0.0453  0.0721
 3175W        W20699   1.349   7.670   3.342  0.1481 -0.2445  0.0424
 3176W        W20700  17.713  12.077   3.438 -0.1412 -0.0553  0.0476
 3177W        W20701  11.386   2.172   2.965  0.1109  0.0711 -0.0090
 3178W        W20702  13.096   9.536  15.783  0.3270 -0.0184 -0.0726
 3179W        W20703   1.780   5.959  11.901 -0.2872  0.0950  0.0843
 3180W        W20704   3.911   9.391   4.699 -0.0342 -0.1402 -0.1642
 3181W        W20705  14.881  11.098   3.066 -0.0203 -0.0286  0.0792
 3182W        W20706   0.136   3.424  15.625 -0.1138  0.1381 -0.2797
 3183W        W20707   5.672   4.628  16.148 -0.1053  0.0995 -0.1660
 3184W        W20708  10.980  12.294  11.539 -0.3441 -0.2492 -0.2415
 3185W        W20709  16.662   1.660   4.318  0.0419 -0.0284 -0.0312
 3186W        W20710   4.802  16.335   2.508 -0.0878  0.2574  0.0422
 3187W        W20711  10.259   9.220   0.559 -0.0995 -0.1293 -0.1508
 3188W        W20712   3.600  15.920  13.025 -0.3887 -0.1041  0.3097
 3189W        W20713   6.434  12.250   0.869 -0.3290 -0.0852  0.2186
 3190W        W20714  10.691   9.293  13.224 -0.0058  0.2559 -0.1762
 3191W        W20715   6.919   4.786   2.012 -0.0629  0.0046  0.0305
 3192W        W20716  11.920   6.755   3.139  0.0307 -0.1133  0.2199
 3193W        W20717   6.031   5.951   3.736 -0.1175 -0.2486  0.1225
 3194W        W20718   0.756  10.407   5.025 -0.4628 -0.0994  0.1785
 3195W        W20719   4.267  16.426  11.913  0.1122  0.2103 -0.1412
 3196W        W20720   1.229   7.635   1.066 -0.2215 -0.1734 -0.1322
 3197W        W20721  16.607   3.320   4.186  0.2849  0.0281  0.1912
 3198W        W20722   3.762   1.369   2.838  0.1017 -0.1616 -0.2723
 3199W        W20723   2.071   7.114  14.469 -0.1818 -0.0659  0.4452
 3200W        W20724  17.464   7.954  12.608  0.3347  0.1566  0.2828
 3201W        W20725   1.305   0.623  15.107  0.2255  0.1428 -0.1423
 3202W        W20726   2.642   4.932  14.192 -0.1176 -0.1270 -0.1597
 3203W        W20727   2.648  16.886   0.511  0.1642 -0.1012 -0.0348
 3204W        W20728   3.391  11.587  12.582 -0.0377  0.2774 -0.1682
 3205W        W20729   6.253  14.464  12.132 -0.1034  0.1089  0.1345
 3206W        W20730  11.532   9.432  16.065  0.0339  0.0066  0.4347
 3207W        W20731  12.108   3.897   0.420  0.1890  0.1083  0.1718
 3208W        W20732   3.475  15.839  13.506  0.1078 -0.0217 -0.1468
 3209W        W20733  14.587   9.952   2.339 -0.0989  0.4055 -0.1827
 3210W        W20734  10.042   7.199  15.180  0.3495 -0.2056 -0.0304
 3211W        W20735  15.750  12.443   0.097 -0.1683 -0.1667  0.3168
 3212W        W20736  13.532  15.902  13.539  0.1583  0.0097 -0.0049
 3213W        W20737  15.485   1.178   1.895 -0.0052  0.1294 -0.0897
 3214W        W20738  14.995   8.262   1.281  0.0133  0.0913 -0.1558
 3215W        W20739  17.839  15.551   2.242  0.0495 -0.1623  0.1132
 3216W        W20740   8.515   5.229  15.060 -0.1141  0.2154 -0.0096
 3217W        W20741   7.540   0.219  14.053  0.1003 -0.0737  0.0119
 3218W        W20742   3.836  16.841  14.311  0.2319 -0.2542  0.1884
 3219W        W20743   9.091  16.585  15.031  0.0762  0.1690 -0.0994
 3220W        W20744  13.386   3.493   3.321 -0.0027 -0.0325 -0.0164
 3221W        W20745   6.872   6.161   0.769  0.1575 -0.1207 -0.1697
 3222W        W20746  13.623   8.311  12.927  0.1765  0.0695 -0.1339
 3223W        W20747  14.584  13.058   2.728 -0.1132  0.1286 -0.0554
 3224W        W20748   9.041  15.577   4.386  0.0832  0.0572 -0.0242
 3225W        W20749   0.215   9.320  16.186  0.0432 -0.4293 -0.3727
 3226W        W20750  15.720   4.615  13.447  0.1141  0.0597 -0.0866
 3227W        W20751  15.183   8.735   2.473 -0.0904 -0.1096 -0.1500
 3228W        W20752  17.721  16.982  12.293 -0.3976 -0.0613  0.3201
 3229W        W20753  14.300   0.257  14.530  0.1400 -0.0584 -0.1554
 3230W        W20754   5.330  10.607   3.691 -0.0001 -0.1053 -0.3283
 3231W        W20755   7.972   2.294  13.896 -0.0620 -0.1045 -0.5308
 3232W        W20756  14.351  10.719  16.048  0.1942  0.1242 -0.1190
 3233W        W20757   7.534  15.501  13.751  0.2995 -0.0397 -0.1384
 3234W        W20758  16.328  17.041  13.544  0.0065 -0.1707 -0.1040
 3235W        W20759  12.931   6.530   5.049  0.2050  0.2113  0.1779
 3236W        W20760  10.612  16.460  10.839 -0.0404  0.1273 -0.0887
 3237W        W20761   9.586   7.321   1.121  0.0778  0.2270  0.1444
 3238W        W20762   8.429   9.388   3.871  0.0221 -0.0799  0.1173
 3239W        W20763  13.415   7.297   4.735 -0.1362 -0.1013 -0.1285
 3240W        W20764   1.194   6.409  15.524  0.1348  0.4755  0.1327
 3241W        W20765   5.966  11.679  12.437 -0.0315  0.0801  0.1344
 3242W        W20766  12.118  17.067  15.352 -0.1636 -0.1117  0.1430
 3243W        W20767   5.189   8.592   0.425  0.3856  0.2154  0.1379
 3244W        W20768  14.301   6.157  11.091  0.1598 -0.3810  0.0476
 3245W        W20769  12.140   1.518  11.626  0.1787  0.0817  0.2180
 3246W        W20770   3.020   0.611  10.555  0.0654  0.1634 -0.0080
 3247W        W20771  15.722   7.180  12.098 -0.1897  0.1082  0.1330
 3248W        W20772   8.609   1.972   1.118  0.1317  0.0466  0.1810
 3249W        W20773  17.030  10.045  12.739  0.0051  0.1316 -0.0138
 3250W        W20774  14.408  12.866   0.060 -0.1028 -0.0969 -0.2423
 3251W        W20775  14.233   3.898   0.027  0.1879  0.2730 -0.4300
 3252W        W20776  10.284   6.968  15.645 -0.1776  0.0915 -0.1354
 3253W        W20777  11.515  14.387   0.899  0.1426  0.0080  0.0293
 3254W        W20778   5.469  15.633   2.928 -0.0803  0.2196  0.1204
 3255W        W20779  12.764   6.891  11.132  0.2613 -0.0488 -0.1131
 3256W        W20780   1.784   7.696  10.423  0.1969 -0.0136 -0.0589
 3257W        W20781   5.814   8.571   4.125  0.0157 -0.0461 -0.2062
 3258W        W20782  12.941  12.059  13.547 -0.1126  0.1480  0.2044
 3259W        W20783  16.464  12.469  11.931 -0.2544  0.0439 -0.1302
 3260W        W20784   7.415   8.373  13.869 -0.1677 -0.0357 -0.0535
 3261W        W20785   2.038  11.836  12.238  0.0873 -0.4102 -0.3224
 3262W        W20786   7.935   3.824  11.301 -0.0874  0.0194 -0.1580
 3263W        W20787  10.189   0.682   5.714  0.3771  0.1260  0.0006
 3264W        W20788   5.701  16.743  11.471 -0.0420 -0.0363 -0.1915
 3265W        W20789   7.491  13.785  14.689  0.0033 -0.0514  0.1506
 3266W        W20790  10.583   6.635  13.997  0.0260 -0.1196 -0.1552
 3267W        W20791   4.058   4.429   0.658 -0.0264 -0.2298  0.0184
 3268W        W20792  17.044  16.337   4.427 -0.0358 -0.2009 -0.0352
 3269W        W20793   6.026  10.140  12.523 -0.2597 -0.0781  0.2106
 3270W        W20794  15.060   5.613  15.380 -0.1890  0.0506 -0.1560
 3271W        W20795  12.161   0.226   1.508 -0.0830  0.1102  0.0704
 3272W        W20796  12.858  12.584  12.328  0.1436  0.1753 -0.0588
 3273W        W20797   9.838   1.311   2.108 -0.2195  0.0633 -0.0773
 3274W        W20798   9.759  13.447   4.207 -0.3987 -0.2244 -0.0918
 3275W        W20799   9.730   7.572  14.386 -0.3212 -0.0862  0.3672
 3276W        W20800  13.803  10.847   1.246  0.1416  0.2548  0.0398
 3277W        W20801   2.163   7.054  11.531 -0.1504 -0.2696 -0.0306
 3278W        W20802  12.546   4.609  12.672  0.2344  0.0041  0.0813
 3279W        W20803   0.464   8.981  15.896  0.0247 -0.1019  0.0788
 3280W        W20804   0.007   2.780   2.972 -0.2792  0.0249 -0.3019
 3281W        W20805   5.710   1.642   0.514  0.0749  0.1262 -0.3691
 3282W        W20806   3.557   9.855  12.495  0.0531 -0.0343 -0.1993
 3283W        W20807   3.467   3.999   3.950  0.1801 -0.2610 -0.1288
 3284W        W20808  13.759  14.693   3.622  0.1338 -0.5133 -0.0659
 3285W        W20809   6.274  10.109  15.485 -0.1659 -0.0540 -0.0890
 3286W        W20810   8.481  15.582  13.537  0.1233 -0.0207  0.1588
 3287W        W20811   2.204   3.680  11.864  0.2230 -0.1675  0.2338
 3288W        W20812   1.698   3.457   1.251 -0.0814  0.2649 -0.0399
 3289W        W20813   6.594  11.740   4.529 -0.3298 -0.0802  0.2400
 3290W        W20814   4.825  13.224   0.010 -0.1102 -0.0965  0.1864
 3291W        W20815  17.348   3.297  11.841 -0.1423 -0.0260  0.1182
 3292W        W20816  11.597  11.109  12.199  0.1417  0.2751 -0.0999
 3293W        W20817  16.231   1.880   3.280 -0.1509 -0.1118  0.0408
 3294W        W20818   1.988   8.363  13.775  0.1910 -0.1106 -0.2435
 3295W        W20819   9.617  10.220  16.089  0.0328 -0.3951  0.0459
 3296W        W20820   2.372   5.925   3.516 -0.0814 -0.0983  0.0934
 3297W        W20821  12.050  11.334  12.094 -0.0601 -0.1100 -0.1647
 3298W        W20822  11.028   8.889   0.389 -0.0771 -0.3404 -0.0512
 3299W        W20823   7.714   8.208   4.023  0.0331  0.2344  0.1634
 3300W        W20824  10.459   2.854  12.080 -0.1688  0.3574 -0.2695
 3301W        W20825   6.896  12.472  16.029  0.0833 -0.3678 -0.1269
 3302W        W20826   6.373   5.992  10.953  0.0001  0.0593  0.0566
 3303W        W20827  13.719   3.194  13.957  0.1790 -0.1669 -0.3019
 3304W        W20828  15.786  17.178   1.824 -0.0926  0.0079  0.0731
 3305W        W20829  14.187  17.157   2.288  0.1612 -0.3965  0.0533
 3306W        W20830  15.726   4.955   0.013 -0.0951 -0.2413  0.0539
 3307W        W20831   5.061  14.807  11.844  0.1145  0.1476  0.1892
 3308W        W20832   6.696  11.179  11.260  0.1413 -0.0579  0.0443
 3309W        W20833  13.975  15.316   2.964  0.1046  0.1597  0.0268
 3310W        W20834  11.492   1.507   2.303 -0.2151  0.2219  0.2113
 3311W        W20835  17.910   0.035   4.433 -0.0124 -0.2112  0.0973
 3312W        W20836  13.254  17.738  15.819  0.4014 -0.2102  0.0573
 3313W        W20837   9.920   4.796   1.052  0.4353  0.0770 -0.0238
 3314W        W20838  10.824   5.430   1.024 -0.2118  0.0633 -0.0143
 3315W        W20839  14.316   7.864   1.816  0.1095  0.1516  0.2552
 3316W        W20840  11.457  11.583  12.912 -0.2571  0.3002 -0.1396
 3317W        W20841   4.325  14.119  14.785 -0.0599 -0.0570  0.0359
 3318W        W20842   7.273   7.421  13.712  0.0438 -0.1892  0.1464
 3319W        W20843   4.976  10.924  11.248  0.1174 -0.1747  0.0548
 3320W        W20844   9.089  14.956   3.124  0.1864  0.0164 -0.1139
 3321W        W20845   0.839  14.132  14.422  0.3450  0.1338  0.0718
 3322W        W20846  12.272   9.973   4.001  0.1053  0.0655  0.1670
 3323W        W20847   0.560  17.058  11.848 -0.0002 -0.0228 -0.2714
 3324W        W20848  13.727  10.182   0.448 -0.0817 -0.2206  0.1092
 3325W        W20849   8.957  15.469  14.255  0.1347  0.0416  0.1454
 3326W        W20850   9.371  10.717   0.227 -0.1506 -0.1045 -0.2958
 3327W        W20851  10.987   5.629  11.429  0.2674 -0.2336  0.1907
 3328W        W20852  15.580  11.164  12.525 -0.1135 -0.2420 -0.1605
 3329W        W20853  13.876   1.481   4.155 -0.0441  0.2742  0.1419
 3330W        W20854   3.038   0.675   4.165 -0.0362 -0.1844  0.0163
 3331W        W20855   4.230   5.898  12.509  0.0200  0.1215  0.0348
 3332W        W20856  15.069   9.675  14.681  0.0731  0.2912 -0.0247
 3333W        W20857   4.948   3.522   5.262 -0.0421 -0.0404  0.0633
 3334W        W20858   1.823  14.677  15.207  0.2240  0.1545 -0.0803
 3335W        W20859   2.275   5.667  12.867 -0.1838 -0.0649 -0.0574
 3336W        W20860   0.892   7.141   2.309 -0.2931 -0.1041 -0.2122
 3337W        W20861   2.891  16.407   0.612 -0.0861 -0.1195  0.0525
 3338W        W20862  14.519  16.672   0.289 -0.1029 -0.0146  0.2221
 3339W        W20863   9.881  16.478  16.144 -0.1009  0.1189 -0.0342
 3340W        W20864   1.395  12.288  13.210  0.0117 -0.2094  0.3132
 3341W        W20865  14.881  10.010   3.808 -0.0610  0.4541 -0.2971
 3342W        W20866   8.372   7.245  11.570 -0.0110  0.3454 -0.1607
 3343W        W20867  15.123  13.033  12.726 -0.1692 -0.0889 -0.3386
 3344W        W20868   3.360  14.215   4.760 -0.1883 -0.0027  0.0002
 3345W        W20869  17.593   4.044  14.428  0.3086  0.4463  0.1558
 3346W        W20870  12.896  14.909   2.929 -0.2889 -0.2516 -0.2942
 3347W        W20871   7.307   3.509  11.718  0.3835 -0.0420 -0.0700
 3348W        W20872  12.538   1.866  12.321  0.1599  0.1343  0.0068
 3349W        W20873   9.379   7.418  10.328  0.4112  0.0204 -0.1865
 3350W        W20874   9.366   3.083   2.431 -0.0203  0.0336 -0.0868
 3351W        W20875  11.007   0.825   0.904 -0.2899  0.0113  0.1423
 3352W        W20876  10.376   0.010   4.073  0.2204  0.1861  0.2447
 3353W        W20877   1.826  16.990   0.417  0.2003  0.1848 -0.0799
 3354W        W20878  11.219   1.720  15.509 -0.0974 -0.2414 -0.3181
 3355W        W20879   3.320  17.771   4.074 -0.1943 -0.0784 -0.0866
 3356W        W20880  13.411  16.906  12.769 -0.0642  0.0940 -0.1074
 3357W        W20881   5.075   6.567  15.835  0.0679 -0.0933 -0.1971
 3358W        W20882  16.718  14.789  15.875  0.1348  0.1777  0.0406
 3359W        W20883  11.000   8.779   4.525  0.0281  0.1177  0.1597
 3360W        W20884   8.019  13.982   2.324  0.1749 -0.2148  0.0162
 3361W        W20885  13.312   9.779   1.794  0.2075 -0.1062 -0.1250
 3362W        W20886   2.639   5.040   1.928  0.3548  0.0638 -0.2507
 3363W        W20887  11.344   5.618  11.084 -0.1469 -0.0316  0.0697
 3364W        W20888  10.091   4.382   3.314  0.0389 -0.2599 -0.4164
 3365W        W20889   9.345  10.950   4.715  0.2518  0.4164 -0.1940
 3366W        W20890   2.386   9.315   1.228 -0.0349  0.0848 -0.0155
 3367W        W20891  17.101   8.183  12.195 -0.0243  0.1485 -0.4363
 3368W        W20892   1.545   6.033   2.972 -0.2699  0.0436 -0.0963
 3369W        W20893   9.902  17.234  13.739 -0.0569  0.0256  0.0092
 3370W        W20894  11.749  16.913  13.220  0.0978 -0.0394  0.1701
 3371W        W20895   1.306  17.798  15.250  0.0823 -0.1684  0.2363
 3372W        W20896   5.228   0.163  16.242  0.0116  0.1076 -0.0297
 3373W        W20897  16.644  16.840   0.769  0.2944  0.2566 -0.0950
 3374W        W20898  14.614  12.919  14.698 -0.1996 -0.2321 -0.3780
 3375W        W20899   3.334  15.855   2.543 -0.2209  0.0278 -0.0021
 3376W        W20900  12.248   9.545   0.557  0.4080 -0.0912  0.1152
 3377W        W20901  17.174   2.893   1.675 -0.1863  0.0638 -0.0659
 3378W        W20902  13.395  12.700   4.149 -0.1095 -0.0902  0.1104
 3379W        W20903   0.098   6.041   6.068 -0.0747  0.1468  0.0933
 3380W        W20904   0.050  10.512  15.201 -0.0751 -0.0794 -0.0418
 3381W        W20905   1.261  12.011  15.831 -0.3090  0.0956 -0.3351
 3382W        W20906  17.130   7.820   2.983 -0.1163  0.1146  0.1466
 3383W        W20907   1.849   6.742   6.146  0.0935 -0.2747 -0.1140
 3384W        W20908  10.889  10.817  14.067 -0.0020  0.0259  0.1105
 3385W        W20909   6.585   1.254   2.501  0.2043 -0.3841 -0.3287
 3386W        W20910   7.888  13.825  13.908 -0.0985 -0.1664  0.1522
 3387W        W20911   4.136  15.165  12.960  0.1379 -0.0195 -0.1277
 3388W        W20912   8.998   1.836   3.569 -0.3621 -0.5240  0.5131
 3389W        W20913   2.766   6.748   4.093  0.1234  0.2908 -0.0146
 3390W        W20914  10.047   8.053  15.256  0.2210 -0.3078 -0.1480
 3391W        W20915  12.122  12.254   3.291  0.1995 -0.1875  0.1074
 3392W        W20916   1.357  12.047  14.784  0.1555  0.1161 -0.0768
 3393W        W20917   0.300   8.395   5.034 -0.0887  0.1033  0.1443
 3394W        W20918  11.329   6.237  13.429 -0.1527  0.0041  0.0240
 3395W        W20919   7.530  10.564  13.699  0.1057  0.1265  0.2269
 3396W        W20920   6.885  10.443   0.830  0.1192  0.1084  0.0039
 3397W        W20921  17.067  11.719  13.256  0.0622 -0.1935  0.2481
 3398W        W20922  13.977  16.831   3.689 -0.1773 -0.0469  0.0929
 3399W        W20923   0.907   1.128  14.510  0.2975 -0.3575  0.1696
 3400W        W20924   3.497   2.028  14.815  0.0869 -0.0298 -0.0044
 3401W        W20925   6.603  16.414  15.565  0.0641 -0.0886  0.3021
 3402W        W20926  12.792   8.350  14.216 -0.0452 -0.2072  0.0515
 3403W        W20927  12.283   6.061   1.602  0.1635 -0.1174 -0.0863
 3404W        W20928   7.060   3.005  12.440 -0.3180 -0.3820 -0.1312
 3405W        W20929  12.668  13.449  11.089 -0.0740  0.2097  0.0889
 3406W        W20930  17.806   5.859  13.096 -0.2472  0.0507 -0.0522
 3407W        W20931   1.364   9.400  12.108  0.1612  0.1115  0.1376
 3408W        W20932  12.705   6.376  13.123  0.1505  0.4506  0.3992
 3409W        W20933   9.842   5.911   4.044 -0.1314 -0.0092  0.3055
 3410W        W20934   1.811  13.286   3.863  0.0382  0.0651 -0.1361
 3411W        W20935   3.800   8.155   3.355 -0.1763  0.0279  0.1265
 3412W        W20936  12.645  13.652  15.375  0.1200 -0.1395  0.1155
 3413W        W20937   3.389   9.080   3.463 -0.0193 -0.2630  0.0240
 3414W        W20938   0.871  13.942  12.606 -0.4044 -0.1717 -0.2097
 3415W        W20939   9.041   1.539   0.954  0.2373 -0.0893  0.0920
 3416W        W20940  13.070   5.283  16.190  0.0194 -0.0069  0.0101
 3417W        W20941  10.769  10.875   4.275 -0.0589 -0.2055  0.1310
 3418W        W20942  14.977  11.565   3.278  0.1152  0.2003  0.1125
 3419W        W20943  11.658  14.785  12.304 -0.2271 -0.3805 -0.0489
 3420W        W20944  10.684  16.511   0.203  0.0401  0.0353 -0.0742
 3421W        W20945  13.133  15.434   2.900  0.1508  0.1145 -0.1842
 3422W        W20946   9.534   7.085  12.412  0.1399 -0.2617  0.2151
 3423W        W20947   2.662  14.147  15.539  0.2253 -0.0798  0.0938
 3424W        W20948   2.492   7.479  11.569 -0.2770  0.2690 -0.0997
 3425W        W20949   2.805  17.741  14.568 -0.2623 -0.0394 -0.0988
 3426W        W20950   5.222   1.988  16.155 -0.1028  0.1307 -0.3937
 3427W        W20951   9.387  11.441  15.870 -0.0103  0.2852 -0.1708
 3428W        W20952  12.350   5.498   5.724 -0.0058 -0.1472  0.1312
 3429W        W20953  12.132   4.485   0.469 -0.1639  0.2046  0.0845
 3430W        W20954   6.606   0.760  11.759  0.0947 -0.3450 -0.0476
 3431W        W20955   0.050   8.774  16.127  0.0770 -0.1257  0.1339
 3432W        W20956   8.542  12.318  14.205 -0.1262  0.2667 -0.1017
 3433W        W20957  11.608  10.392  15.526 -0.0184  0.1372  0.2871
 3434W        W20958  15.255   1.004   3.651  0.1284  0.0771 -0.1075
 3435W        W20959  16.965   1.341  15.194 -0.1674 -0.4902  0.3525
 3436W        W20960   9.549   8.550   2.225  0.0466 -0.0468  0.0691
 3437W        W20961   0.730  11.263   1.487  0.1298  0.0458 -0.0038
 3438W        W20962  15.769   8.103  13.637 -0.1520  0.0580  0.0013
 3439W        W20963   2.642  12.361  13.960  0.2322 -0.2118  0.1227
 3440W        W20964   6.281   7.383  12.892 -0.1450  0.1898 -0.0671
 3441W        W20965   8.465   3.456  16.114 -0.4816 -0.2131  0.1546
 3442W        W20966  14.258   6.031   0.546  0.0024  0.0338 -0.2724
 3443W        W20967   5.696  16.232   3.437 -0.0450  0.0690 -0.2474
 3444W        W20968   0.481  13.122   2.910 -0.1824  0.1501  0.0054
 3445W        W20969   0.963  14.199  12.100 -0.0261 -0.0191 -0.2843
 3446W        W20970  12.171   8.057  11.747 -0.0398 -0.0784  0.1168
 3447W        W20971  12.226   6.093   4.643  0.2400  0.0422 -0.1798
 3448W        W20972   2.481  17.306   0.215 -0.3487  0.1111 -0.4978
 3449W        W20973  15.473   5.224  15.383 -0.1352  0.0974 -0.0790
 3450W        W20974  14.687  11.601  15.029 -0.1907  0.2138 -0.0125
 3451W        W20975  16.433   7.008  14.598  0.1722 -0.0607 -0.2859
 3452W        W20976  16.135   4.842  13.269  0.2932 -0.1255  0.2400
 3453W        W20977  10.781   1.787  15.245  0.2256 -0.1189  0.0063
 3454W        W20978   5.964  15.606   1.214  0.3230 -0.1618 -0.2214
 3455W        W20979  13.971   1.710   5.309  0.0902  0.1151 -0.2252
 3456W        W20980   6.014   8.034   3.939  0.0293 -0.0415 -0.0197
 3457W        W20981   0.775   0.995   2.359 -0.1039 -0.2142  0.0852
 3458W        W20982  12.167   2.028  11.745 -0.0729 -0.0207 -0.3602
 3459W        W20983   9.524  14.547  13.268 -0.0869 -0.1632  0.1749
 3460W        W20984   5.984   5.514   1.427 -0.0530 -0.0604 -0.1049
 3461W        W20985   6.655  15.199   3.252  0.0688  0.0624 -0.0440
 3462W        W20986  10.399   9.727   1.158  0.2648  0.0717 -0.1559
 3463W        W20987  15.920   6.686   0.539 -0.1049  0.3080  0.0292
 3464W        W20988  17.204   8.803  12.172 -0.2108  0.2261 -0.1955
 3465W        W20989  14.347   3.265   3.793  0.0500 -0.0505  0.0412
 3466W        W20990  16.291  17.503   3.833  0.4536 -0.1649 -0.1550
 3467W        W20991  17.134   7.449   4.588  0.2792  0.1292 -0.3006
 3468W        W20992   2.200  16.034   1.155  0.2952 -0.2219  0.1461
 3469W        W20993  15.455  15.134  16.098  0.0538 -0.1857  0.2633
 3470W        W20994   5.771  10.610  12.465 -0.1685 -0.3103 -0.0700
 3471W        W20995   8.596  11.344  14.679 -0.1842  0.1123  0.1011
 3472W        W20996  13.641   6.709  15.786  0.0975  0.3434 -0.1998
 3473W        W20997   6.837   6.673  14.306  0.1284  0.2860 -0.3408
 3474W        W20998   2.961  17.222   0.282 -0.3506  0.0858  0.1781
 3475W        W20999  10.868  16.877  10.861  0.0347  0.0407 -0.1114
 3476W        W21000   2.312  15.825   1.721  0.1187  0.0006 -0.2913
 3477W        W21001  12.992  15.791   0.707  0.3036  0.0091 -0.0896
 3478W        W21002   5.068  16.130  15.926  0.4333  0.0355  0.0716
 3479W        W21003  14.363   9.527  16.063  0.1313  0.1430 -0.1995
 3480W        W21004   5.913   0.055  15.502  0.1098 -0.0839 -0.0030
 3481W        W21005  13.564   3.582   1.093 -0.0699  0.0935  0.5347
 3482W        W21006   7.691  13.871  13.430  0.2664 -0.0820  0.0073
 3483W        W21007   5.033   2.321  12.282 -0.3391  0.1138  0.1972
 3484W        W21008  16.937   3.279   0.269  0.0003 -0.1324 -0.1574
 3485W        W21009  14.778   5.299   0.099 -0.2528  0.2606 -0.0614
 3486W        W21010   1.324   6.771  10.580  0.0679  0.1362 -0.0594
 3487W        W21011   9.417   1.388  15.215  0.3715 -0.0022  0.1227
 3488W        W21012  14.773   4.469  15.910  0.1545  0.0697  0.0384
 3489W        W21013  11.512   7.375   2.461  0.0477  0.0780  0.0183
 3490W        W21014  15.959   1.082   0.179  0.4321 -0.1216  0.1943
 3491W        W21015   0.114  14.320  10.827  0.3357  0.1531  0.0487
 3492W        W21016   3.456  16.458  14.802  0.0870 -0.0694 -0.0415
 3493W        W21017   8.538  13.678  15.567 -0.0275  0.1782 -0.0976
 3494W        W21018  12.845  16.683   0.982 -0.1894 -0.1865  0.2226
 3495W        W21019   8.105   1.856  14.238 -0.0012  0.1564  0.0796
 3496W        W21020   2.406   0.119  13.379  0.1256  0.2801  0.0907
 3497W        W21021  10.075   2.199   1.444 -0.3304 -0.0997  0.1886
 3498W        W21022  17.297   1.078   3.960 -0.1505 -0.0212 -0.2689
 3499W        W21023   8.221  11.071  13.319  0.0171 -0.2352 -0.0840
 3500W        W21024  11.310   8.166   2.580  0.1004 -0.3020  0.1579
 3501W        W21025  11.727  14.180   3.586  0.1569 -0.0330 -0.0843
 3502W        W21026   5.492   0.063  15.803  0.2301  0.3420  0.2816
 3503W        W21027  15.007   0.105  14.704  0.0560 -0.1477  0.2841
 3504W        W21028  14.347   1.013  10.322  0.2459 -0.1560 -0.0483
 3505W        W21029  15.138  12.672   4.796 -0.1647  0.2531  0.1457
 3506W        W21030  15.465  11.140  13.609 -0.0173 -0.0711  0.2606
 3507W        W21031   6.277   1.094   1.257 -0.3337 -0.0500 -0.1110
 3508W        W21032   8.779  10.575   0.129  0.1442  0.2039 -0.1246
 3509W        W21033   7.793   0.024  13.649  0.0863  0.1149  0.1635
 3510W        W21034  11.673   7.939   3.274  0.0338  0.2144 -0.0196
 3511W        W21035  14.731   9.737  10.977  0.1951 -0.2134  0.0117
 3512W        W21036   6.806   9.647  14.570  0.2114  0.1814 -0.2312
 3513W        W21037   8.407   2.491  14.115  0.0830  0.0193  0.2913
 3514W        W21038  13.786   8.004  15.609  0.0392 -0.0142  0.1713
 3515W        W21039  15.252  12.482  12.044  0.1894  0.0511 -0.0492
 3516W        W21040  12.798  17.518  15.898  0.0502  0.0414  0.0017
 3517W        W21041   8.296   4.654  13.731 -0.1469 -0.0984  0.0175
 3518W        W21042   9.388   7.934  12.077  0.0682  0.2958  0.1736
 3519W        W21043   8.632  17.716   3.341 -0.1017  0.3083  0.0608
 3520W        W21044  14.212  13.739  10.879  0.1826 -0.0385 -0.0566
 3521W        W21045   5.893  16.581  13.154 -0.1046  0.0806 -0.0215
 3522W        W21046  15.548   9.945   2.201  0.0235  0.0251 -0.2438
 3523W        W21047  14.218   7.605   4.751  0.0234 -0.0333  0.1010
 3524W        W21048   2.480   0.679   4.128 -0.2696 -0.0636  0.2704
 3525W        W21049  10.220  10.511  14.322  0.0109  0.0121  0.0953
 3526W        W21050   0.540   7.888  12.588 -0.2616 -0.2243 -0.2876
 3527W        W21051   5.330  17.219   1.566  0.1395  0.0269  0.2585
 3528W        W21052   7.768   7.196  13.686  0.1861  0.0873  0.2722
 3529W        W21053  11.717   9.874  12.738  0.0028  0.2669  0.1928
 3530W        W21054   9.655  14.906  13.660 -0.0938 -0.0298 -0.0205
 3531W        W21055   8.959  11.758  11.333  0.0999  0.1180  0.0082
 3532W        W21056  11.344  13.663   0.393  0.2326  0.0772  0.1096
 3533W        W21057   8.518  16.643   0.482  0.2066  0.1277  0.0546
 3534W        W21058  10.942   6.707  13.156  0.0306 -0.0664 -0.2957
 3535W        W21059  15.785   4.428  11.605 -0.0316 -0.1068  0.2486
 3536W        W21060  13.779  16.033  15.569  0.3912 -0.0468 -0.2427
 3537W        W21061   2.933  13.879  11.902 -0.0958  0.0025 -0.2305
 3538W        W21062   1.585   0.835  11.442 -0.2987 -0.2539  0.2875
 3539W        W21063   7.719   4.142   3.656  0.0054  0.0214 -0.0935
 3540W        W21064   8.372  11.536   5.990  0.1225 -0.0432  0.0853
 3541W        W21065  15.229  15.003   2.609 -0.1487  0.3276  0.1001
 3542W        W21066   6.960  13.120   3.511  0.0257 -0.1014 -0.3053
 3543W        W21067  10.128  16.322   3.261 -0.0163  0.1791  0.1563
 3544W        W21068   4.500   9.670  12.052  0.1919  0.3028 -0.2303
 3545W        W21069  17.851  16.968   2.156 -0.0063  0.2300  0.0683
 3546W        W21070  13.766   0.267   2.712  0.0430 -0.1324 -0.1264
 3547W        W21071  10.919   0.195   0.932 -0.2698  0.0803 -0.4402
 3548W        W21072   4.748   3.946   3.411 -0.2277 -0.1885  0.1479
 3549W        W21073  15.290  14.938  14.425 -0.0854  0.0464 -0.0123
 3550W        W21074  12.298  10.504   3.880 -0.0418  0.1138  0.1270
 3551W        W21075   2.712   5.538   1.816  0.5594 -0.1648 -0.2969
 3552W        W21076   9.279   5.198   1.306  0.1011  0.1768  0.1256
 3553W        W21077  15.318  10.239   0.589  0.0833  0.4493 -0.0852
 3554W        W21078   4.931  13.106   3.402  0.2820  0.4158 -0.1058
 3555W        W21079   8.507   3.111  13.095  0.2599 -0.0735 -0.2938
 3556W        W21080  15.181   8.718   3.059 -0.3060  0.0124  0.0550
 3557W        W21081  12.108   1.545  12.898  0.4307 -0.0084  0.1414
 3558W        W21082  11.488   5.946  12.793  0.0188  0.2680  0.0720
 3559W        W21083  15.769   3.190  15.398 -0.0664 -0.0122 -0.0754
 3560W        W21084  14.576  14.015  15.615 -0.0070 -0.3555  0.0383
 3561W        W21085   0.104   6.540  15.572  0.0443  0.0705 -0.3172
 3562W        W21086   9.044  17.631  13.051 -0.2543  0.0848 -0.0161
 3563W        W21087  14.770  17.332  15.500 -0.1216 -0.1502 -0.3343
 3564W        W21088   1.055  13.033   4.307 -0.3533  0.1019  0.0642
 3565W        W21089   6.753  12.682   5.699 -0.2147 -0.1951 -0.1302
 3566W        W21090  14.749  15.386  13.137 -0.0117  0.2348 -0.0482
 3567W        W21091  11.211   0.359  12.664  0.2872  0.1155 -0.0946
 3568W        W21092   6.060   1.050  14.546  0.1268 -0.1561  0.0704
 3569W        W21093  12.754   9.697   1.798  0.0078  0.2430  0.3096
 3570W        W21094  10.211   1.698   2.202 -0.0929 -0.1357  0.0446
 3571W        W21095   8.194  17.476  11.225  0.2371 -0.2039  0.0150
 3572W        W21096   5.295   4.932   5.171  0.1487  0.3399 -0.0534
 3573W        W21097   1.488   3.348   0.207 -0.3996  0.0636 -0.2617
 3574W        W21098  15.853  13.496   0.808 -0.1589  0.0489  0.1238
 3575W        W21099  13.539  16.223   2.021 -0.2774 -0.2093 -0.0914
 3576W        W21100  12.158  10.156  13.564 -0.0367 -0.1176 -0.0608
 3577W        W21101   8.895  14.104  14.632 -0.0819  0.0941 -0.0863
 3578W        W21102   1.184   8.428   4.650  0.0343  0.0933  0.1921
 3579W        W21103  17.589   4.526   4.788  0.2783  0.2271 -0.1909
 3580W        W21104   7.223   1.320   1.619 -0.0226 -0.0891 -0.1741
 3581W        W21105   7.790   1.927  16.167 -0.1109  0.1101 -0.2410
 3582W        W21106   7.350   6.932  11.333 -0.0594 -0.2127  0.1626
 3583W        W21107  14.925  14.628  14.051 -0.0525  0.3289 -0.1650
 3584W        W21108   6.392  15.577  13.776  0.2161 -0.2272  0.1014
 3585W        W21109   7.405   3.847   5.507  0.0588 -0.0560 -0.0218
 3586W        W21110  15.670  10.612  13.684 -0.2262 -0.1597 -0.1059
 3587W        W21111  10.181   0.547  14.078 -0.4447  0.0325  0.0478
 3588W        W21112   2.674   4.099   0.792 -0.0946 -0.1782  0.0635
 3589W        W21113   9.650   5.739   0.080 -0.1662 -0.2062  0.1953
 3590W        W21114   4.131  13.330  13.056 -0.4661 -0.3383 -0.2416
 3591W        W21115   2.327   9.918  13.738  0.2016 -0.0601 -0.1963
 3592W        W21116   7.118   5.265  16.115 -0.0022 -0.2376  0.1955
 3593W        W21117  16.419  12.848   3.041 -0.2278 -0.1516 -0.3155
 3594W        W21118   8.360   6.136   0.761 -0.1894 -0.2196  0.0640
 3595W        W21119  16.604  11.911  13.051  0.1096 -0.1105 -0.1121
 3596W        W21120   3.144  11.203   0.039  0.0958  0.1776 -0.0389
 3597W        W21121  10.794  10.466  13.018 -0.0919 -0.1544  0.0945
 3598W        W21122  12.470  16.478  15.842  0.4040  0.0915 -0.2128
 3599W        W21123   3.148   7.216   3.251  0.0956 -0.3968 -0.1480
 3600W        W21124  10.923  11.793  12.844 -0.1652 -0.3348  0.0582
 3601W        W21125   6.861   4.636  16.179 -0.1051 -0.0145  0.2300
 3602W        W21126  15.850  15.091   1.855 -0.0401  0.1533 -0.3192
 3603W        W21127  13.184  11.891   5.079 -0.0987  0.1023  0.0887
 3604W        W21128   7.443  12.116   5.102 -0.2728 -0.0348 -0.0078
 3605W        W21129   5.551   8.038   3.316 -0.1977 -0.3645 -0.0315
 3606W        W21130   6.372  10.745   1.513 -0.0224 -0.1240  0.1982
 3607W        W21131  10.145   5.018   1.481 -0.2885  0.1176  0.2323
 3608W        W21132  17.499   4.080   3.462  0.1707 -0.0002 -0.0693
 3609W        W21133  15.490  16.342   5.695  0.3886  0.1894  0.2770
 3610W        W21134   9.676  14.447  15.457 -0.1800  0.3360  0.2649
 3611W        W21135  13.354   7.649  14.583 -0.3869  0.2484 -0.0941
 3612W        W21136   4.176   6.346   3.351  0.0806 -0.0075  0.2499
 3613W        W21137   0.089  13.959   3.961 -0.0528 -0.0295  0.0885
 3614W        W21138  12.580  15.131   1.992 -0.0212  0.1334  0.0360
 3615W        W21139  13.005  15.525  14.064 -0.1979 -0.0254  0.2125
 3616W        W21140   4.292   7.758  15.374  0.1118 -0.0676 -0.1725
 3617W        W21141  14.871   7.914  14.585 -0.3222  0.3479 -0.1144
 3618W        W21142  13.402   3.725   3.830 -0.0253  0.1616  0.3489
 3619W        W21143   1.387   6.266   1.544 -0.0711 -0.0079 -0.2790
 3620W        W21144   4.270  11.628   0.174  0.0647 -0.1012 -0.2238
 3621W        W21145   0.649   6.755   3.702 -0.0764  0.1046 -0.0069
 3622W        W21146  13.493  14.791  15.197 -0.0260 -0.1546 -0.0806
 3623W        W21147  14.442   2.994   0.013  0.1305 -0.0251 -0.0276
 3624W        W21148   6.441   2.700  14.767 -0.1192 -0.1905 -0.1785
 3625W        W21149  15.220  17.146   3.174 -0.0609  0.0487  0.2130
 3626W        W21150   7.781  16.793  15.048 -0.0470  0.3118 -0.0973
 3627W        W21151  12.609   5.996  11.594 -0.0233 -0.0660  0.2664
 3628W        W21152  16.312  12.845  11.554 -0.1383  0.4258 -0.1539
 3629W        W21153   1.841  17.341   4.873 -0.2027 -0.0802  0.0537
 3630W        W21154  10.119  15.519  12.559 -0.0712 -0.0726  0.0823
 3631W        W21155  16.647   2.875  11.514  0.0788 -0.2088  0.1854
 3632W        W21156   8.289   0.600  12.078 -0.3231 -0.2330 -0.2203
 3633W        W21157   5.759   2.030   3.866 -0.1040  0.3600  0.2351
 3634W        W21158   2.404  10.593   3.497 -0.0823  0.0497  0.0377
 3635W        W21159   1.515   6.971  15.198 -0.2355 -0.1221 -0.1535
 3636W        W21160  12.459   2.087   0.944 -0.0986  0.1455  0.1693
 3637W        W21161   6.489   7.026  11.946  0.1087  0.0036  0.0151
 3638W        W21162  10.635   7.685  14.738 -0.1922 -0.0443 -0.1028
 3639W        W21163   7.968  10.778  13.672 -0.2037 -0.0600  0.1689
 3640W        W21164   9.421   7.990  14.327  0.0204 -0.0125  0.0097
 3641W        W21165   4.423   8.272  13.906  0.3677 -0.1777 -0.0572
 3642W        W21166   2.547  13.832   4.203 -0.1636 -0.0164 -0.1772
 3643W        W21167   0.627   8.038  15.604 -0.0015 -0.1693  0.0161
 3644W        W21168  17.673  17.347   1.773  0.3699 -0.1073 -0.2167
 3645W        W21169  14.159   5.116  12.701 -0.0705 -0.0371 -0.1257
 3646W        W21170  10.803  11.658  14.517  0.1195 -0.1443 -0.0003
 3647W        W21171   4.367  13.194   1.940 -0.3085 -0.0891  0.1151
 3648W        W21172  12.943   7.290  15.397 -0.0605 -0.1084 -0.1868
 3649W        W21173   3.616  16.579  13.901  0.0635  0.0563  0.0522
 3650W        W21174   8.010  11.182  16.128  0.1194 -0.1388 -0.2054
 3651W        W21175   0.578  12.584  12.928  0.0330  0.1906  0.1546
 3652W        W21176  11.965  10.757  15.572 -0.3179 -0.2841 -0.0493
 3653W        W21177  14.564  14.192  10.842  0.2015  0.1465 -0.0981
 3654W        W21178   4.979   5.791  13.206 -0.0162 -0.1100 -0.1096
 3655W        W21179   4.156   5.861  15.444  0.3600 -0.2570 -0.1361
 3656W        W21180   6.180  13.140   0.180  0.0767 -0.0180  0.0762
 3657W        W21181  15.520   7.330   3.842 -0.2735  0.2217  0.0121
 3658W        W21182   3.936   5.017  12.309  0.1954 -0.1064 -0.2486
 3659W        W21183  13.087   7.170  11.337 -0.1557 -0.0461  0.2539
 3660W        W21184   4.334   2.615   0.324  0.1597  0.0382  0.1296
 3661W        W21185   0.525  15.380   2.768 -0.0368 -0.0226  0.1152
 3662W        W21186  10.757  13.590  14.113 -0.0103  0.0531 -0.2877
 3663W        W21187   3.578   3.860  13.597  0.4182  0.2264 -0.1011
 3664W        W21188   7.311   0.922  13.300 -0.0684  0.0448 -0.0709
 3665W        W21189  16.844   1.138  14.130  0.0700 -0.2509 -0.4610
 3666W        W21190  11.243   3.920  14.601 -0.1904  0.1726 -0.1243
 3667W        W21191  17.450   1.511  16.031  0.2315 -0.1457 -0.1049
 3668W        W21192   7.108  17.291  11.242 -0.0019  0.2089  0.1539
 3669W        W21193  11.876  11.088  13.622 -0.0897 -0.0641 -0.1413
 3670W        W21194   1.154   8.973  13.570  0.1253 -0.2933 -0.1427
 3671W        W21195  13.770   7.519  15.578  0.1690 -0.1472 -0.1834
 3672W        W21196  16.155  11.300   4.815 -0.1535  0.2215  0.0317
 3673W        W21197   9.144   8.837   3.487 -0.1274  0.0960  0.0570
 3674W        W21198   9.434  17.717  11.336  0.3406  0.0246 -0.2761
 3675W        W21199  13.062   0.546   1.666  0.1063  0.1177  0.0218
 3676W        W21200  10.703  13.263  14.631  0.1655 -0.1412 -0.1452
 3677W        W21201   9.519   4.106   0.131  0.1940  0.1295 -0.2076
 3678W        W21202   2.860  15.438  11.890 -0.0352 -0.0685  0.0354
 3679W        W21203   0.446  10.621   0.893 -0.1259 -0.0028  0.0260
 3680W        W21204   5.161   9.982   4.798 -0.4453 -0.2154 -0.0148
 3681W        W21205  15.301   6.480  14.151  0.2484 -0.1678  0.1849
 3682W        W21206  17.091   1.583   0.644 -0.2110  0.1421  0.2654
 3683W        W21207   1.538  16.026  12.325  0.1612 -0.0293  0.0165
 3684W        W21208   5.273   4.309  16.121  0.0842 -0.0302  0.0437
 3685W        W21209  11.136   3.683  13.735 -0.0328  0.0329  0.0155
 3686W        W21210   9.423  10.460  14.434 -0.0329 -0.2920 -0.1167
 3687W        W21211   1.782   9.008   3.957  0.1216  0.0084 -0.1123
 3688W        W21212   4.117  13.052   4.755 -0.3275  0.0578 -0.0316
 3689W        W21213   8.713  11.914  16.202  0.0171 -0.2639  0.2652
 3690W        W21214   3.438   5.416   2.535  0.0603 -0.0352 -0.2601
 3691W        W21215  13.196  11.776   0.020 -0.0331  0.1567 -0.1390
 3692W        W21216   7.063   1.933   3.741 -0.2178 -0.1264 -0.0072
 3693W        W21217   8.253   2.790  15.987 -0.0517 -0.1033  0.1564
 3694W        W21218   2.806  14.359  14.730  0.0934  0.1952  0.1565
 3695W        W21219   7.713   8.071  11.682  0.0546 -0.3662  0.0053
 3696W        W21220  17.028  12.361  11.051 -0.1454 -0.0390 -0.1442
 3697W        W21221   6.618  17.188  11.418  0.1004 -0.0198  0.0238
 3698W        W21222   5.856  11.799   0.997  0.0882 -0.1562 -0.2133
 3699W        W21223  16.490   2.689  15.450  0.1616  0.2367  0.0381
 3700W        W21224   4.586   3.139  14.219  0.1333  0.1823  0.3947
 3701W        W21225   4.825  15.620  14.931 -0.0143 -0.1484  0.3142
 3702W        W21226   4.376  17.759  12.720 -0.1995 -0.2106 -0.2291
 3703W        W21227   5.436   6.251  12.967 -0.1725  0.3028 -0.4247
 3704W        W21228   7.340   8.084  14.354  0.1312  0.2216  0.2399
 3705W        W21229  12.479   1.109   4.329 -0.0632  0.3104 -0.1991
 3706W        W21230   7.356  14.109  15.086 -0.0393  0.0588 -0.0608
 3707W        W21231   3.921  15.396   2.127 -0.0573 -0.1908 -0.0098
 3708W        W21232  15.450  10.444   2.658  0.1177 -0.2388 -0.0387
 3709W        W21233  11.058   5.972   5.147  0.2472  0.0433 -0.2549
 3710W        W21234   6.835   1.088   1.923 -0.2396  0.2335 -0.1528
 3711W        W21235  17.735  10.749   6.085  0.3601  0.0949  0.2417
 3712W        W21236  16.293  10.015  14.437 -0.2104 -0.1903  0.0183
 3713W        W21237   4.274  10.363   4.399  0.0812  0.2171 -0.0615
 3714W        W21238   7.883  17.487   1.417  0.4184  0.2043  0.1313
 3715W        W21239  12.320  13.730  11.874  0.1689 -0.0053 -0.1654
 3716W        W21240  12.681   0.296  15.139 -0.0008  0.2243  0.1859
 3717W        W21241  12.242  13.372   1.114 -0.2197 -0.1046  0.2261
 3718W        W21242  15.731   0.731   4.282  0.2209 -0.1112 -0.0671
 3719W        W21243   3.034   3.906  15.014 -0.2431 -0.1210 -0.0004
 3720W        W21244   5.584   7.680   1.487 -0.1520  0.0619  0.1242
 3721W        W21245   1.423   9.599  10.356  0.0464 -0.0032  0.0108
 3722W        W21246  13.694  11.967  14.194  0.1564  0.2173 -0.1868
 3723W        W21247  16.309  10.532   2.771 -0.1248  0.1930 -0.1942
 3724W        W21248  11.979  10.167  11.307  0.1016  0.1546 -0.1287
 3725W        W21249   3.764   5.494  13.984 -0.1370 -0.3549  0.2751
 3726W        W21250   2.175   2.643   1.237 -0.1808 -0.0739  0.1917
 3727W        W21251   2.537   6.685  13.282 -0.0145  0.1257  0.1072
 3728W        W21252  12.370  11.053   3.341  0.0437 -0.1129 -0.0656
 3729W        W21253   0.432   3.792  15.401 -0.3112  0.2744  0.0622
 3730W        W21254  13.162   1.557   0.651  0.0794 -0.0110  0.0736
 3731W        W21255   8.935   1.850   4.855  0.0665  0.0486 -0.0023
 3732W        W21256  12.918  15.786   0.190 -0.2702 -0.0395  0.0224
 3733W        W21257  17.945  15.413   3.431  0.1649 -0.1825 -0.1826
 3734W        W21258  15.182   2.376   0.952  0.2423 -0.1169 -0.2209
 3735W        W21259  14.683  14.706   0.144 -0.2425  0.0534  0.2874
 3736W        W21260  15.600   3.641  15.428  0.1289  0.1354  0.0251
 3737W        W21261   2.699   7.866   3.931 -0.0563 -0.0617 -0.1014
 3738W        W21262  10.090  12.223  13.692  0.1008  0.0407 -0.1988
 3739W        W21263  15.953  10.391  11.877 -0.0310  0.0795  0.0121
 3740W        W21264  15.421   5.640   4.251  0.2875  0.1204  0.3112
 3741W        W21265   7.026  14.158  14.586  0.1379  0.0397  0.3849
 3742W        W21266   9.226   3.279   4.529 -0.2179 -0.2891  0.2751
 3743W        W21267   6.100   4.491  12.634  0.1909  0.0782 -0.0336
 3744W        W21268  17.657  11.985  11.809 -0.5070 -0.1160  0.2548
 3745W        W21269  15.686   0.032  11.541  0.2148 -0.0483  0.4237
 3746W        W21270   0.467   1.115   3.698 -0.0338 -0.1255 -0.0668
 3747W        W21271   5.263  12.256   2.296  0.0783 -0.0376 -0.0777
 3748W        W21272  13.628  17.074   2.396  0.1183 -0.0066  0.1391
 3749W        W21273   8.134   9.228  15.251  0.2731  0.3964  0.0690
 3750W        W21274  17.889  14.566  11.831 -0.1316 -0.0112  0.4535
 3751W        W21275   2.857  17.275   5.433  0.0956 -0.3669  0.1443
 3752W        W21276   8.533   8.744  13.838  0.0125 -0.2829 -0.0352
 3753W        W21277   3.426  13.730   1.720 -0.0407  0.0649  0.1590
 3754W        W21278   9.352   7.282   0.197 -0.0106  0.1364 -0.1799
 3755W        W21279   6.322  17.063  10.812  0.2882  0.2307 -0.0513
 3756W        W21280   9.265   3.009   0.653 -0.1982  0.1883  0.0527
 3757W        W21281   2.786  15.117   5.682 -0.1256 -0.1404 -0.2126
 3758W        W21282  12.417  13.517  13.860 -0.2263 -0.3751  0.1511
 3759W        W21283   2.453  10.471   2.119 -0.0678 -0.1224  0.0753
 3760W        W21284   6.074   4.370  11.619  0.1449 -0.1208 -0.1018
 3761W        W21285   9.143   1.908   0.045 -0.4960  0.1036  0.1510
 3762W        W21286   8.584  14.734  13.238  0.0525 -0.0250 -0.0169
 3763W        W21287   6.280  11.735  15.983 -0.1031  0.3062 -0.1418
 3764W        W21288   6.719   4.124   1.626 -0.3564 -0.0723  0.0264
 3765W        W21289   3.528  11.687  11.217 -0.0166  0.0873  0.1266
 3766W        W21290   5.989   9.182  14.525  0.0831  0.1235  0.0383
 3767W        W21291   0.482   1.848   4.288  0.1310 -0.0088  0.1987
 3768W        W21292   8.468   0.234   4.118 -0.3619  0.1200 -0.0194
 3769W        W21293   7.627   1.551  11.686  0.0675 -0.1238  0.0945
 3770W        W21294  12.745  14.544   2.031 -0.2119  0.3866  0.0130
 3771W        W21295   5.281  14.714  12.972  0.0674  0.0228  0.0275
 3772W        W21296   0.856   0.487  15.837 -0.2162  0.0868  0.0651
 3773W        W21297   7.130   8.901  11.000  0.1032  0.1102  0.3218
 3774W        W21298   9.038  16.070  13.968 -0.0991 -0.2652  0.1520
 3775W        W21299  10.819   5.162  11.251  0.0650 -0.1839 -0.0121
 3776W        W21300  13.340   7.095   1.021  0.1305 -0.0444  0.0766
 3777W        W21301  11.389   2.701   3.705  0.3951  0.0193  0.2312
 3778W        W21302  17.943  15.634   0.870  0.3172  0.1364 -0.0664
 3779W        W21303  12.190  10.899  16.023 -0.2988  0.1831  0.0131
 3780W        W21304   1.157   5.628   0.246 -0.1655 -0.1094  0.1839
 3781W        W21305  10.064   9.974   3.909  0.1214 -0.1750  0.1604
 3782W        W21306  14.019   0.054   0.080  0.1781  0.1871 -0.0539
 3783W        W21307  12.239  15.500   1.138  0.3230  0.1498 -0.1802
 3784W        W21308  16.434  15.765  12.266 -0.1997  0.1168  0.3138
 3785W        W21309  14.048  14.705  12.820 -0.2523  0.0640 -0.1355
 3786W        W21310   1.178   0.391  13.830 -0.0113  0.0749 -0.0704
 3787W        W21311   3.838   3.078   2.861  0.0144  0.1402 -0.0103
 3788W        W21312   4.656   2.376   0.718  0.1191 -0.1201  0.0701
 3789W        W21313   6.131   0.158  11.386 -0.2318 -0.0474 -0.3147
 3790W        W21314   8.950   5.501   1.634  0.0154 -0.1784 -0.2984
 3791W        W21315  11.761  15.355  15.545 -0.0527  0.0586 -0.0741
 3792W        W21316   3.017  16.237   3.673  0.0962  0.1363  0.1914
 3793W        W21317   9.288  12.332   0.387  0.1367 -0.0966 -0.0081
 3794W        W21318  16.541  15.760  15.123 -0.1226  0.0895 -0.1881
 3795W        W21319  14.363   5.564  14.681  0.3957  0.0969 -0.3879
 3796W        W21320  11.826  11.030  11.657  0.0064  0.1589  0.0211
 3797W        W21321   6.024  10.104  14.481 -0.0831  0.0850  0.0080
 3798W        W21322  12.802  13.337   5.986  0.0034 -0.0520 -0.0038
 3799W        W21323  11.014   6.326   4.737  0.0182  0.0169 -0.1109
 3800W        W21324   9.240   6.905   4.352  0.4686  0.2512  0.0804
 3801W        W21325   6.197  12.184   1.849  0.1690 -0.0411  0.0108
 3802W        W21326   1.810   7.916   1.921  0.0791 -0.0151  0.0688
 3803W        W21327  13.863  10.583  14.750 -0.1490  0.1855 -0.0241
 3804W        W21328   1.562   5.044   1.450 -0.0741 -0.1572 -0.0760
 3805W        W21329   0.625   4.407  16.255 -0.2335  0.0515  0.1583
 3806W        W21330  12.879   1.457  11.520  0.0128 -0.1028 -0.0865
 3807W        W21331  17.804  17.909   0.353 -0.1047 -0.0710 -0.2491
 3808W        W21332  13.875   2.694  14.838  0.1480 -0.0944 -0.1333
 3809W        W21333   2.966   0.056  14.150 -0.0632 -0.0514  0.2417
 3810W        W21334   4.683  11.289   6.072 -0.1218 -0.0625  0.0688
 3811W        W21335   7.905   4.225   1.860 -0.0005  0.0137 -0.2343
 3812W        W21336   7.958  16.673   4.118 -0.0232  0.0181  0.2490
 3813W        W21337   7.525   5.168  15.118 -0.2279  0.2085  0.1253
 3814W        W21338  11.486   7.066  15.007 -0.1064  0.3150  0.2135
 3815W        W21339   4.118  17.060   0.972 -0.1221  0.0618  0.0679
 3816W        W21340   5.722  10.555   4.136 -0.0286 -0.1056  0.0452
 3817W        W21341   3.586   2.985  11.586 -0.5107  0.2337  0.0563
 3818W        W21342  15.661   7.466   1.241 -0.1923  0.0430 -0.0149
 3819W        W21343  11.119  12.273  12.164  0.2213  0.0020  0.2200
 3820W        W21344  15.020  11.557   5.931 -0.0677  0.2318 -0.0301
 3821W        W21345  14.093   4.960  11.842 -0.1378 -0.0899 -0.1342
 3822W        W21346   5.604  12.471   0.410 -0.1057  0.1348  0.1463
 3823W        W21347  12.607   8.731  11.003 -0.2835 -0.3506  0.2114
 3824W        W21348   6.156   1.562  12.723 -0.2286 -0.1613  0.1929
 3825W        W21349   1.220   9.668   4.992  0.0862  0.2456 -0.0727
 3826W        W21350  16.584   4.735  13.030 -0.1477 -0.0936  0.0402
 3827W        W21351  15.153   1.866   2.438 -0.2632 -0.0454  0.2869
 3828W        W21352  15.839  13.465   0.013  0.0036 -0.1729 -0.2544
 3829W        W21353   0.562  16.951  13.254  0.2834  0.1692 -0.0896
 3830W        W21354   9.132  15.642   5.481  0.1080 -0.3265  0.1746
 3831W        W21355   1.077   7.142   1.772 -0.1113 -0.3742 -0.1833
 3832W        W21356   7.761  14.548  15.812 -0.2937  0.2730  0.0259
 3833W        W21357   5.725   4.127  12.824 -0.1419 -0.1812  0.2350
 3834W        W21358  10.261   4.733  12.499 -0.1030 -0.2786  0.0968
 3835W        W21359   3.794   9.237  15.373 -0.2070 -0.1236 -0.0234
 3836W        W21360   7.970   7.684  15.449 -0.0812  0.0202 -0.1361
 3837W        W21361   4.561   0.929  15.272 -0.1792 -0.0230 -0.2115
 3838W        W21362  11.079   3.144   1.120 -0.0873  0.2294  0.1826
 3839W        W21363   9.946   7.878   2.491  0.1326  0.0735 -0.0469
 3840W        W21364   7.703  12.493  12.792  0.0850  0.0529 -0.2465
 3841W        W21365   0.113  14.920  12.105  0.1376 -0.0189 -0.2555
 3842W        W21366  17.327   1.134   0.749 -0.0702 -0.0379  0.0945
 3843W        W21367  16.402   7.192  15.097 -0.1418 -0.0499  0.2662
 3844W        W21368  17.878   7.762   1.879 -0.1045 -0.1420  0.0829
 3845W        W21369  10.726   1.777  11.301 -0.1648 -0.0877  0.1540
 3846W        W21370  16.954  15.284   2.718 -0.0765  0.0601  0.0128
 3847W        W21371  15.688  10.800  14.711  0.2273  0.1238  0.2114
 3848W        W21372  16.616  17.265   4.258  0.0588 -0.1222  0.0342
 3849W        W21373  11.816  15.399   0.195 -0.5403  0.0056 -0.0735
 3850W        W21374  11.255  13.942   4.954 -0.1496  0.0701  0.3068
 3851W        W21375   1.469  14.391  13.791 -0.3937  0.2195  0.1863
 3852W        W21376   6.666   9.648   2.880 -0.4772 -0.0328 -0.3029
 3853W        W21377  11.819  10.957   1.025  0.2380  0.0004  0.2872
 3854W        W21378   0.183  14.682   1.353 -0.1000 -0.1586 -0.1172
 3855W        W21379  11.555   7.410   4.274  0.0166 -0.2674  0.2010
 3856W        W21380   1.042   7.278  13.924  0.1803 -0.3198 -0.2253
 3857W        W21381  10.181  14.050  13.868  0.1494  0.1622 -0.0228
 3858W        W21382   8.543   1.598  14.374  0.4161  0.0295 -0.2969
 3859W        W21383  10.404   5.067  16.075  0.0848 -0.2412  0.4078
 3860W        W21384   7.024  16.466   3.586  0.0164  0.0549 -0.0823
 3861W        W21385   9.137   0.702   4.072  0.2762  0.1389 -0.2293
 3862W        W21386   2.488  15.243  16.118  0.0758  0.1477  0.0920
 3863W        W21387   4.203   8.544   0.538 -0.0613 -0.1807 -0.2178
 3864W        W21388   3.611   2.203  14.249  0.0490  0.2342 -0.1924
 3865W        W21389  15.108   0.928  12.069  0.3042  0.0649 -0.2960
 3866W        W21390  16.043   9.786   2.582  0.1871  0.1493  0.0404
 3867W        W21391   7.940   1.250  11.986  0.2119 -0.1869 -0.2626
 3868W        W21392   8.084  10.480   2.136 -0.2822  0.1960  0.2513
 3869W        W21393   8.324   6.891  13.061  0.2066  0.0283 -0.1790
 3870W        W21394  14.833  17.911   2.552  0.2273  0.1219 -0.0004
 3871W        W21395  15.215  12.324  14.219  0.3153  0.3710 -0.1226
 3872W        W21396   2.156  15.046   0.349 -0.2226 -0.1555 -0.1565
 3873W        W21397   0.806  13.569  10.861  0.0503  0.1526 -0.1408
 3874W        W21398  14.061   2.547   4.851 -0.3806 -0.0724  0.2264
 3875W        W21399  16.094  13.094   3.488  0.1045  0.0798  0.0624
 3876W        W21400  12.392  12.633  14.553  0.0912 -0.0909 -0.0534
 3877W        W21401   9.773   6.895   4.233 -0.1851 -0.2831 -0.1351
 3878W        W21402   5.254   0.311   1.355 -0.1160  0.2745  0.4311
 3879W        W21403   0.463   5.749   3.952  0.0255 -0.3612 -0.1197
 3880W        W21404   7.679  16.249  11.629 -0.1822  0.0984 -0.5240
 3881W        W21405  15.762  13.326   4.290  0.1996 -0.1429 -0.1459
 3882W        W21406   0.911   5.926  12.059 -0.1421 -0.1636 -0.1763
 3883W        W21407   2.349  10.725  13.648 -0.5075 -0.1075  0.0555
 3884W        W21408  15.879   4.526  16.176  0.0018  0.0560  0.0285
 3885W        W21409  12.370   5.744  13.604  0.0292 -0.1399 -0.0994
 3886W        W21410   5.926   7.563  16.161  0.1887 -0.0063  0.2437
 3887W        W21411  11.068   6.575   0.528 -0.1107 -0.1908 -0.1113
 3888W        W21412  16.044   2.865   0.958 -0.0355  0.0550  0.1327
 3889W        W21413   4.673   2.104   4.549  0.0974 -0.2381  0.1717
 3890W        W21414   8.588   9.064   5.966  0.2666 -0.3664  0.1989
 3891W        W21415   8.822   5.836   3.442  0.0758  0.0471 -0.1261
 3892W        W21416   7.300   1.850   2.204  0.2448 -0.0060 -0.3934
 3893W        W21417  10.477   3.824  15.836 -0.2059 -0.3260  0.0767
 3894W        W21418  17.769   0.623   5.122  0.0431 -0.0142 -0.2373
 3895W        W21419   7.278   9.146  11.439  0.0563  0.3119 -0.2463
 3896W        W21420   4.783  17.289   4.241 -0.1824 -0.2755  0.1528
 3897W        W21421   3.531  10.055  13.061  0.1731  0.2148 -0.1979
 3898W        W21422   9.973  14.404   0.089  0.1092  0.2105  0.2197
 3899W        W21423  11.786  10.654   2.119 -0.1095  0.2011  0.0611
 3900W        W21424   8.505  14.651   4.329  0.3453 -0.0672  0.0389
 3901W        W21425   0.833   4.934  12.064 -0.0763 -0.1987  0.0320
 3902W        W21426  16.459   1.160   4.390  0.2814 -0.0326 -0.0845
 3903W        W21427   6.383  10.352  12.189 -0.2184  0.2959  0.1971
 3904W        W21428   2.359   6.525   0.658 -0.0378  0.0421 -0.0493
 3905W        W21429  13.253   8.084  10.925 -0.1635  0.1120 -0.0940
 3906W        W21430   5.124  17.449   4.725 -0.1914  0.0446 -0.1817
 3907W        W21431   9.440  11.080  15.142 -0.0348 -0.1495  0.4937
 3908W        W21432   0.027   8.296  14.083 -0.0588  0.3048  0.0839
 3909W        W21433   0.750  12.263   0.975  0.4107 -0.1145 -0.0088
 3910W        W21434   2.341   5.774  16.235 -0.1670 -0.1237  0.0392
 3911W        W21435  13.108  13.087  11.107  0.1411 -0.2612 -0.0227
 3912W        W21436  13.960   0.075  12.174 -0.1433 -0.0847 -0.1119
 3913W        W21437   2.154   5.579  11.604  0.0335  0.0519  0.3518
 3914W        W21438   7.026  11.104   1.153  0.0034  0.1962  0.0937
 3915W        W21439  13.756   6.404  11.251  0.5242  0.1295  0.0371
 3916W        W21440   2.948   7.698   3.224 -0.2242  0.2302 -0.0840
 3917W        W21441   0.521  17.727   4.621 -0.0252  0.0328  0.1961
 3918W        W21442  14.242  13.956   3.346  0.0616 -0.2018  0.0820
 3919W        W21443  11.525  17.238  14.114 -0.2332 -0.0065 -0.0807
 3920W        W21444   9.819   2.757  11.550  0.0732  0.1408 -0.1476
 3921W        W21445  15.263   7.849  15.755 -0.1882 -0.3183  0.2055
 3922W        W21446   0.975   4.154  13.690  0.2447 -0.2036 -0.0697
 3923W        W21447   4.757  17.552   1.838 -0.1187  0.0779 -0.0461
 3924W        W21448  10.398   3.874   4.740 -0.3276  0.2250 -0.0446
 3925W        W21449   5.957   6.099  13.128 -0.2391  0.0347 -0.2681
 3926W        W21450  13.764   2.181  14.948  0.0042 -0.0070 -0.4598
 3927W        W21451  16.565  11.767  12.256 -0.1689 -0.0341  0.2639
 3928W        W21452  10.427   5.375   1.765  0.3620  0.3530 -0.1113
 3929W        W21453  13.398   5.317   3.122  0.2130 -0.1334 -0.1527
 3930W        W21454   5.801   4.586  13.489  0.1604  0.0614  0.0310
 3931W        W21455   9.060  13.219   3.603  0.1168 -0.3168  0.1480
 3932W        W21456   5.309  17.571   1.889 -0.1126 -0.2846  0.1058
 3933W        W21457  17.582   4.700   0.876  0.0449 -0.1698 -0.1597
 3934W        W21458  10.788   5.306   2.974 -0.0617 -0.2835 -0.2061
 3935W        W21459   4.995  16.936   4.728  0.2247 -0.0038  0.2315
 3936W        W21460   6.627   2.315  11.620  0.2595 -0.0598  0.0149
 3937W        W21461   8.914   5.956   5.448 -0.2038  0.1365  0.1508
 3938W        W21462   1.567   0.944  15.476  0.4714 -0.0729  0.1211
 3939W        W21463  11.633   1.102   3.250 -0.1216 -0.0674 -0.0444
 3940W        W21464  16.135  15.347  14.875  0.1132 -0.2580  0.0680
 3941W        W21465   4.634   7.352   5.615  0.1843 -0.0877 -0.0899
 3942W        W21466  16.849   6.762   1.432 -0.1938  0.1877  0.3930
 3943W        W21467   6.456   8.041   3.662 -0.3269  0.0925  0.3294
 3944W        W21468  17.072  15.309   0.766  0.2529  0.0745 -0.0436
 3945W        W21469   0.030  12.465  12.213  0.0012 -0.1175 -0.3194
 3946W        W21470   8.670  10.864   2.223  0.0268 -0.2166  0.1395
 3947W        W21471  10.294   3.259   0.070 -0.1257  0.1902 -0.1276
 3948W        W21472   9.262   4.999   3.829 -0.1598  0.0382 -0.1402
 3949W        W21473   0.142  15.826  11.185 -0.2494  0.0342  0.0383
 3950W        W21474  16.689   4.666   1.994  0.0683  0.0550 -0.0117
 3951W        W21475   9.205   4.479  15.602 -0.1148 -0.1157  0.0301
 3952W        W21476   4.484   1.379  16.114 -0.0841 -0.0911  0.0635
 3953W        W21477   7.958  11.087   0.383  0.1591 -0.0284  0.1370
 3954W        W21478   1.234  13.671  13.032 -0.0750 -0.1715 -0.0582
 3955W        W21479   4.084   0.383  14.080  0.0920  0.1241 -0.1115
 3956W        W21480   2.468   6.707  11.779 -0.1511 -0.1845  0.1853
 3957W        W21481  16.896  16.406  11.539 -0.3069  0.0408 -0.0674
 3958W        W21482  14.866   2.514  14.619  0.0968  0.0149  0.1742
 3959W        W21483   7.256  15.174  12.823 -0.0049  0.0312  0.0545
 3960W        W21484   0.730  16.977  15.890 -0.1511 -0.0094  0.0430
 3961W        W21485  14.547  14.364   2.471 -0.2947 -0.2270  0.2065
 3962W        W21486  11.540   1.107  13.018 -0.0715 -0.1863 -0.4565
 3963W        W21487   6.219   9.486   2.165 -0.0144 -0.0723  0.0070
 3964W        W21488   1.882   3.932  12.531  0.1009  0.1193 -0.0409
 3965W        W21489  17.424   3.859   0.898  0.1854  0.3698 -0.2540
 3966W        W21490   6.009   6.323   4.608  0.2778 -0.5393  0.0495
 3967W        W21491   5.547   2.478  15.025 -0.1194 -0.1153  0.2829
 3968W        W21492  12.575   0.985  15.579 -0.1670 -0.0231 -0.0578
 3969W        W21493  10.656  17.774  14.672  0.0549  0.1674  0.1780
 3970W        W21494  16.371  12.690   3.548  0.0711  0.1990  0.1996
 3971W        W21495   9.917   3.735   4.052 -0.0719  0.2748  0.1917
 3972W        W21496  15.397   1.702   4.991 -0.1366  0.0781 -0.3389
 3973W        W21497  17.716  16.487   0.568 -0.0205  0.0145 -0.0843
 3974W        W21498  15.488  15.806  15.285  0.1646  0.0955 -0.1551
 3975W        W21499  12.039  11.337  14.253  0.2430  0.2446  0.1553
 3976W        W21500  10.120   3.269   3.974 -0.0228  0.1134  0.0146
 3977W        W21501   0.722   9.873   1.553  0.0932 -0.1967  0.1059
 3978W        W21502   1.076   6.056   2.719  0.0979  0.1184  0.0939
 3979W        W21503  12.759   9.220  12.525  0.2240 -0.0123 -0.0323
 3980W        W21504   6.625   9.008   4.749 -0.0243  0.0107 -0.0339
 3981W        W21505   4.052   4.260  11.068 -0.2365 -0.1464 -0.1077
 3982W        W21506   1.694  11.239   0.028 -0.1161  0.1160 -0.0200
 3983W        W21507   1.814  16.684   1.265  0.1187 -0.3651 -0.0834
 3984W        W21508  13.439  13.127   3.782 -0.2156  0.0110  0.0656
 3985W        W21509   2.251   2.406  13.919  0.1883  0.1501  0.0131
 3986W        W21510  10.728  17.690  12.267 -0.3708 -0.2121 -0.0772
 3987W        W21511  14.829   6.398   3.952  0.1955  0.3412 -0.0798
 3988W        W21512  14.506   8.633  12.890  0.0474 -0.1790 -0.2890
 3989W        W21513   2.297  15.980   0.346  0.0990  0.0333 -0.2143
 3990W        W21514  17.254  11.463   2.487 -0.1094  0.1839  0.0475
 3991W        W21515   3.427  11.752   5.035  0.1001 -0.0901  0.0067
 3992W        W21516   0.031   4.498   1.979  0.3005 -0.1669 -0.1428
 3993W        W21517   4.847  14.943   6.229  0.2216  0.0875 -0.1817
 3994W        W21518  17.260  11.623   4.300 -0.2878  0.0270 -0.0448
 3995W        W21519   4.188  17.905  11.553  0.4109 -0.4957  0.1508
 3996W        W21520  16.297  16.735   3.322  0.1015 -0.0387  0.0870
 3997W        W21521   6.680   0.635   5.726 -0.0394  0.1190  0.1029
 3998W        W21522   2.082  11.730   3.714 -0.1592  0.1159  0.1837
 3999W        W21523   6.275   7.632   3.847 -0.2160 -0.1153  0.2522
 4000W        W21524   4.430  16.403   4.275  0.0225 -0.0389  0.1477
 4001W        W21525   6.559   6.178  12.271  0.0889  0.1332  0.1154
 4002W        W21526   8.779  16.400   4.193  0.1218  0.1638 -0.0839
 4003W        W21527   1.244  12.957  12.822  0.0831  0.0818 -0.0893
 4004W        W21528   3.947  14.552  16.093  0.1655  0.1232  0.0623
 4005W        W21529   6.789  16.988  13.230  0.2424  0.1174 -0.0535
 4006W        W21530   3.225  17.805   3.555 -0.2348  0.2391 -0.2303
 4007W        W21531   6.194  13.370   3.100  0.0581 -0.1560  0.0437
 4008W        W21532   8.315   6.859   3.901 -0.1359  0.2741 -0.0210
 4009W        W21533  16.017   6.325  15.209  0.0423  0.0868 -0.1966
 4010W        W21534   0.678  17.002   1.759  0.2296  0.1995  0.4650
 4011W        W21535   4.810   6.547   3.497  0.1461  0.0221 -0.0062
 4012W        W21536   8.895   6.283  14.756 -0.2752  0.1049 -0.0777
 4013W        W21537   2.218   4.224   5.693  0.0987  0.0002 -0.0410
 4014W        W21538   7.863  11.413  12.042  0.0992 -0.1055  0.1366
 4015W        W21539   7.209   4.256  16.245 -0.1057 -0.0826  0.2088
 4016W        W21540  10.742  16.024   5.020 -0.0584  0.0885  0.0340
 4017W        W21541  11.434  16.422  14.459 -0.3158  0.2078 -0.0697
 4018W        W21542   8.003   3.166  16.154  0.0497 -0.3551 -0.1396
 4019W        W21543   5.887  16.951  14.284  0.1293 -0.0883  0.0029
 4020W        W21544   1.075   3.713  14.677 -0.0412  0.0822  0.0499
 4021W        W21545  14.779  14.149  15.121  0.0088 -0.1276 -0.1299
 4022W        W21546  16.197  15.756  12.832 -0.0209  0.1859 -0.0453
 4023W        W21547   9.920  13.508  15.594 -0.2137 -0.2096  0.2008
 4024W        W21548   8.887   5.826  11.695 -0.1287  0.3797 -0.1184
 4025W        W21549   4.026   8.403  13.147  0.0255  0.1424 -0.2418
 4026W        W21550   2.805  17.204   1.413 -0.3075 -0.1091  0.3027
 4027W        W21551  14.516  10.452   1.511  0.2813  0.2676 -0.0109
 4028W        W21552   1.339  11.776  11.306 -0.2525 -0.0193  0.1579
 4029W        W21553  16.583  11.722   4.213 -0.2655  0.0213  0.1673
 4030W        W21554  17.814   3.217   5.165 -0.2053  0.0770 -0.4642
 4031W        W21555  11.098  14.453   3.609 -0.0596 -0.1905 -0.2830
 4032W        W21556   1.655   5.210   2.670 -0.0437  0.0272  0.3897
 4033W        W21557   2.270   3.677   0.147 -0.0327 -0.1204  0.0237
 4034W        W21558  16.471   0.140   1.891  0.3140 -0.0106 -0.2464
 4035W        W21559  14.809  16.107   2.683  0.0413  0.2372  0.1166
 4036W        W21560  15.304   3.344   4.744 -0.1073 -0.1080  0.1623
 4037W        W21561   4.647   0.052  13.143  0.4630 -0.2052 -0.1290
 4038W        W21562   5.938   9.393   1.641  0.1071 -0.2233 -0.1270
 4039W        W21563   6.328   7.827  10.463  0.0338  0.1099 -0.1001
 4040W        W21564  10.613   9.291   0.899 -0.2440  0.3004 -0.1948
 4041W        W21565   1.292  17.371   2.551 -0.0828  0.2155  0.0611
 4042W        W21566  11.328  16.951   3.008 -0.2893  0.1644  0.1020
 4043W        W21567   4.977  16.672  12.996 -0.2556  0.1467 -0.0390
 4044W        W21568  10.205   6.878  11.066 -0.1794 -0.1107  0.1469
 4045W        W21569   8.659   5.323  12.595  0.0095 -0.0464 -0.0681
 4046W        W21570   2.791   6.585   0.456  0.1517  0.0633 -0.0614
 4047W        W21571  14.162  17.406  13.684 -0.0903  0.3395  0.1686
 4048W        W21572  14.019  13.476   0.648  0.0008 -0.1158  0.0552
 4049W        W21573   2.324   1.153  13.579 -0.0909  0.3639  0.0906
 4050W        W21574   1.368  14.806  13.504 -0.2047  0.1272 -0.0048
 4051W        W21575  14.118   8.224  13.852 -0.1767  0.0043 -0.1641
 4052W        W21576   8.158  11.382  12.876  0.0382 -0.0965  0.0821
 4053W        W21577  13.852  17.511   1.548 -0.0371  0.2950 -0.1350
 4054W        W21578   5.759   7.563  15.205  0.1178 -0.1249  0.2743
 4055W        W21579  12.998  16.812  13.990 -0.0084 -0.1949  0.2804
 4056W        W21580   1.377   3.430   3.235 -0.1290  0.1921 -0.0572
 4057W        W21581  11.874  17.565  13.859 -0.0358 -0.1475 -0.2443
 4058W        W21582  10.945  17.911  11.774  0.2496  0.3912  0.3080
 4059W        W21583   5.505   3.640  13.816 -0.2661 -0.0792 -0.2299
 4060W        W21584  17.429  15.077  11.304 -0.0360 -0.3779 -0.0787
 4061W        W21585  12.956  14.029  12.510  0.1995  0.0274  0.1591
 4062W        W21586  11.401  13.154   0.513  0.1203 -0.1779 -0.0524
 4063W        W21587  11.928   7.670   3.990 -0.0276  0.0788 -0.1268
 4064W        W21588   9.740   5.917   2.382 -0.0682  0.2719 -0.1212
 4065W        W21589   9.578  15.292  11.730  0.0120 -0.0003 -0.2398
 4066W        W21590  14.407  17.907  13.593 -0.0088  0.1283  0.0022
 4067W        W21591  13.499   0.716   0.425 -0.3073 -0.1125  0.1713
 4068W        W21592  16.730  13.667   3.538  0.0542 -0.1124  0.0345
 4069W        W21593  16.660   6.154   2.405  0.0236 -0.0985 -0.2658
 4070W        W21594   8.548   5.928  14.441 -0.1664  0.2624 -0.2647
 4071W        W21595   4.956  17.906  15.034  0.0927 -0.2054 -0.0502
 4072W        W21596  11.144  12.510  14.414  0.0511 -0.2456  0.2867
 4073W        W21597   3.963  14.940  13.485  0.1994 -0.0962  0.0874
 4074W        W21598   1.602  13.439  16.132 -0.0502 -0.0082  0.0505
 4075W        W21599   6.222   3.136   1.681 -0.0790  0.0717 -0.0672
 4076W        W21600   3.705  14.361   6.083  0.0442  0.0307 -0.0451
 4077W        W21601   4.677   9.985   1.733 -0.0984 -0.0612  0.0287
 4078W        W21602  15.419   9.851  12.922 -0.2731  0.0748  0.0400
 4079W        W21603  13.393  14.483   2.845 -0.0423  0.1000 -0.0519
 4080W        W21604   4.640  12.124  12.588  0.1598  0.0461  0.3169
 4081W        W21605  16.420   2.443   1.245 -0.2954 -0.0331  0.0834
 4082W        W21606   2.397   7.407   0.375 -0.1472 -0.1962 -0.0499
 4083W        W21607   1.024   4.134   0.311 -0.3351  0.0455  0.1156
 4084W        W21608   2.856  17.008   1.913 -0.1465  0.1932  0.2050
 4085W        W21609   3.148  10.318   0.071  0.0360 -0.2745 -0.3782
 4086W        W21610   3.603  10.005   1.608 -0.1164 -0.0898  0.4278
 4087W        W21611   5.176  17.166  12.652  0.0352  0.2629  0.0205
 4088W        W21612  16.024  13.843   4.326  0.2140  0.1418  0.0025
 4089W        W21613   0.313  13.747  13.498 -0.0781  0.1106 -0.0383
 4090W        W21614  10.191  17.518   4.237 -0.0203 -0.1953 -0.3246
 4091W        W21615   1.224   3.004  13.884 -0.2470  0.4846 -0.1261
 4092W        W21616  17.037  10.988   0.063  0.1593 -0.0450 -0.0491
 4093W        W21617  15.090  14.173   2.989 -0.0088 -0.1449 -0.2262
 4094W        W21618   1.015   7.608   4.355 -0.1667  0.2493 -0.1290
 4095W        W21619   8.521  10.910   3.763  0.0073  0.0689  0.0370
 4096W        W21620  11.632   9.498   1.329  0.0475  0.1597 -0.0452
 4097W        W21621  13.747  12.756  11.771  0.1453  0.0147 -0.1348
 4098W        W21622   7.730  16.725  14.221 -0.0800  0.0343  0.2862
 4099W        W21623   7.678   6.636   0.363  0.1591  0.0546  0.1714
 4100W        W21624  12.970   2.022  15.873  0.1150 -0.1484  0.1377
 4101W        W21625   4.855  15.029   2.025  0.1247 -0.2450 -0.1581
 4102W        W21626   2.511  14.952   4.860  0.0055 -0.2607  0.0339
 4103W        W21627   2.097  13.776   1.618  0.2944  0.1066 -0.0970
 4104W        W21628  17.236  13.792   3.452 -0.0760  0.3768 -0.1250
 4105W        W21629   6.295  16.311  12.993  0.1874 -0.0297  0.0260
 4106W        W21630   8.948  13.989  13.715 -0.4132 -0.2979 -0.2194
 4107W        W21631  16.650   9.642  13.897 -0.0064  0.2453  0.1858
 4108W        W21632  15.269   1.488  13.430  0.2101  0.1570 -0.1141
 4109W        W21633   5.926  17.127  15.422 -0.0795  0.0216 -0.2825
 4110W        W21634   1.308   1.262   2.515  0.1444  0.2518  0.2488
 4111W        W21635  17.090   7.982  13.246 -0.2108 -0.2844 -0.0396
 4112W        W21636   7.191   3.686   4.624  0.0629 -0.0022 -0.2911
 4113W        W21637  10.786  16.430  15.704 -0.1417 -0.1200 -0.2266
 4114W        W21638  12.429   2.549   2.607  0.0948 -0.3127  0.1449
 4115W        W21639   2.080  10.871   2.276  0.0533  0.2551 -0.0270
 4116W        W21640  12.549  12.387   0.399 -0.3791 -0.1549 -0.1624
 4117W        W21641   9.633   3.238  11.518  0.0258  0.1896 -0.1916
 4118W        W21642   6.411  11.230  15.868  0.3542  0.1275  0.0383
 4119W        W21643  11.704   9.516  12.206  0.0453 -0.0677  0.0885
 4120W        W21644   0.152  11.183  14.821  0.1347 -0.0424 -0.3110
 4121W        W21645   3.235   4.762   1.765 -0.1779  0.1168  0.2836
 4122W        W21646   7.528  13.864  11.490  0.0004  0.1946  0.3407
 4123W        W21647  17.215   2.480  11.507 -0.0779  0.3400 -0.0040
 4124W        W21648   7.899   3.239   3.891  0.2332  0.1384 -0.0338
 4125W        W21649   7.258   9.724  14.233 -0.2463  0.2920 -0.0886
 4126W        W21650  15.435  17.336  10.579  0.1135  0.2225  0.0389
 4127W        W21651   7.193  10.879  14.152 -0.0007 -0.2783  0.0115
 4128W        W21652  15.349  10.660   0.842 -0.0142  0.2803 -0.1192
 4129W        W21653   8.262   1.733  13.183 -0.0723  0.0376  0.0275
 4130W        W21654   6.376  17.191  14.032  0.0346  0.0962 -0.2564
 4131W        W21655   6.867  10.982  14.943  0.0449 -0.1926 -0.3047
 4132W        W21656   9.735  17.856   3.430 -0.1574  0.1256 -0.1017
 4133W        W21657  16.486   0.978   4.916  0.0054 -0.0349 -0.0970
 4134W        W21658  15.736  16.614  15.836  0.1273 -0.1397 -0.3141
 4135W        W21659   8.987   2.892   0.233  0.0178  0.0669  0.1112
 4136W        W21660   4.183   3.885  13.232  0.0324 -0.2066 -0.0688
 4137W        W21661   8.196  11.191  15.654  0.3725 -0.1062  0.2569
 4138W        W21662  10.918  16.020  15.310  0.2686  0.0460 -0.1716
 4139W        W21663  16.222   8.087  15.651  0.1526 -0.2094 -0.2242
 4140W        W21664   4.608  10.896   1.736  0.0544 -0.1736  0.3370
 4141W        W21665   6.369  10.458  11.641  0.0135 -0.2080  0.0421
 4142W        W21666   2.719   3.449  14.113  0.1027 -0.2097  0.3216
 4143W        W21667  12.709   2.810   3.050 -0.0374  0.1104 -0.1856
 4144W        W21668   2.995   7.952   4.920  0.0465 -0.1791  0.2813
 4145W        W21669   0.737   9.783   0.513 -0.0790 -0.2443 -0.1619
 4146W        W21670  17.365   1.979   3.780  0.2512 -0.1685 -0.0417
 4147W        W21671   5.759   4.258  14.524  0.1388  0.0169  0.2141
 4148W        W21672   3.068  16.306   2.440 -0.1294 -0.0708 -0.0544
 4149W        W21673   9.005  17.397   4.619 -0.1676 -0.0883 -0.0341
 4150W        W21674  17.002   5.750   1.718 -0.1749  0.2230  0.0165
 4151W        W21675  11.506  10.323   4.445  0.1333 -0.3177  0.2078
 4152W        W21676   8.476   7.627   3.114 -0.0929 -0.1319  0.3057
 4153W        W21677   0.164   0.398   2.398  0.0777  0.3668  0.2538
 4154W        W21678  12.246   1.124  13.944 -0.0223 -0.4267 -0.0149
 4155W        W21679   9.658  14.854   5.210  0.1230 -0.1846  0.2402
 4156W        W21680  12.626  16.091   0.749 -0.0054  0.1899 -0.1962
 4157W        W21681   1.722  12.235   3.265  0.1640 -0.1542 -0.0536
 4158W        W21682  16.072   8.664   1.232 -0.2255  0.0267 -0.0286
 4159W        W21683  17.304   0.310   2.977  0.0714  0.1157 -0.1488
 4160W        W21684   7.449  14.993  15.031  0.2038  0.2708 -0.0104
 4161W        W21685   5.671   6.944  13.501 -0.1779 -0.4555  0.0954
 4162W        W21686  12.290  16.254  13.068 -0.0930  0.3163  0.0913
 4163W        W21687  14.066  15.954  12.307 -0.0271 -0.0094  0.0319
 4164W        W21688   7.846   9.555   0.075  0.2006 -0.0426  0.0582
 4165W        W21689   4.143   1.655   0.443  0.0887 -0.2851  0.1076
 4166W        W21690  12.903   6.814   2.521  0.2292  0.1966 -0.5202
 4167W        W21691  10.677   1.704   1.994 -0.2193 -0.1262 -0.3736
 4168W        W21692   4.717  17.413  12.668 -0.1537  0.2848 -0.1892
 4169W        W21693  16.188   8.360  14.449  0.0521 -0.3558 -0.0566
 4170W        W21694  15.304  15.379   1.233 -0.1081  0.1820  0.2582
 4171W        W21695   3.382   3.495   4.002 -0.0722  0.2244  0.1929
 4172W        W21696  10.633  10.174   1.947  0.2566 -0.1998 -0.0313
 4173W        W21697   4.880  15.364   5.091  0.0172  0.0304 -0.3518
 4174W        W21698   4.878  12.704  13.872  0.0289  0.0704 -0.0341
 4175W        W21699   5.117   4.082   0.836 -0.2833 -0.1346  0.3726
 4176W        W21700  17.853   5.353   5.459 -0.0132  0.1615 -0.0526
 4177W        W21701   4.007  10.052  11.798 -0.2985  0.1034  0.2829
 4178W        W21702   5.412  12.132  13.279  0.0853 -0.2969 -0.0852
 4179W        W21703   3.698   7.878  12.555 -0.0759 -0.0324 -0.0236
 4180W        W21704   0.354  11.830   4.495  0.2790  0.1461  0.1730
 4181W        W21705  13.694  11.615   0.130 -0.0441  0.3729 -0.2491
 4182W        W21706   9.296  13.088   4.551  0.0882  0.0540  0.0762
 4183W        W21707   4.337  16.431  15.116  0.1436  0.0351 -0.1502
 4184W        W21708   4.409  15.505  11.692  0.0898 -0.0474 -0.2159
 4185W        W21709   6.384  10.905  14.881 -0.4152  0.2567  0.0650
 4186W        W21710  13.365  11.901  11.880 -0.0634  0.0383  0.0203
 4187W        W21711   2.134  17.319  14.692  0.0209  0.2716 -0.0103
 4188W        W21712   9.251   4.035  15.218  0.3129  0.1111  0.0463
 4189W        W21713  11.551  10.340  12.688  0.1193 -0.2463 -0.1599
 4190W        W21714  13.534   8.059   0.624 -0.0352  0.2762  0.1684
 4191W        W21715  11.826   8.199  14.637  0.2166 -0.2943 -0.1981
 4192W        W21716   1.647  16.489   3.291 -0.1871  0.0474  0.1340
 4193W        W21717  10.915  11.844  12.314 -0.1841  0.1096 -0.0939
 4194W        W21718   2.923   1.656  15.527 -0.1247 -0.0554  0.1422
 4195W        W21719   1.472  13.603   3.582  0.1413 -0.0982 -0.1343
 4196W        W21720   9.036   2.541   4.187 -0.0202 -0.0528  0.0406
 4197W        W21721   9.702   8.252  10.864  0.2065 -0.0159  0.0123
 4198W        W21722  10.069   7.797   1.476 -0.0997 -0.0052 -0.3577
 4199W        W21723   7.703  15.007  11.937  0.1948  0.4240  0.1207
 4200W        W21724  10.522   9.378   2.264  0.0700  0.3356  0.2465
 4201W        W21725  14.457   1.112  10.858 -0.1479 -0.1459  0.1360
 4202W        W21726  16.946   0.448  14.730 -0.0012  0.2458 -0.1185
 4203W        W21727   6.576   9.489  11.685 -0.3032 -0.3179  0.2664
 4204W        W21728  16.029  10.849  12.487  0.2895  0.1717 -0.0663
 4205W        W21729   9.098  13.154  13.878  0.2538  0.1338  0.1401
 4206W        W21730  14.857   4.278  11.797 -0.1725  0.0693 -0.0898
 4207W        W21731  12.733   6.957   2.940 -0.0415  0.1586  0.3620
 4208W        W21732   8.058   7.307  15.734  0.1417  0.1524  0.0755
 4209W        W21733   9.134   1.748  14.985 -0.1459  0.0774 -0.2170
 4210W        W21734   0.237   8.736  14.044  0.3042 -0.1495 -0.2765
 4211W        W21735  15.320   8.187  16.199  0.1043 -0.0265  0.0725
 4212W        W21736  12.039  16.768   1.336 -0.1292  0.0790 -0.2123
 4213W        W21737   7.323  11.503   1.311  0.0439  0.0088 -0.0696
 4214W        W21738  13.635   3.221   0.697 -0.2543  0.1680  0.3085
 4215W        W21739   5.518   3.653   0.187 -0.2255  0.0900  0.0511
 4216W        W21740   9.893   0.948   5.260  0.0828 -0.1475 -0.2105
 4217W        W21741  13.228   6.574   3.669  0.1673  0.0063  0.0570
 4218W        W21742  17.576   2.766  12.459  0.1056 -0.0648 -0.0119
 4219W        W21743  15.119   9.962  11.248  0.0714 -0.1356  0.0099
 4220W        W21744  14.740   5.987  15.550 -0.1255  0.0892 -0.1176
 4221W        W21745   1.697   7.537   4.912 -0.0117 -0.0709 -0.0305
 4222W        W21746   8.335  15.835   0.375 -0.0316 -0.1509  0.0501
 4223W        W21747   1.332   1.887  15.361  0.3909  0.2056  0.0254
 4224W        W21748  13.076   9.813  12.419 -0.2612 -0.0933  0.1631
 4225W        W21749   5.633   2.270   0.630 -0.0427  0.0630  0.0935
 4226W        W21750   1.143   7.161  11.473 -0.0487 -0.3502  0.0439
 4227W        W21751  16.327   6.236   4.677 -0.0492 -0.0956 -0.1107
 4228W        W21752   6.463   7.548  13.341 -0.1723  0.1442 -0.0569
 4229W        W21753  14.448   3.473   2.050  0.5975  0.0334 -0.0371
 4230W        W21754   9.727   6.231   5.069  0.0395  0.0392  0.0117
 4231W        W21755  15.599   9.240  14.445 -0.3010  0.0463 -0.0956
 4232W        W21756  15.697   2.402  15.729  0.1036  0.2388 -0.0961
 4233W        W21757   9.192  14.496  15.089  0.0144  0.2974  0.0783
 4234W        W21758  10.576   1.271  15.110  0.2034  0.1955 -0.2498
 4235W        W21759  17.758   2.472   4.335  0.1656 -0.2650 -0.0506
 4236W        W21760  15.952  16.102  13.558  0.2459  0.0565 -0.0985
 4237W        W21761   3.943   0.448   4.355  0.0058  0.1137 -0.1499
 4238W        W21762  13.534   0.943   2.903 -0.0161  0.1959 -0.0409
 4239W        W21763  10.102   7.368   3.941 -0.2499  0.2237  0.3347
 4240W        W21764  12.750   3.849   3.873  0.3283 -0.2570 -0.2267
 4241W        W21765  10.002  15.671   5.584 -0.0336 -0.0711  0.3283
 4242W        W21766  12.270   4.523  13.701  0.0611 -0.5045 -0.1228
 4243W        W21767   2.466  12.640  13.315  0.0499 -0.0489  0.1888
 4244W        W21768  13.145   3.408   0.863  0.0415 -0.2000  0.1569
 4245W        W21769   9.193   7.007   1.313 -0.3176  0.3969 -0.1694
 4246W        W21770   1.478   4.359   0.253  0.0890 -0.0341 -0.0622
 4247W        W21771   8.724   4.875   1.002  0.0051 -0.1982  0.2606
 4248W        W21772   9.291  15.643  11.432  0.1262  0.0091 -0.2389
 4249W        W21773   3.284   3.423  14.883  0.1848  0.0835  0.1074
 4250W        W21774  10.393   1.044  11.882 -0.1497  0.0133  0.1149
 4251W        W21775  13.255  15.407  16.152 -0.1940 -0.0870 -0.0789
 4252W        W21776   4.179  11.487  15.876 -0.3289  0.0734 -0.0810
 4253W        W21777  15.845  16.682   1.546 -0.0090 -0.4916  0.2437
 4254W        W21778   7.912   1.055  16.115  0.1519 -0.1443  0.1000
 4255W        W21779  11.156  15.968  11.633  0.0720 -0.3078  0.1330
 4256W        W21780  15.394   0.367  11.871 -0.1521  0.0868  0.1772
 4257W        W21781   5.470  10.117   4.102 -0.0423 -0.3024 -0.4000
 4258W        W21782   5.033   3.433   2.005 -0.3103  0.0988 -0.5203
 4259W        W21783  10.501   0.648  12.282  0.1293  0.3172 -0.0466
 4260W        W21784  17.583   8.143  11.430  0.1639  0.1214  0.5316
 4261W        W21785  10.471  14.491  16.214 -0.0451 -0.0219 -0.1430
 4262W        W21786  12.216  15.679  13.250 -0.0379 -0.3258  0.2500
 4263W        W21787   4.742   8.632   0.782  0.2372  0.0511 -0.0786
 4264W        W21788   1.539  16.061   5.042  0.0519  0.0834  0.3366
 4265W        W21789  17.236   6.108  12.552 -0.0559  0.1861  0.0992
 4266W        W21790  10.056  16.143  15.271 -0.1613 -0.0058 -0.1691
 4267W        W21791   7.368  14.408  12.678 -0.0948  0.2177 -0.2342
 4268W        W21792  12.230   8.137  15.711  0.0714  0.1092  0.2236
 4269W        W21793   1.269   5.926  15.290  0.1324  0.0381  0.2991
 4270W        W21794   0.953   3.123   2.308  0.0968 -0.0149  0.0704
 4271W        W21795   1.374   9.367   5.390 -0.0511  0.2262  0.0514
 4272W        W21796  13.808   4.635   4.138 -0.1800  0.1768 -0.1226
 4273W        W21797   4.990  12.316  12.246 -0.1093  0.3177 -0.1442
 4274W        W21798   9.697  17.713   1.390  0.2588  0.0974 -0.3060
 4275W        W21799  10.837  12.865  12.120  0.3480  0.1353  0.0595
 4276W        W21800  10.453   6.026  12.757  0.2625  0.1577 -0.1270
 4277W        W21801   5.999   9.993   6.174 -0.1640  0.3566  0.3094
 4278W        W21802  15.767  11.570   1.348  0.0323  0.0673 -0.0336
 4279W        W21803  15.013  11.017   0.799  0.0136  0.0058 -0.0824
 4280W        W21804  13.650   6.090   2.879  0.2325  0.1890 -0.2625
 4281W        W21805  16.501   0.676  11.815  0.1297 -0.0848  0.1002
 4282W        W21806   4.337  11.562   3.711 -0.1288 -0.2802  0.0370
 4283W        W21807  16.800   6.313  13.444  0.1133  0.0618  0.1000
 4284W        W21808   2.584   2.196  13.645 -0.2781 -0.1072  0.0526
 4285W        W21809   7.859   8.905   2.482  0.2580 -0.1149 -0.1044
 4286W        W21810  10.140  13.771   4.188 -0.0190  0.1418 -0.0700
 4287W        W21811   0.462   5.434   4.648  0.1920 -0.0737  0.3039
 4288W        W21812   4.530  10.750  12.031  0.2152  0.0690 -0.1082
 4289W        W21813  17.181   4.903   4.935  0.1341 -0.3835 -0.2484
 4290W        W21814   4.376  10.592  14.011 -0.1163 -0.0602  0.2498
 4291W        W21815   8.520   0.369  15.388  0.0256 -0.4250  0.4076
 4292W        W21816   1.070   8.704   3.504  0.1908  0.1150 -0.1208
 4293W        W21817   0.252  10.497  12.725 -0.0644  0.0746  0.0188
 4294W        W21818   3.608   5.268  15.940 -0.2914  0.0817 -0.1241
 4295W        W21819   5.919   2.803   2.513 -0.0414 -0.2411  0.1639
 4296W        W21820   6.639   7.627   3.479 -0.0472  0.1362  0.0320
 4297W        W21821   6.913  17.170  12.829  0.2361 -0.0845 -0.0470
 4298W        W21822   8.394   1.989   4.128  0.0953  0.0659  0.1672
 4299W        W21823   7.003   3.183  11.904 -0.1738  0.0767  0.0598
 4300W        W21824   2.212   9.131   2.154  0.0296  0.1569  0.1320
 4301W        W21825   3.550  10.251  14.310 -0.0005  0.1422  0.0273
 4302W        W21826   1.558  13.950  11.369 -0.1887  0.0012 -0.0042
 4303W        W21827   2.885   6.472  11.950 -0.1278 -0.0784 -0.0246
 4304W        W21828  12.723  10.253   3.787  0.0242  0.0035  0.0321
 4305W        W21829   6.874   3.288   3.381  0.0636 -0.0465  0.2059
 4306W        W21830   9.121  10.367   3.815 -0.1263 -0.1502 -0.0100
 4307W        W21831   0.041  10.924   0.739  0.1287  0.0322 -0.1123
 4308W        W21832   7.981  15.202  11.159  0.1700 -0.0781 -0.0946
 4309W        W21833   0.794   7.266  15.156 -0.4632 -0.1699 -0.2371
 4310W        W21834   6.291  15.220   2.535  0.1821  0.3566 -0.0653
 4311W        W21835  14.017   2.946  15.274 -0.2615 -0.1021  0.1758
 4312W        W21836  12.957   8.391  11.195 -0.0287  0.2401 -0.0072
 4313W        W21837   0.808   9.898   2.714 -0.3651  0.0168  0.0148
 4314W        W21838  15.215   6.156   4.190 -0.2129 -0.0993 -0.3353
 4315W        W21839   2.107  14.294  14.390 -0.1461 -0.0235 -0.0690
 4316W        W21840   0.651  14.604   3.168  0.0433  0.0997  0.2266
 4317W        W21841  14.670   8.866  10.827  0.1218 -0.2498 -0.1997
 4318W        W21842   2.723   1.768   2.747 -0.0603  0.1408 -0.2363
 4319W        W21843  12.087  14.619  11.454 -0.1708 -0.0135  0.0498
 4320W        W21844  10.735   7.543   5.236 -0.1029  0.0548  0.0218
 4321W        W21845  10.327  17.705  12.638  0.0006  0.3135 -0.0997
 4322W        W21846  16.565  15.494   2.448  0.0181 -0.1669  0.0206
 4323W        W21847   9.754  10.839   3.283 -0.1329 -0.0116 -0.2848
 4324W        W21848  12.348   1.389  12.421 -0.0634  0.1835  0.0838
 4325W        W21849  10.555   9.813   4.016 -0.3226  0.1978  0.2111
 4326W        W21850  14.030   2.557  15.716 -0.1366 -0.0289 -0.1572
 4327W        W21851   0.608   1.347   4.187 -0.0611  0.4161  0.0265
 4328W        W21852   4.671  17.232  14.520  0.4659  0.1036  0.4226
 4329W        W21853   8.110   7.690   3.631  0.1424 -0.0344 -0.0170
 4330W        W21854  16.396   3.891   2.174  0.0347  0.2939  0.1767
 4331W        W21855  12.248  17.777  14.114  0.1310  0.0070 -0.1885
 4332W        W21856   7.767   3.933   2.675 -0.0420  0.2591 -0.0068
 4333W        W21857  16.943   6.327   2.806 -0.0484 -0.1383  0.3024
 4334W        W21858  12.557  14.686   3.343  0.0204  0.1244 -0.0992
 4335W        W21859   9.152   1.045  11.435  0.0284  0.3896 -0.0937
 4336W        W21860   2.634   3.017   5.875 -0.1193  0.1147 -0.0358
 4337W        W21861   1.105  13.720  13.531 -0.1582  0.0047 -0.1571
 4338W        W21862   4.566   0.964  13.045  0.0193 -0.2583 -0.1222
 4339W        W21863  11.692  13.568   4.384  0.0991 -0.0184  0.1717
 4340W        W21864   8.929   2.033   4.192 -0.0178  0.2230 -0.0540
 4341W        W21865   8.966   0.541  16.177  0.1736 -0.1792 -0.1303
 4342W        W21866  15.194  11.794   1.403  0.0422 -0.0521 -0.0667
 4343W        W21867   4.358  15.389  14.884  0.0229  0.3244  0.0096
 4344W        W21868  12.308  12.259   1.677 -0.1242 -0.2185 -0.4083
 4345W        W21869   0.052  11.684   3.549 -0.1369 -0.4735 -0.2136
 4346W        W21870   0.432   4.787   2.494  0.1012 -0.0466 -0.1031
 4347W        W21871   6.970   4.341  14.786 -0.3590 -0.1629 -0.0703
 4348W        W21872  16.121   3.650  15.468 -0.1100  0.0653 -0.0514
 4349W        W21873  13.550   6.990   4.228 -0.0455 -0.2079  0.3148
 4350W        W21874  10.351  12.679   2.366 -0.0441  0.0750  0.1821
 4351W        W21875   6.349  15.234  11.498 -0.1545  0.3656  0.0473
 4352W        W21876  11.420   2.142   0.935 -0.0155  0.1629  0.0110
 4353W        W21877   3.383  15.219   3.590 -0.0117 -0.1062  0.2096
 4354W        W21878   3.017   5.412  13.704 -0.1035  0.1523  0.0598
 4355W        W21879  11.003  12.180   4.149  0.2357  0.1730 -0.2734
 4356W        W21880   6.709  11.346   0.554 -0.3145  0.1388 -0.0554
 4357W        W21881   2.457  17.245  13.659  0.2412  0.1966  0.1597
 4358W        W21882  11.665   8.990   2.938 -0.1083 -0.0492 -0.1622
 4359W        W21883   4.518   8.609  14.377  0.1432 -0.1411 -0.0507
 4360W        W21884  14.216  10.286   0.605  0.0599  0.0630  0.2193
 4361W        W21885   8.232  17.793  15.244  0.0844  0.0551  0.1340
 4362W        W21886   2.373  14.263  13.087  0.0261 -0.1184 -0.4427
 4363W        W21887  15.043  11.780  14.193  0.0322  0.1435 -0.3169
 4364W        W21888   6.222  13.554   0.926  0.1188  0.2498 -0.1228
 4365W        W21889   7.273   9.380   1.723 -0.2065  0.4113 -0.1170
 4366W        W21890  12.563   0.376  16.091 -0.2670 -0.2764  0.0220
 4367W        W21891   0.639  13.525   1.767  0.2784  0.1304  0.0598
 4368W        W21892   3.726  11.541   4.208  0.0173 -0.0346  0.1667
 4369W        W21893   9.583   1.187   4.909  0.3059  0.1474 -0.1992
 4370W        W21894   2.824   7.652  13.652  0.1650  0.2752 -0.0522
 4371W        W21895  11.471  17.584  15.893  0.0194 -0.1025 -0.0141
 4372W        W21896  17.543  11.047  16.211 -0.1860 -0.2402 -0.0295
 4373W        W21897  14.739   4.831  11.055  0.2018 -0.1116  0.3981
 4374W        W21898  12.988   3.286  13.312  0.1415 -0.0783  0.0231
 4375W        W21899   5.717  15.378   1.723  0.2868  0.0872 -0.4225
 4376W        W21900   4.136   3.283   3.710 -0.0194 -0.0298 -0.0048
 4377W        W21901  11.375   0.885   4.341  0.4075  0.2062 -0.2606
 4378W        W21902  17.756   6.445   2.497  0.0165 -0.0282  0.0357
 4379W        W21903   3.132  12.526   2.185 -0.2800 -0.2006 -0.2293
 4380W        W21904   0.203   9.454  14.463  0.0125 -0.0745 -0.2213
 4381W        W21905   8.039   7.977   0.560 -0.2367  0.0805  0.0728
 4382W        W21906   8.577   4.244  13.949  0.0558  0.1744  0.2256
 4383W        W21907  10.387  17.799  15.194  0.1480  0.1160  0.0710
 4384W        W21908  11.478  10.137  15.076 -0.1890 -0.0203  0.0419
 4385W        W21909  16.900   6.729  14.612 -0.3744  0.2150 -0.0638
 4386W        W21910   2.642   9.778  11.683  0.0544 -0.2095 -0.1334
 4387W        W21911   1.239  11.057  13.130 -0.5900  0.1348 -0.0214
 4388W        W21912   0.898   0.258   3.658 -0.0998  0.4317  0.1889
 4389W        W21913  10.471  12.195   2.777 -0.2091 -0.1138 -0.3007
 4390W        W21914   6.514   3.997  13.617  0.0111  0.2340 -0.0348
 4391W        W21915   6.782   5.790  15.418 -0.3930 -0.0607 -0.0781
 4392W        W21916  17.943  10.454   6.424 -0.2509  0.0910  0.0472
 4393W        W21917  11.964   5.767   4.937  0.1032  0.3223 -0.0440
 4394W        W21918  16.361  16.377   1.843 -0.2354  0.1535  0.0049
 4395W        W21919  17.302   5.867   3.522 -0.1101 -0.0725 -0.4198
 4396W        W21920   0.168   5.507   3.570  0.1853 -0.1866 -0.1449
 4397W        W21921  16.244   4.407  15.359 -0.3674  0.1108 -0.2375
 4398W        W21922   5.293   5.884  11.020 -0.0144 -0.3651  0.0206
 4399W        W21923   2.990  14.231  12.260 -0.3167 -0.0520  0.2262
 4400W        W21924  14.458   4.877   0.536  0.0927  0.0770  0.1113
 4401W        W21925  17.401   9.734   2.380  0.1432 -0.0441  0.0987
 4402W        W21926   6.446   7.449   4.280  0.1780  0.0933 -0.0730
 4403W        W21927   9.749  15.265   2.295 -0.1834  0.1328 -0.0794
 4404W        W21928  16.344   0.038  12.802 -0.0641 -0.0387  0.0773
 4405W        W21929   0.754   0.461   0.187 -0.3838  0.0440 -0.1211
 4406W        W21930   3.676  12.216   0.750  0.1099  0.0226 -0.2985
 4407W        W21931   1.341   1.680  15.871  0.1995 -0.0328 -0.2300
 4408W        W21932  11.158  14.977  11.838 -0.3726  0.0392 -0.1423
 4409W        W21933   4.745  15.856  11.979  0.0144  0.2942  0.2951
 4410W        W21934   9.881   1.889   1.783  0.0263  0.1252 -0.1370
 4411W        W21935   9.340   6.219   1.016  0.1218  0.0146 -0.0407
 4412W        W21936   9.591  14.226   1.064  0.1774  0.2487 -0.0201
 4413W        W21937   5.337  15.832   1.931 -0.3262  0.1402  0.1273
 4414W        W21938   8.898  16.412  14.628 -0.0849  0.1260  0.1846
 4415W        W21939  17.196   0.602  11.062  0.1255  0.0990  0.1415
 4416W        W21940   9.292   1.480   3.671  0.0269 -0.0155 -0.0637
 4417W        W21941   6.511  12.796  13.930 -0.3928 -0.0864  0.1990
 4418W        W21942  13.020  10.886   0.305 -0.0589  0.0730  0.1537
 4419W        W21943  12.213  15.591  15.470  0.3308 -0.1753  0.2646
 4420W        W21944  13.151   8.188   0.945  0.1727 -0.3119  0.1015
 4421W        W21945  16.060  12.168  14.497 -0.0059 -0.2266  0.1124
 4422W        W21946  14.396  14.760  11.779 -0.1100  0.1904 -0.2134
 4423W        W21947   3.039  11.614  14.122 -0.1233 -0.0835  0.4486
 4424W        W21948   8.691   8.177  14.642 -0.0230  0.4189  0.2456
 4425W        W21949   6.482  15.745  14.471 -0.0343 -0.2083  0.0178
 4426W        W21950   2.550   2.281  14.899 -0.1711 -0.0367  0.1534
 4427W        W21951  17.499  11.501  14.310  0.0362 -0.0145 -0.1785
 4428W        W21952  16.087   6.917   3.023  0.0930 -0.1387 -0.1878
 4429W        W21953   8.646   6.237  15.169  0.2018  0.0274  0.1626
 4430W        W21954   4.530   8.706  15.891  0.1625 -0.0659  0.0847
 4431W        W21955   5.079  11.652  15.256 -0.4435  0.2687  0.0405
 4432W        W21956  17.601  10.503  11.650 -0.1232  0.2916 -0.2172
 4433W        W21957  10.100  14.111   3.715 -0.0644 -0.0399 -0.1003
 4434W        W21958   7.214   1.763  13.026  0.1947 -0.0196 -0.1706
 4435W        W21959   1.316   3.425  15.518 -0.4117  0.0122 -0.0470
 4436W        W21960   4.350   6.801  15.669  0.2215 -0.0333 -0.0054
 4437W        W21961   3.359   6.456  11.510  0.4628 -0.0337 -0.1752
 4438W        W21962   8.588  11.372   4.002  0.1175  0.3617  0.0057
 4439W        W21963  12.479   3.688  12.383 -0.1438  0.2403  0.1526
 4440W        W21964   3.225  10.207  12.053  0.0329 -0.2093  0.1284
 4441W        W21965   0.397   4.919  11.725  0.5162  0.3124 -0.0660
 4442W        W21966   8.955  12.342  12.165  0.1883 -0.1146 -0.1893
 4443W        W21967   1.732  15.456   4.471 -0.0746 -0.0937 -0.2729
 4444W        W21968   6.818   9.919   0.893  0.2935 -0.1450  0.1335
 4445W        W21969  16.080   2.796  12.323  0.0387  0.1415  0.1926
 4446W        W21970  15.171  16.285  14.536  0.1231 -0.2518 -0.0882
 4447W        W21971   6.947   2.717   4.401  0.0531  0.0070  0.1491
 4448W        W21972   3.283  11.842   3.522  0.1035  0.0412  0.1932
 4449W        W21973   7.301  15.061   4.083 -0.3092  0.2147 -0.2422
 4450W        W21974  16.361  17.723  15.466  0.1422 -0.0250  0.0877
 4451W        W21975  12.468   2.232  14.624 -0.0274  0.0810  0.0970
 4452W        W21976   7.324   5.045  10.986  0.0491 -0.3160 -0.0984
 4453W        W21977   3.078   9.675  12.227 -0.2902 -0.1852  0.3102
 4454W        W21978   2.075   2.510  14.781 -0.0582  0.2306 -0.1864
 4455W        W21979   7.695  16.663   4.575  0.1060  0.0519 -0.0984
 4456W        W21980  15.393  16.143   0.408  0.1127  0.2277  0.0405
 4457W        W21981   3.311  15.784   4.664  0.1385 -0.3906 -0.0424
 4458W        W21982   3.101   1.027  14.464 -0.1597  0.2597 -0.1270
 4459W        W21983  17.519   6.974  12.280  0.0372 -0.1066 -0.3511
 4460W        W21984   1.370   1.372   3.420  0.3521 -0.2672 -0.0050
 4461W        W21985  12.834  12.965   3.716  0.1484  0.1132  0.0629
 4462W        W21986   8.056  16.802  13.264  0.1578 -0.0998  0.1199
 4463W        W21987  12.603   4.412  12.186 -0.2978  0.0161  0.0578
 4464W        W21988  11.731   0.896  11.089 -0.2064  0.0125 -0.1137
 4465W        W21989   3.110   5.749  15.105 -0.0359 -0.0856  0.1164
 4466W        W21990   0.408   4.797  14.572 -0.0725 -0.0862  0.0243
 4467W        W21991   1.527  11.898   1.054  0.1831  0.2666  0.0729
 4468W        W21992   8.581  13.870   3.072 -0.3553  0.0972 -0.0410
 4469W        W21993   4.458   3.227   2.663  0.3389  0.0432 -0.2814
 4470W        W21994   5.636   8.551   0.796  0.0916  0.0232  0.2451
 4471W        W21995   3.546  11.920   3.972  0.2171  0.0011  0.0818
 4472W        W21996  11.464   9.192  11.925  0.1197 -0.5104  0.0939
 4473W        W21997  17.488   8.787   1.441  0.0730  0.3724  0.3671
 4474W        W21998   1.772  14.924   3.710 -0.0007  0.1830  0.1198
 4475W        W21999  13.309  12.677   0.919 -0.0349  0.0814  0.2404
 4476W        W22000  17.816   7.544   5.102  0.0706 -0.0844  0.0112
 4477W        W22001   1.694   7.299  15.555 -0.0927  0.1509  0.0448
 4478W        W22002  14.946   3.622  14.797  0.0198  0.2088  0.0580
 4479W        W22003   8.220  16.805  15.338  0.0466  0.0069  0.2299
 4480W        W22004  14.209   4.234   4.827 -0.0107 -0.0628  0.0136
 4481W        W22005  16.137  16.905  11.880 -0.2639  0.3278 -0.0299
 4482W        W22006  17.863  17.576   0.816 -0.0458  0.2189  0.1834
 4483W        W22007  15.795  11.798   2.745 -0.2462  0.1349 -0.0680
 4484W        W22008  11.985  16.846   0.398 -0.3733  0.0626  0.0028
 4485W        W22009   3.975   0.229   1.823  0.2456 -0.0635  0.2059
 4486W        W22010   9.829   6.251  11.626  0.1321 -0.1240  0.2900
 4487W        W22011   7.660   5.522  12.627  0.1716  0.4818  0.0104
 4488W        W22012  13.970   3.613  11.379 -0.1239 -0.0832  0.0562
 4489W        W22013  15.045  10.452  12.568 -0.0116  0.0651 -0.1695
 4490W        W22014   3.784   3.286   3.383 -0.3137 -0.0063 -0.0129
 4491W        W22015   3.596  12.433  12.318 -0.0484 -0.1401  0.1382
 4492W        W22016  10.764   0.146   2.565 -0.1215  0.0439 -0.0954
 4493W        W22017  12.362  13.602   5.946  0.1107  0.1903  0.1504
 4494W        W22018   2.781  14.266   4.374  0.0436  0.2498 -0.2180
 4495W        W22019   3.411   8.951  15.887  0.0306 -0.2663  0.0099
 4496W        W22020   2.795  17.615   5.000 -0.0304 -0.1501  0.0552
 4497W        W22021   6.528   5.295  13.761 -0.2155  0.2401  0.0904
 4498W        W22022  17.750  16.072  12.581 -0.0429 -0.0006 -0.0050
 4499W        W22023   6.507  13.936   3.119 -0.1218  0.1250 -0.2879
 4500W        W22024  15.678   3.777   1.060  0.2359 -0.2721 -0.2220
 4501W        W22025  15.016   1.310   0.021 -0.0324 -0.0749  0.1619
 4502W        W22026   3.280   4.979   3.467  0.2224  0.0024 -0.2739
 4503W        W22027  10.719  16.827   4.590 -0.0067 -0.0156  0.1183
 4504W        W22028   4.368   2.654  12.772 -0.0925  0.1457 -0.0472
 4505W        W22029   8.545   8.953  15.328  0.1333  0.1808  0.0907
 4506W        W22030  11.273   7.747  13.914 -0.1084 -0.1103  0.1080
 4507W        W22031  13.001   0.185   4.900 -0.0340  0.2021  0.1435
 4508W        W22032   1.423   5.859  12.781 -0.1548  0.1919 -0.1373
 4509W        W22033  16.431  17.608  10.798  0.1348  0.0130 -0.1157
 4510W        W22034   4.431   6.821   1.489 -0.2367  0.0014  0.0132
 4511W        W22035  12.674  14.653  14.771  0.0997 -0.0551  0.2320
 4512W        W22036   0.890   3.963   0.746 -0.1438 -0.0001 -0.0508
 4513W        W22037   4.091  13.327  10.305  0.1606 -0.1217  0.3142
 4514W        W22038   9.538  14.986   1.929 -0.0703  0.1606  0.1363
 4515W        W22039  10.983   2.874   0.677 -0.0053  0.0478  0.4032
 4516W        W22040  15.264  13.381   3.511 -0.0337 -0.1074 -0.3230
 4517W        W22041   1.011   5.163  13.050  0.0049 -0.0962 -0.1465
 4518W        W22042  17.073   2.006  14.367  0.0356  0.0272 -0.1093
 4519W        W22043   3.582   2.575  14.994  0.4116  0.0578 -0.2845
 4520W        W22044   8.577  17.161   0.387  0.1328 -0.0046 -0.1117
 4521W        W22045  11.981   6.417   5.689  0.0832  0.0142 -0.0359
 4522W        W22046  13.701   2.612   1.773 -0.1999 -0.1972  0.4491
 4523W        W22047   4.897  11.596   0.426 -0.1287 -0.1083  0.1040
 4524W        W22048   6.983   4.166  13.496  0.0506  0.1310 -0.0600
 4525W        W22049  12.017  10.552  12.830 -0.0134  0.0110  0.0252
 4526W        W22050  15.928   7.261  15.903 -0.1860  0.1369  0.2860
 4527W        W22051   7.894  12.785  11.405  0.1266  0.1243 -0.2527
 4528W        W22052   8.072  17.248   2.771  0.2533 -0.2611  0.0866
 4529W        W22053  15.691  12.937   0.913 -0.1151  0.3400  0.1846
 4530W        W22054  16.621  16.784   5.478 -0.3435  0.3491  0.4621
 4531W        W22055  16.739   0.007   1.326 -0.0205 -0.1731  0.0919
 4532W        W22056  12.801  15.614  15.992 -0.2604  0.0489  0.0156
 4533W        W22057   0.784  11.859  11.620  0.0342 -0.1065 -0.1687
 4534W        W22058   5.941  17.351   0.105  0.1228  0.1193  0.2533
 4535W        W22059   6.155   2.606  14.393  0.1894  0.1078 -0.0830
 4536W        W22060  15.735  16.292  12.444  0.0251  0.2460  0.1710
 4537W        W22061   0.815   7.499  12.511  0.2850 -0.1493  0.1283
 4538W        W22062  17.772   6.533   0.625 -0.1968  0.0559  0.2478
 4539W        W22063   7.514  16.539   3.572  0.0657 -0.1204  0.2315
 4540W        W22064   2.438  10.153   1.269 -0.0437  0.0450 -0.0695
 4541W        W22065  16.793  17.744   0.848 -0.0175 -0.0291 -0.0517
 4542W        W22066   8.645   2.003   0.193 -0.0207 -0.1847  0.2588
 4543W        W22067  17.208  10.558  14.711 -0.1395  0.0361 -0.1051
 4544W        W22068  11.778  17.057   4.851 -0.3172 -0.1857 -0.2498
 4545W        W22069  15.553   4.462  12.593  0.0280  0.0183  0.1895
 4546W        W22070  12.196   7.519   1.624 -0.2557  0.1449  0.0637
 4547W        W22071   4.039   6.669   0.671 -0.2344 -0.0192  0.3402
 4548W        W22072   5.643   1.415  12.424 -0.2077 -0.0038  0.1261
 4549W        W22073  17.220   3.319  14.587  0.3266 -0.1320 -0.0766
 4550W        W22074  16.823  12.530  12.823 -0.0240 -0.0174 -0.1912
 4551W        W22075  11.388  15.503   3.630 -0.0362 -0.2490 -0.0992
 4552W        W22076  14.131  12.879  14.418  0.1713  0.0309 -0.1222
 4553W        W22077  17.786   9.811   1.070  0.0264  0.0163 -0.1387
 4554W        W22078  15.595   2.122  12.463 -0.0382  0.2450 -0.0457
 4555W        W22079   5.275   5.253  12.220  0.1615 -0.1261 -0.2104
 4556W        W22080  17.258  12.088  15.387 -0.2898  0.1863  0.1953
 4557W        W22081   9.081   4.330   4.387  0.0662  0.0449 -0.2375
 4558W        W22082  10.851   2.668  16.031 -0.1840  0.0497 -0.0708
 4559W        W22083  15.533  15.577   0.047  0.0740 -0.1293 -0.2175
 4560W        W22084   2.751   0.399   2.774 -0.3755 -0.0794 -0.1871
 4561W        W22085   5.024   5.079  15.925 -0.0403 -0.2045 -0.0502
 4562W        W22086   2.493   2.282   4.861 -0.0805  0.0053  0.1462
 4563W        W22087   9.247  13.851  14.960  0.0932  0.0516  0.1235
 4564W        W22088   3.379  15.672   1.695  0.2147  0.1156  0.0013
 4565W        W22089   6.148   7.119   2.464  0.0243  0.1481 -0.1712
 4566W        W22090  15.232   8.104  11.621 -0.1579  0.0869  0.2078
 4567W        W22091   5.690  11.240  13.977 -0.0920  0.1908 -0.0088
 4568W        W22092   9.194   6.045  13.725 -0.1417 -0.0968 -0.0284
 4569W        W22093  11.509  17.170   4.485  0.1223 -0.0504 -0.2234
 4570W        W22094  15.224   0.575   0.767  0.0661  0.2840 -0.1145
 4571W        W22095   6.017  10.090   0.780 -0.1956 -0.0935 -0.1067
 4572W        W22096   8.032  13.835   4.341  0.2692 -0.2895 -0.0341
 4573W        W22097  13.963  14.993   1.156  0.1263  0.4336  0.1137
 4574W        W22098  14.657  11.974  16.066 -0.1676  0.0389  0.0637
 4575W        W22099   7.484   4.141  12.211 -0.0296  0.0943  0.1243
 4576W        W22100  16.447  11.312  14.665  0.1080  0.1084  0.1819
 4577W        W22101   7.089   0.025  14.214 -0.2627  0.1794  0.2469
 4578W        W22102   8.644   2.223   3.708  0.0777  0.1793  0.2199
 4579W        W22103   6.802  12.767   6.169 -0.1157  0.1626  0.1847
 4580W        W22104   5.059   2.315   2.269 -0.2162  0.0463  0.0288
 4581W        W22105   8.695   3.702   1.723 -0.2195  0.0004  0.1986
 4582W        W22106  12.007   6.957  14.973 -0.0010  0.0837  0.2840
 4583W        W22107  14.129  14.363  11.004 -0.4738  0.0243  0.2198
 4584W        W22108  17.053   2.320   1.276 -0.1426  0.0841 -0.0633
 4585W        W22109  10.414   7.160  11.793  0.1357 -0.1661  0.1183
 4586W        W22110  12.827  13.237   2.549  0.1265 -0.1806  0.1749
 4587W        W22111  15.104  10.669   0.432 -0.2376 -0.0094 -0.5560
 4588W        W22112   0.414   4.905  13.830  0.2105 -0.0218 -0.0122
 4589W        W22113  12.016   3.399   0.668 -0.2267 -0.1754 -0.0441
 4590W        W22114  10.041   0.970  14.313  0.3118 -0.0117  0.1876
 4591W        W22115   4.255   1.047  12.160  0.3744  0.1147  0.1446
 4592W        W22116  15.953   0.031  14.150  0.3888 -0.2158 -0.0328
 4593W        W22117   2.536  11.909  15.880  0.0704  0.1720 -0.1218
 4594W        W22118   4.324   3.426  14.807 -0.1477  0.0482 -0.1227
 4595W        W22119   2.620   6.639   5.142  0.0719 -0.4215 -0.0248
 4596W        W22120  12.901   5.871  14.914 -0.1687  0.2544  0.0560
 4597W        W22121  12.685   0.871   3.423  0.0127 -0.1750  0.1996
 4598W        W22122   6.875   2.094   1.909  0.0187  0.1585 -0.1837
 4599W        W22123   9.342   9.842  11.402 -0.1126 -0.0194 -0.0403
 4600W        W22124  10.582  17.625   3.399 -0.2991  0.0068  0.1286
 4601W        W22125  10.355  12.759  14.245  0.4942  0.2212 -0.0881
 4602W        W22126   4.644   8.781   1.214  0.0674  0.0701 -0.1424
 4603W        W22127   1.399  10.222   1.488 -0.4517 -0.0677  0.1542
 4604W        W22128  12.688  16.384   3.127 -0.3929 -0.1702 -0.1455
 4605W        W22129   2.350  13.067  14.053  0.0045 -0.2293 -0.3289
 4606W        W22130   3.913  11.995  13.191 -0.3596 -0.0785 -0.0636
 4607W        W22131   5.803   2.567   4.873 -0.1206  0.1389 -0.1409
 4608W        W22132   1.754   2.147   3.043 -0.0154  0.1836  0.2695
 4609W        W22133  17.218  13.420   5.260  0.2096 -0.1288 -0.0740
 4610W        W22134  13.718  11.961  11.549  0.1410  0.0247 -0.1049
 4611W        W22135  12.494  15.526  13.750 -0.0777 -0.0940  0.0965
 4612W        W22136  17.448  17.426  12.365  0.0152  0.0517  0.2178
 4613W        W22137  14.605   4.030  13.158  0.1019  0.0280 -0.0709
 4614W        W22138   4.579   0.123   4.187 -0.0429 -0.0248 -0.1522
 4615W        W22139  12.073  15.917  13.754 -0.0118  0.2449 -0.0628
 4616W        W22140  15.386   4.147  11.993 -0.1158 -0.0647 -0.0206
 4617W        W22141   0.890   3.148  11.381 -0.0105 -0.4721 -0.0833
 4618W        W22142  11.881   1.877  13.392 -0.3007 -0.1551  0.1794
 4619W        W22143  17.777  13.016  13.624  0.1492  0.0904 -0.0150
 4620W        W22144  17.947   8.250   4.099  0.0288 -0.0273  0.0250
 4621W        W22145   9.743   3.297   4.428  0.0034 -0.1165  0.0765
 4622W        W22146  16.024  11.279   2.551  0.2841 -0.0714 -0.1599
 4623W        W22147  15.856  16.218   1.850  0.0639  0.3635 -0.3384
 4624W        W22148  13.603  14.656   0.803 -0.1668 -0.2181  0.1373
 4625W        W22149   3.525   4.959   0.086 -0.1090 -0.0578 -0.0432
 4626W        W22150  16.933   9.754   2.220 -0.2062 -0.0018 -0.1084
 4627W        W22151   2.517  12.522   2.239 -0.0940  0.0296 -0.0823
 4628W        W22152  11.439  13.661  13.526  0.0966  0.0853  0.0207
 4629W        W22153  13.817  13.642   3.230  0.0383  0.0673 -0.2453
 4630W        W22154  16.072   1.432  11.433  0.0542  0.0457 -0.0413
 4631W        W22155   5.833   8.423   3.648  0.0996 -0.1544 -0.2233
 4632W        W22156  12.732   9.518   1.288 -0.0347  0.3810 -0.3517
 4633W        W22157   5.824  16.048   2.875 -0.0865  0.1207  0.1147
 4634W        W22158   2.717  13.083  14.424 -0.1426 -0.1013  0.2100
 4635W        W22159   4.730   3.038  12.035 -0.0616  0.2086  0.3066
 4636W        W22160  10.511  10.580   4.634 -0.1789 -0.0107  0.2082
 4637W        W22161  14.509   6.981   1.490 -0.1942 -0.0541  0.2030
 4638W        W22162   3.846   2.158  15.690 -0.1751 -0.1146  0.2792
 4639W        W22163  13.845   7.144  15.935 -0.0872  0.0476  0.4580
 4640W        W22164   7.556   7.756   1.182 -0.0936  0.0136  0.0079
 4641W        W22165  14.400  15.807   2.923  0.2715  0.1180 -0.0702
 4642W        W22166  11.455  12.575   0.310 -0.2109  0.0251 -0.0344
 4643W        W22167   6.200  12.407  13.732  0.1872 -0.0500  0.2954
 4644W        W22168  13.048   7.752  12.025 -0.1631  0.1839 -0.3095
 4645W        W22169   8.052  13.520   2.315 -0.0456  0.0166  0.1487
 4646W        W22170   7.449   5.649  11.675  0.1648 -0.0126 -0.1005
 4647W        W22171   8.817   3.120  12.681 -0.0547 -0.1024 -0.0807
 4648W        W22172  10.951   8.076   2.228 -0.3624  0.0743  0.0454
 4649W        W22173  12.388  12.974   2.742  0.0364 -0.0201 -0.1220
 4650W        W22174   9.026  15.350  13.745  0.0456  0.1229  0.0050
 4651W        W22175   1.664  15.784   4.052  0.0218  0.3060  0.1285
 4652W        W22176   4.027  12.008  12.304 -0.2351  0.0695  0.3107
 4653W        W22177   6.897  11.854  12.262  0.1115  0.0082  0.0590
 4654W        W22178  11.273   9.511  15.538  0.3612 -0.3833  0.1302
 4655W        W22179   5.542   6.230   4.608 -0.0406 -0.1169 -0.0414
 4656W        W22180   1.904   4.023  13.671  0.0057  0.0089 -0.0149
 4657W        W22181   4.644  10.352  15.925 -0.0606  0.2008  0.1195
 4658W        W22182  11.541  13.913   2.337  0.0404 -0.3120  0.1633
 4659W        W22183   5.114  16.459   4.800 -0.2590 -0.3318 -0.3457
 4660W        W22184   7.997  15.319   2.864  0.0679 -0.3742  0.1490
 4661W        W22185  16.627  13.511  11.728 -0.1463  0.1641  0.3760
 4662W        W22186   7.865   6.148   1.177 -0.1000  0.1873 -0.1121
 4663W        W22187  17.844   3.567   0.011 -0.1111 -0.0789  0.0548
 4664W        W22188   7.208   6.514  15.111 -0.0496 -0.0971  0.1091
 4665W        W22189  17.254  15.211   3.993 -0.1258  0.7250  0.1314
 4666W        W22190   8.798  17.520  13.883 -0.1123  0.3180 -0.0622
 4667W        W22191  11.321  13.781  15.133 -0.1480  0.2220  0.0320
 4668W        W22192  12.482  13.116   0.711  0.0475 -0.0607  0.0275
 4669W        W22193   1.824  10.799   0.209 -0.0568  0.1413  0.0041
 4670W        W22194  13.880   1.744  10.411 -0.1433 -0.1213  0.2528
 4671W        W22195  15.833  15.595   4.239 -0.0428 -0.0603 -0.0821
 4672W        W22196  13.702  12.093   2.407  0.1062 -0.2339 -0.2222
 4673W        W22197   9.425   9.674  12.060 -0.1157  0.1009  0.1655
 4674W        W22198   2.194  16.802  15.935  0.1310  0.3134  0.1375
 4675W        W22199   3.571   8.665   2.398  0.1913  0.4333 -0.0121
 4676W        W22200   0.289  12.577  15.829  0.1711  0.1019  0.0943
 4677W        W22201  11.911   2.505  15.431  0.0410  0.2072 -0.0533
 4678W        W22202   5.992  16.121   0.612 -0.2535  0.0187  0.0501
 4679W        W22203  14.309  14.471   4.178 -0.0339 -0.0051  0.1933
 4680W        W22204   3.425  16.411  11.643 -0.0594  0.0619  0.2158
 4681W        W22205  17.957   2.906  12.907  0.0338 -0.1784  0.2199
 4682W        W22206   6.482  17.464   6.040  0.0246 -0.0571  0.2630
 4683W        W22207   4.527   5.371   1.686  0.0195 -0.1149  0.1996
 4684W        W22208   5.818  17.847  13.837  0.0636  0.1443 -0.4635
 4685W        W22209   2.278   2.702   3.949  0.4645  0.0393  0.1037
 4686W        W22210   6.010  12.551   2.671  0.0944  0.1205  0.1301
 4687W        W22211  16.342  12.890   1.360 -0.0939 -0.1500 -0.1216
 4688W        W22212   2.195  11.392   2.216 -0.0768 -0.0342 -0.2573
 4689W        W22213   1.100  16.343   1.768 -0.0083 -0.0684  0.2161
 4690W        W22214   1.335  14.553  15.104 -0.0348  0.2015 -0.4532
 4691W        W22215   3.704  16.905   2.663  0.0354  0.2478 -0.1689
 4692W        W22216   2.562   8.718   4.925  0.2022 -0.2680 -0.2520
 4693W        W22217   9.528  17.560   2.197 -0.2442 -0.3357  0.0385
 4694W        W22218  16.388   1.420   3.470 -0.2467  0.0902  0.0046
 4695W        W22219   2.590  10.978   4.870 -0.1207  0.1615 -0.1618
 4696W        W22220   8.927   6.116   4.320 -0.2123  0.2337 -0.0209
 4697W        W22221   3.353   0.783   3.729  0.0855  0.1355  0.2989
 4698W        W22222  14.105   3.022  12.505 -0.0262 -0.3233 -0.1659
 4699W        W22223  15.008   5.735   0.169 -0.1511  0.0715 -0.0502
 4700W        W22224   9.464   4.333  10.824  0.0233 -0.2158 -0.0470
 4701W        W22225   1.489   3.551  12.530  0.0791 -0.4421  0.0429
 4702W        W22226  14.647  14.073   3.744  0.0658 -0.1045  0.1399
 4703W        W22227   1.051   3.523   0.938 -0.0498 -0.0886  0.0710
 4704W        W22228  11.937   9.424   3.970 -0.1237  0.2042 -0.2170
 4705W        W22229  16.590  14.205   0.761 -0.0565 -0.3347 -0.1503
 4706W        W22230   6.970  15.959  15.124 -0.0783  0.0736 -0.0710
 4707W        W22231   4.438  15.528   0.359  0.0400 -0.1905  0.1662
 4708W        W22232  13.233  14.452  10.356  0.0965 -0.1475 -0.4471
 4709W        W22233  12.314  13.746   3.633 -0.1124  0.1291 -0.0918
 4710W        W22234   5.533   1.548   4.609 -0.3344 -0.1126  0.1628
 4711W        W22235   4.010  11.497   2.444 -0.0292  0.1532  0.2455
 4712W        W22236   8.667  12.159   2.734  0.0586 -0.0338 -0.1780
 4713W        W22237   4.865   5.088   5.016  0.1059  0.1165 -0.2008
 4714W        W22238  16.252   7.576   1.390 -0.0779  0.2799 -0.1558
 4715W        W22239  16.698  11.087  15.932  0.0848  0.1049 -0.0072
 4716W        W22240   1.651   9.824   4.329  0.2275 -0.5316  0.0578
 4717W        W22241  12.801  16.272   0.319  0.2995 -0.0500  0.3046
 4718W        W22242   1.270   6.131   0.367 -0.1205  0.3213  0.0573
 4719W        W22243  14.840   8.566   4.268  0.0251 -0.0601  0.0566
 4720W        W22244  11.137   8.259   1.042  0.0278  0.2520 -0.2077
 4721W        W22245  15.533   1.328  11.795 -0.1457 -0.0570  0.1452
 4722W        W22246  15.265   6.512  15.038 -0.1081 -0.1936  0.1154
 4723W        W22247   5.628   5.529   2.597  0.0791 -0.0941 -0.0166
 4724W        W22248   7.577   2.614   0.805 -0.0019 -0.0345 -0.0101
 4725W        W22249  14.504   9.488  12.704  0.0987 -0.3965  0.0781
 4726W        W22250  10.082  13.039  13.850 -0.0157  0.1273 -0.3165
 4727W        W22251   6.047   8.059  16.035 -0.2463  0.2941 -0.0615
 4728W        W22252  14.089   1.572   2.932 -0.0441 -0.5753  0.0054
 4729W        W22253  11.844  14.946  13.740  0.0960  0.1125  0.2574
 4730W        W22254   2.359   0.254   3.279 -0.3319  0.1870 -0.0558
 4731W        W22255   8.976  16.909  12.388  0.0231  0.1303 -0.0056
 4732W        W22256   6.533   1.625   3.345  0.1069 -0.2460  0.0026
 4733W        W22257   1.412   9.521   0.895  0.4182  0.1408  0.2278
 4734W        W22258  14.940   0.416   2.958  0.0756  0.0943  0.2432
 4735W        W22259   4.169   0.161   2.283 -0.1473  0.3580 -0.1710
 4736W        W22260   4.375  10.372   0.108 -0.0525 -0.0746 -0.0447
 4737W        W22261   6.348   6.738   2.697  0.2008 -0.0697 -0.2295
 4738W        W22262   2.721   4.959   3.604  0.0735  0.1160 -0.0202
 4739W        W22263  13.083  13.731  15.134 -0.0947 -0.0227  0.0254
 4740W        W22264   4.443   7.792  13.955  0.1644  0.0521 -0.1542
 4741W        W22265   6.338   4.995  15.020  0.0572 -0.0368 -0.1980
 4742W        W22266  11.780  17.217   0.559  0.4349 -0.0100  0.0035
 4743W        W22267  14.098  11.331  10.997 -0.3213 -0.2914  0.2155
 4744W        W22268  12.496   4.600   4.727  0.1143  0.2977 -0.4555
 4745W        W22269  15.675  13.205   0.463 -0.0426  0.1898  0.0264
 4746W        W22270   2.767  15.164   4.002 -0.0344 -0.1414 -0.1938
 4747W        W22271  10.426  17.215   3.659 -0.1045 -0.0679 -0.1948
 4748W        W22272   6.636  17.414   2.559 -0.0834  0.1248  0.1726
 4749W        W22273   4.151  17.163  12.820 -0.0279  0.1648 -0.0543
 4750W        W22274   9.869  10.075  15.527 -0.1419  0.1246 -0.1086
 4751W        W22275  14.135  13.514  13.523 -0.2319  0.2511  0.0681
 4752W        W22276   5.605   3.550   5.998  0.1888 -0.0142 -0.2484
 4753W        W22277  11.831   5.679  11.322 -0.0733 -0.1996  0.1061
 4754W        W22278  14.394   9.731   4.167 -0.0502  0.0516  0.0648
 4755W        W22279   5.132   6.871   3.738  0.3180 -0.1357 -0.0012
 4756W        W22280  13.107  17.497   2.786  0.2780  0.0816 -0.0296
 4757W        W22281  15.961  16.582   4.201 -0.0506  0.1116  0.1426
 4758W        W22282   8.901   8.368   4.639 -0.0910  0.1673  0.0695
 4759W        W22283   6.061   2.414  11.726 -0.1535 -0.1631 -0.0037
 4760W        W22284   6.427   9.499   4.816  0.1013  0.1261 -0.1978
 4761W        W22285   8.583  15.843   2.327  0.0746  0.1957 -0.4334
 4762W        W22286   6.542  13.923  15.559 -0.0792  0.0515 -0.3554
 4763W        W22287  12.912   7.405   0.995 -0.1118  0.3323 -0.0690
 4764W        W22288  13.464   8.489  11.164 -0.0280  0.0846 -0.1615
 4765W        W22289  15.844  15.055  15.653 -0.0919 -0.4872  0.0286
 4766W        W22290  16.960  17.224   0.720  0.3073 -0.1586 -0.0288
 4767W        W22291  11.895   2.107  12.166  0.0274  0.0593 -0.0523
 4768W        W22292  17.258   1.836   0.150  0.3336 -0.1949  0.0262
 4769W        W22293  12.058  10.080   3.010 -0.2965 -0.2356 -0.0750
 4770W        W22294   1.491   0.466  14.236 -0.0636 -0.0753  0.1867
 4771W        W22295   7.939  10.738   3.899 -0.2367 -0.2215 -0.1646
 4772W        W22296  14.864   7.478  12.461  0.1522  0.0967 -0.1100
 4773W        W22297   2.384   8.302   1.633 -0.0036  0.1212  0.0008
 4774W        W22298   1.700   9.320   4.999 -0.2980  0.0267 -0.1269
 4775W        W22299  17.506  12.473   5.789  0.1715  0.3704  0.0667
 4776W        W22300   3.339   9.278  12.181 -0.1361 -0.0013 -0.0668
 4777W        W22301   7.753  15.862   0.883 -0.1857  0.2885  0.0491
 4778W        W22302  10.790   5.994  15.576 -0.3394 -0.4494 -0.2490
 4779W        W22303   5.116   4.323   2.107 -0.0247 -0.0895 -0.2060
 4780W        W22304   5.297  15.728  14.395 -0.0930  0.0211 -0.0295
 4781W        W22305   7.915   9.507  15.596  0.1997  0.0478 -0.0862
 4782W        W22306   5.940   8.867  15.679 -0.0068  0.0307  0.0100
 4783W        W22307   0.103   8.248   1.749 -0.0220  0.3446  0.0751
 4784W        W22308  17.599  14.975   2.021  0.2146 -0.2281  0.0289
 4785W        W22309   1.875  10.787   3.294 -0.0404 -0.0544  0.2752
 4786W        W22310   1.789   3.051   2.082  0.2245  0.1892 -0.0850
 4787W        W22311  12.928  15.223   4.006  0.3267 -0.1123  0.0225
 4788W        W22312  16.583   3.761  11.791  0.1552  0.0075 -0.2159
 4789W        W22313  10.534  15.696   5.860 -0.0098  0.1215  0.1376
 4790W        W22314  17.264   6.586   2.418 -0.1337  0.0883 -0.2844
 4791W        W22315   1.450   8.409  11.806 -0.1353 -0.0447  0.1456
 4792W        W22316   7.832   2.350  13.422  0.2959  0.0940  0.3395
 4793W        W22317  15.261  13.173   0.775  0.0838  0.0819  0.0255
 4794W        W22318   8.336  12.870  11.854 -0.1821  0.1782  0.0909
 4795W        W22319   6.246   0.996  12.977  0.0977 -0.1715 -0.0400
 4796W        W22320   0.385   9.967  15.527  0.0840 -0.1744  0.1184
 4797W        W22321   5.651  16.597   2.500 -0.2563  0.2313 -0.1120
 4798W        W22322   8.500   3.953  13.201  0.2943  0.1244  0.0383
 4799W        W22323  16.467  11.900  11.706 -0.0401 -0.3286  0.1759
 4800W        W22324  13.999   1.846  11.930  0.1546  0.0732 -0.0425
 4801W        W22325   0.922  17.500  12.794 -0.0690 -0.0370  0.1193
 4802W        W22326   1.455   0.060  14.600  0.0341 -0.0316  0.1377
 4803W        W22327   0.049   7.240   4.144  0.3334 -0.0140  0.2744
 4804W        W22328   2.287   4.933   0.949  0.1778  0.1352 -0.2270
 4805W        W22329   5.311   0.511  12.897 -0.0900 -0.0197  0.1337
 4806W        W22330  12.595   3.963   2.142  0.2119  0.0072 -0.0330
 4807W        W22331   3.334   6.262  15.104  0.1052  0.1011  0.1029
 4808W        W22332  16.786   8.197   3.383  0.0559 -0.0908 -0.1143
 4809W        W22333   4.591   9.304  12.986 -0.0209  0.3262 -0.0108
 4810W        W22334  15.713  10.026   1.319  0.1364  0.1240  0.0822
 4811W        W22335  15.949  14.745  12.639 -0.0229  0.0686  0.1699
 4812W        W22336   2.632  11.447   1.012 -0.2358 -0.1628  0.0095
 4813W        W22337   9.618   2.093   1.231  0.0576 -0.4398  0.0175
 4814W        W22338   2.863   6.595  15.618 -0.0542 -0.0362 -0.0084
 4815W        W22339   0.731  15.742   5.038 -0.0782 -0.1513  0.1953
 4816W        W22340   4.002   8.355  13.675  0.1017  0.0336  0.2425
 4817W        W22341   6.654   5.159   4.034  0.2017 -0.2569  0.2883
 4818W        W22342   4.685   9.208  10.801 -0.0088 -0.0438 -0.0341
 4819W        W22343  17.425   3.080   0.191  0.1122 -0.0510 -0.0159
 4820W        W22344  16.011  13.458  12.406  0.0717 -0.3528  0.1016
 4821W        W22345   1.106  17.211   3.939 -0.2930 -0.0116  0.0388
 4822W        W22346   9.777  10.681  14.104 -0.0060 -0.0082 -0.2549
 4823W        W22347   2.058   2.674  15.670  0.0810 -0.0632 -0.3445
 4824W        W22348   7.090   8.382  16.093  0.1415 -0.1870  0.1589
 4825W        W22349  13.447  12.889  10.822 -0.0478  0.1468 -0.0494
 4826W        W22350   8.308   5.386   4.583  0.0527  0.0212  0.4356
 4827W        W22351   5.963   8.040  12.606  0.1117  0.0665 -0.1103
 4828W        W22352  15.912  17.232  16.064 -0.0565  0.0472 -0.2227
 4829W        W22353  17.314  10.861   4.134  0.0119 -0.1401 -0.1825
 4830W        W22354   5.689   0.781  13.039 -0.2975 -0.0833 -0.0101
 4831W        W22355  15.875  13.411  14.915  0.1250 -0.1249 -0.2587
 4832W        W22356   9.722   9.127   4.835  0.0639  0.1860 -0.1041
 4833W        W22357  10.777   3.968   2.334  0.2074  0.1307 -0.2677
 4834W        W22358  14.504   3.287   1.554 -0.2828 -0.2196 -0.1174
 4835W        W22359  10.680   2.603   3.446  0.1564  0.1459 -0.0944
 4836W        W22360  10.227   5.054  14.608 -0.2642  0.0677 -0.3011
 4837W        W22361  14.670   0.416   2.445  0.2008 -0.2703 -0.1864
 4838W        W22362  10.637  11.283   2.521 -0.0951 -0.0198  0.1672
 4839W        W22363  10.767   6.869  12.332 -0.2567  0.0658 -0.0602
 4840W        W22364   8.617  11.463  13.127 -0.0539 -0.1261  0.1089
 4841W        W22365   8.212  10.552  14.076 -0.2155 -0.0275 -0.0569
 4842W        W22366   5.051  14.147   2.759  0.0120  0.0879 -0.0092
 4843W        W22367   4.655  15.900  15.719 -0.0519 -0.1810  0.0353
 4844W        W22368   4.193   4.402  14.678  0.3471  0.1731 -0.0975
 4845W        W22369   6.897   8.160  15.602  0.2184  0.0520  0.1936
 4846W        W22370   3.623   3.590   1.146 -0.3667 -0.1509  0.1246
 4847W        W22371   1.795   9.958  15.818 -0.1115 -0.3540 -0.0212
 4848W        W22372  15.244   4.308  11.370  0.3663  0.3545  0.1998
 4849W        W22373  10.985  17.412  15.855  0.0731 -0.0575 -0.0521
 4850W        W22374  15.079  12.560  11.555  0.1515 -0.1881 -0.3450
 4851W        W22375  14.101  13.692  11.790 -0.1022  0.0513 -0.1080
 4852W        W22376   8.818  11.848  12.221  0.1840  0.0388  0.1853
 4853W        W22377  15.839   9.336   4.866 -0.0337 -0.3267 -0.0723
 4854W        W22378   8.772  16.552   1.262  0.0805 -0.1251  0.2419
 4855W        W22379   2.047  11.741  15.690 -0.1323  0.2616 -0.1497
 4856W        W22380  10.087   9.221  15.002  0.1343 -0.3653 -0.0779
 4857W        W22381   0.743  12.311   0.405 -0.0428 -0.1089 -0.0578
 4858W        W22382  16.801  17.225  13.614  0.1102  0.0539  0.0973
 4859W        W22383  12.964   6.184  13.987 -0.2529  0.1347  0.0705
 4860W        W22384   0.814   9.023  13.049 -0.0342 -0.1652 -0.0879
 4861W        W22385   8.046  13.456  15.392 -0.2031 -0.0153 -0.2920
 4862W        W22386   9.361   4.277   5.466 -0.0691  0.0850  0.0688
 4863W        W22387   8.889  16.711   0.801 -0.2219  0.1600 -0.1464
 4864W        W22388   8.774  10.799  14.787  0.0242  0.0208  0.2646
 4865W        W22389   7.174  15.216   3.001  0.3154  0.1928  0.1184
 4866W        W22390  15.231   8.188  10.243  0.1642 -0.1068  0.0084
 4867W        W22391   5.340   7.179   0.334 -0.1479 -0.4212 -0.1488
 4868W        W22392  11.233  14.637  12.231  0.0601  0.3092  0.0155
 4869W        W22393  10.274   8.174  16.106  0.0161 -0.1334  0.0852
 4870W        W22394   9.152   4.298  13.736  0.2162  0.0905 -0.1068
 4871W        W22395   1.871   5.714   4.491 -0.1021 -0.1431 -0.1832
 4872W        W22396   1.098  10.557  11.807  0.3815 -0.0858 -0.1282
 4873W        W22397   7.699  14.926   3.742  0.4238 -0.2103 -0.1246
 4874W        W22398   4.968  15.523   1.782  0.0889  0.2040 -0.1297
 4875W        W22399  16.248  13.210  14.574 -0.3053  0.2737  0.1011
 4876W        W22400   0.347   9.307   5.420  0.4234  0.3791 -0.1360
 4877W        W22401  13.266  15.652  13.092  0.0113  0.1428  0.0764
 4878W        W22402   3.736  16.424  12.416  0.2091  0.1477  0.2012
 4879W        W22403   0.933  17.519  11.921 -0.0751  0.3367 -0.2275
 4880W        W22404  10.852  13.963   3.581 -0.2552  0.1926 -0.1024
 4881W        W22405  13.970  16.815  13.383  0.2888  0.0393 -0.1368
 4882W        W22406   0.646  10.287  14.648 -0.2603 -0.0478  0.1019
 4883W        W22407   3.317   1.958   5.704 -0.0606 -0.2968  0.1869
 4884W        W22408  16.638  12.813  14.663 -0.1841  0.0034 -0.2216
 4885W        W22409   6.072   5.680  13.624  0.0280  0.2085  0.2182
 4886W        W22410   3.795   7.930  13.443  0.2507 -0.1957  0.0963
 4887W        W22411   0.659  11.178  14.970  0.1836  0.0237 -0.0318
 4888W        W22412   5.656   6.766  11.307  0.0710  0.3990 -0.2863
 4889W        W22413   3.979   5.964  11.216 -0.0154  0.0437  0.1081
 4890W        W22414  16.497  13.772  10.093  0.0734 -0.0896 -0.1123
 4891W        W22415  15.044   6.585  10.589 -0.1964 -0.1189  0.1690
 4892W        W22416   0.701  16.343   3.627 -0.0353 -0.4111  0.3544
 4893W        W22417   4.227   2.262   2.427 -0.0323 -0.0357  0.1119
 4894W        W22418  13.431   3.490  13.152 -0.0616 -0.1647 -0.3574
 4895W        W22419   7.368   4.218  15.721  0.3184  0.0005 -0.0517
 4896W        W22420   6.046  15.044  15.845 -0.0386 -0.1029  0.2525
 4897W        W22421   0.673   6.992   1.082 -0.1802 -0.1009  0.1757
 4898W        W22422   4.379  12.231  13.053 -0.1082  0.0918 -0.2946
 4899W        W22423   1.231  12.443   1.751 -0.1406 -0.3112 -0.2642
 4900W        W22424  11.988   0.575  11.958  0.0123 -0.2639 -0.2786
 4901W        W22425   2.949   4.165   2.915  0.1642  0.2905  0.2246
 4902W        W22426  14.367   9.036   5.578  0.0163  0.0886 -0.3292
 4903W        W22427  16.488   2.921  16.072  0.0039 -0.2209  0.0190
 4904W        W22428  15.765  17.772   2.756 -0.5566 -0.1661  0.2621
 4905W        W22429  16.363  10.731  11.666  0.2420 -0.0465  0.2696
 4906W        W22430  12.758   3.377   4.109 -0.2123 -0.0613 -0.2915
 4907W        W22431  11.736   8.843   1.935  0.0289  0.0211  0.0098
 4908W        W22432  11.727   8.737  11.358 -0.0442  0.3995 -0.0429
 4909W        W22433  11.214   7.008   3.593 -0.1148 -0.3309  0.1997
 4910W        W22434  12.182   7.806  13.881  0.2523 -0.0053 -0.1585
 4911W        W22435  11.465  17.177   3.414 -0.1127  0.1857 -0.2363
 4912W        W22436  13.030  14.286  14.848 -0.0067  0.1077 -0.0208
 4913W        W22437   6.342  17.352   4.893 -0.0008 -0.0950 -0.1014
 4914W        W22438   3.032  11.768   2.542 -0.1549  0.0786  0.0194
 4915W        W22439   9.083   0.051  15.499 -0.0848  0.0181  0.1843
 4916W        W22440  10.494   8.852   2.184 -0.0309  0.2422  0.1092
 4917W        W22441  13.347   1.730  11.661  0.1755  0.0941  0.3945
 4918W        W22442   4.073   1.638   3.244 -0.1309 -0.0826  0.3259
 4919W        W22443  16.788   8.721   0.318  0.1571  0.0646  0.4231
 4920W        W22444   2.228   3.718  15.875  0.0320  0.1017  0.1294
 4921W        W22445  12.319   0.792  14.303  0.3306  0.1461  0.1765
 4922W        W22446   0.705   2.298   2.592 -0.1904  0.0486  0.1354
 4923W        W22447  17.816   2.315   0.662 -0.1061 -0.1439 -0.1378
 4924W        W22448  10.487   8.401  14.143  0.0772  0.3142 -0.1539
 4925W        W22449   6.641   0.225  12.643 -0.1980  0.1397  0.0277
 4926W        W22450   4.005   7.947   2.513 -0.1371 -0.2251  0.1433
 4927W        W22451  12.802   2.130   3.731 -0.2342  0.3299  0.1855
 4928W        W22452   0.875  10.383   2.904 -0.0933 -0.0449 -0.1970
 4929W        W22453   0.465   9.481   2.140 -0.2370 -0.1885  0.0037
 4930W        W22454  17.606   5.466   2.298 -0.4184 -0.1584  0.0621
 4931W        W22455  15.057   6.520  16.065 -0.2638 -0.0268  0.1342
 4932W        W22456   5.028   7.100  12.299  0.2574 -0.0111  0.2007
 4933W        W22457  11.183   4.846   0.503  0.0591 -0.0224  0.2615
 4934W        W22458  16.040   1.994   2.378  0.1567  0.0349 -0.1670
 4935W        W22459   7.625   1.656  12.177  0.2827 -0.2204  0.2114
 4936W        W22460   0.963  14.753  12.257  0.0957 -0.1964 -0.0096
 4937W        W22461   9.300  10.658  14.901 -0.0924 -0.1826 -0.3639
 4938W        W22462  13.369   5.073  14.781 -0.2415  0.0952 -0.0857
 4939W        W22463  16.609  15.459  13.003  0.3029 -0.2033  0.1656
 4940W        W22464  14.654   4.914  14.801  0.2398  0.1445  0.0182
 4941W        W22465   5.604   9.101   4.993 -0.1466  0.0399 -0.0142
 4942W        W22466   3.028  12.568  12.594 -0.1598  0.1230 -0.0691
 4943W        W22467   3.889   7.829  11.274 -0.1303 -0.1290  0.3444
 4944W        W22468  16.564   9.721   1.870 -0.1044 -0.1003 -0.3265
 4945W        W22469  15.481   0.137  14.990 -0.2226 -0.1431 -0.1205
 4946W        W22470   6.979   4.641  11.044 -0.2462  0.0182 -0.0852
 4947W        W22471   4.455   2.983  14.677 -0.1814  0.0644  0.0059
 4948W        W22472  10.240   6.579  11.561  0.0432  0.1099  0.2988
 4949W        W22473  12.505  11.690  15.027 -0.2908 -0.0246  0.0594
 4950W        W22474  11.324  16.030  14.111 -0.0032  0.1397 -0.1097
 4951W        W22475   5.390   1.529  14.147 -0.1473  0.1335 -0.2405
 4952W        W22476  11.808  15.931  15.465 -0.2030  0.1475  0.1545
 4953W        W22477   8.505  16.284   3.270 -0.0570  0.0846 -0.1578
 4954W        W22478  17.928   1.278   0.668 -0.2473 -0.3234 -0.1343
 4955W        W22479  10.181   2.543   3.565 -0.1517  0.2504  0.1256
 4956W        W22480  11.634  10.527  14.198  0.1216  0.0754 -0.1254
 4957W        W22481   9.181   8.600   2.737 -0.0264 -0.2015 -0.0534
 4958W        W22482   2.912  10.555  14.845  0.0905 -0.1725 -0.0633
 4959W        W22483  14.416   5.927  10.135  0.0776 -0.2526 -0.2391
 4960W        W22484  12.358  10.338  10.827 -0.0983 -0.0392 -0.0402
 4961W        W22485   7.843   8.232  13.736  0.1355  0.0955 -0.0225
 4962W        W22486  12.510   2.487  13.187 -0.0320  0.1578 -0.2728
 4963W        W22487   5.529  12.345  15.476 -0.1698 -0.0285 -0.0514
 4964W        W22488  11.010  17.334  10.993 -0.1975 -0.1750  0.0469
 4965W        W22489  16.292   1.849  13.727 -0.0819  0.2310 -0.0743
 4966W        W22490   4.152   5.595  15.017 -0.1351 -0.0893 -0.1172
 4967W        W22491   1.787   1.646   3.422 -0.2204  0.1371 -0.0453
 4968W        W22492   2.671   8.301   2.489 -0.2184 -0.0712  0.1204
 4969W        W22493   3.870   8.428  14.214  0.1135 -0.2959  0.1224
 4970W        W22494   0.121   8.729  13.040  0.0937 -0.0718 -0.3130
 4971W        W22495  13.302  10.064   0.899 -0.2597 -0.0185  0.0139
 4972W        W22496   9.993  17.120   4.468 -0.0727 -0.0005 -0.2858
 4973W        W22497   3.798   5.944   4.033  0.0502 -0.0426 -0.3618
 4974W        W22498   5.430  16.348  13.103  0.1946  0.0269  0.1134
 4975W        W22499  15.232  16.206  15.056  0.2426 -0.1392  0.0180
 4976W        W22500   2.330   2.114   1.273  0.0505  0.2170 -0.0211
 4977W        W22501  11.037   5.652   4.236  0.2686 -0.2106  0.1458
 4978W        W22502   1.299   2.814  15.384 -0.2289 -0.0696  0.0491
 4979W        W22503   5.190   9.901  15.345  0.0988 -0.0733  0.0532
 4980W        W22504   5.033  12.762   4.906 -0.1361  0.0009 -0.0265
 4981W        W22505   1.972  15.749   2.303  0.2104  0.1697 -0.1824
 4982W        W22506  12.512   7.642   4.001  0.1424 -0.0686 -0.0647
 4983W        W22507   1.137   6.906  13.295 -0.0112  0.0885 -0.0539
 4984W        W22508  12.672  14.864  15.620 -0.0925  0.1895 -0.2009
 4985W        W22509   6.964   5.488   0.562 -0.1396 -0.2607  0.0645
 4986W        W22510   3.575  13.682  13.681 -0.0427  0.0671 -0.2300
 4987W        W22511   7.641   1.676   4.287  0.1017 -0.2056 -0.4217
 4988W        W22512  14.698   0.494   0.894  0.2069 -0.1699  0.0089
 4989W        W22513  17.754   9.044  14.092 -0.2417  0.4449 -0.0355
 4990W        W22514   2.485   6.187  15.395 -0.0764  0.2066  0.1458
 4991W        W22515  10.990  13.129   0.980 -0.3275  0.0554 -0.0199
 4992W        W22516   9.816   4.878  11.571  0.0218 -0.1084  0.5667
 4993W        W22517  13.817   4.997  15.096  0.0511  0.1285 -0.0621
 4994W        W22518   3.991   4.560   4.255  0.2219  0.2323  0.0155
 4995W        W22519  10.098  13.424  11.882 -0.1857 -0.0133 -0.0105
 4996W        W22520  12.092  16.851   1.927 -0.1972  0.2609 -0.0262
 4997W        W22521  15.608   0.637  13.693 -0.0370  0.1440  0.2116
 4998W        W22522  11.521   5.195   0.248 -0.3008 -0.2313 -0.0220
 4999W        W22523   7.449  10.895   0.382 -0.1316  0.0019 -0.2346
 5000W        W22524   3.392  11.839  13.027 -0.1236 -0.0671  0.2464
 5001W        W22525  16.762  11.290   2.613 -0.2589  0.3057  0.0670
 5002W        W22526  13.837   6.808  11.800  0.1568  0.1225 -0.1064
 5003W        W22527  12.999   5.073   2.324  0.1789  0.1321  0.1301
 5004W        W22528  14.477   0.631   1.963 -0.2851  0.2137 -0.2465
 5005W        W22529  10.657   5.043  12.145  0.0637 -0.2619  0.0384
 5006W        W22530   4.271  15.147  15.810 -0.1872 -0.2564  0.0150
 5007W        W22531   4.004   0.310  11.949 -0.1597  0.1189 -0.2592
 5008W        W22532   1.499  13.487   0.648 -0.0074 -0.0394  0.1976
 5009W        W22533  17.190  10.197  13.205  0.0407 -0.0315  0.2195
 5010W        W22534   1.574   2.670  15.840 -0.1681  0.0062  0.1751
 5011W        W22535  17.502   0.328  11.993 -0.1828 -0.1822  0.1004
 5012W        W22536  15.524   4.975  15.815 -0.2183  0.0995 -0.0349
 5013W        W22537   5.339   4.562  14.018  0.0548  0.0325  0.1555
 5014W        W22538  12.036   4.772  11.223  0.1466 -0.0157  0.3277
 5015W        W22539   0.807   7.325  11.806 -0.1134 -0.1953 -0.1886
 5016W        W22540  14.267   5.851  14.332  0.3679  0.1118 -0.0008
 5017W        W22541   7.693  14.297  13.971 -0.3141 -0.1601 -0.0342
 5018W        W22542   1.587  14.467   1.907  0.4469  0.1380 -0.1956
 5019W        W22543   1.332   5.688  12.268  0.0031  0.1949 -0.1024
 5020W        W22544  13.918  16.911   4.586 -0.3079 -0.0717  0.0607
 5021W        W22545   5.307  13.395   3.126  0.0031 -0.1234  0.0367
 5022W        W22546  12.096  11.656  10.520  0.1004 -0.0179 -0.1328
 5023W        W22547   1.432  11.891  10.801  0.2723  0.1441  0.1413
 5024W        W22548  10.563  11.544  11.966  0.0377 -0.0566  0.0938
 5025W        W22549   7.758  15.603  14.285  0.1685 -0.1925  0.4463
 5026W        W22550   4.785  14.126   5.600  0.1429 -0.0148  0.3321
 5027W        W22551   8.829  12.731  13.952  0.1235 -0.2351 -0.1408
 5028W        W22552   7.329   5.547  12.206  0.0717  0.0426  0.1907
 5029W        W22553  17.080   6.718  11.395  0.1776 -0.2047  0.1337
 5030W        W22554   3.342  10.683  14.592 -0.1592 -0.3491 -0.0237
 5031W        W22555   7.551  11.345  14.217 -0.0337 -0.0810 -0.1047
 5032W        W22556   6.748   6.296  15.284  0.1981  0.2192 -0.1313
 5033W        W22557   7.377   1.009   1.963  0.2736 -0.0665  0.0408
 5034W        W22558  12.468  11.460   1.269  0.1564  0.3916 -0.1709
 5035W        W22559  13.487   1.413   1.513 -0.1154 -0.0313  0.0734
 5036W        W22560   6.569   4.918   5.323  0.0876  0.0634  0.3762
 5037W        W22561   2.613   1.779   5.082 -0.2521  0.0568 -0.1274
 5038W        W22562   5.055  14.098  13.182  0.1384 -0.0061 -0.2335
 5039W        W22563  17.950  10.001   2.600  0.0779 -0.1897  0.1376
 5040W        W22564  17.339  10.455   2.018 -0.2748  0.0282  0.0397
 5041W        W22565   9.132  15.202  11.590  0.0737  0.0298  0.1425
 5042W        W22566  13.152   3.242  12.823 -0.0251  0.0528 -0.0957
 5043W        W22567   5.054  10.782  15.174  0.0250  0.2546 -0.1947
 5044W        W22568   9.300   1.495  12.726  0.2221  0.0143 -0.0648
 5045W        W22569   1.645  16.690   3.789 -0.0057 -0.1114 -0.0411
 5046W        W22570   4.285   9.241   2.519  0.0257  0.1551  0.1532
 5047W        W22571  11.321   6.105  13.960  0.1219 -0.0206 -0.2485
 5048W        W22572   1.446  17.603  14.349  0.2053 -0.0049 -0.1143
 5049W        W22573   8.972   1.800  15.834  0.5451 -0.0148 -0.0365
 5050W        W22574  11.879  15.516   4.642  0.0423 -0.0265 -0.0324
 5051W        W22575  15.121   6.927   4.803  0.0588 -0.0531  0.1758
 5052W        W22576   2.516  11.920   1.024 -0.1162 -0.0876 -0.3036
 5053W        W22577   3.225  14.920   5.515  0.0834  0.0494 -0.1114
 5054W        W22578  12.215  16.418   0.382 -0.0988  0.0675 -0.1034
 5055W        W22579   8.588  15.263  14.620 -0.1496 -0.1950 -0.0724
 5056W        W22580   4.809  10.989  13.553 -0.3916 -0.1683 -0.0616
 5057W        W22581  12.748   8.830  10.463  0.0284  0.0396  0.1675
 5058W        W22582   2.022   0.176  14.418  0.1684 -0.0912  0.1038
 5059W        W22583   9.940   9.835  16.207 -0.1841 -0.1853 -0.2068
 5060W        W22584  10.503   6.068   4.839 -0.0124  0.1605 -0.2556
 5061W        W22585  12.926   4.539   4.438 -0.0590 -0.1117 -0.1906
 5062W        W22586  13.729   9.545  12.469  0.1430 -0.1391  0.2027
 5063W        W22587  12.883   4.737  16.142  0.0098 -0.2362 -0.1137
 5064W        W22588   4.969   0.633  11.241  0.0442 -0.0204  0.1840
 5065W        W22589   9.669   5.534   4.439  0.1424 -0.1832 -0.0648
 5066W        W22590   7.209   5.857   3.757  0.1244  0.0563 -0.2104
 5067W        W22591   2.101   0.466  14.928  0.1973  0.1555 -0.3410
 5068W        W22592  13.026  12.365  14.992  0.1200 -0.0119 -0.1037
 5069W        W22593   7.516  12.332   1.012  0.0822 -0.3207 -0.2819
 5070W        W22594   4.100   7.811  14.743  0.1200 -0.1629 -0.1300
 5071W        W22595   1.347   9.257  11.628 -0.1679 -0.0895 -0.0400
 5072W        W22596   2.009   2.610   2.214 -0.0179 -0.2026 -0.1558
 5073W        W22597   3.886   4.524  14.287  0.2224 -0.0053  0.2825
 5074W        W22598   8.404   5.234  14.545  0.0863  0.0591 -0.1076
 5075W        W22599  14.621  10.871   1.100 -0.0334  0.0613  0.2196
 5076W        W22600  11.737   4.456  15.393  0.1319 -0.0361  0.1368
 5077W        W22601   9.565  11.371  11.529  0.3238  0.1995 -0.2283
 5078W        W22602   6.682  15.600  14.927 -0.0763  0.0054  0.2724
 5079W        W22603   4.703   1.495  13.580 -0.0926 -0.3649  0.1501
 5080W        W22604   5.889   5.400   4.565  0.1502  0.0025 -0.1918
 5081W        W22605  12.277   1.719   2.900 -0.1730  0.1001 -0.0439
 5082W        W22606   1.763  17.961   4.697 -0.0509  0.2118 -0.2179
 5083W        W22607   7.094  13.029   1.198  0.0833  0.3233  0.0296
 5084W        W22608   5.970   3.136   4.463 -0.0642  0.1574 -0.0168
 5085W        W22609   3.774  17.275  13.822  0.0165  0.1125  0.1146
 5086W        W22610   3.382  15.994   6.118 -0.3058 -0.2103 -0.1016
 5087W        W22611   5.911   4.463   0.382  0.0941 -0.2714  0.1194
 5088W        W22612   6.755   6.154  13.766  0.2894 -0.0124 -0.0008
 5089W        W22613  16.541   9.150   0.114  0.1325  0.0472  0.0350
 5090W        W22614  17.459   7.927  15.079  0.0686 -0.3701 -0.0458
 5091W        W22615  12.861  11.313   2.678 -0.1425 -0.2732 -0.0213
 5092W        W22616   6.619   0.191   1.097 -0.2342 -0.0516 -0.0583
 5093W        W22617   4.314   3.040   2.185 -0.1062  0.0134 -0.1147
 5094W        W22618  16.040   2.944   5.497  0.1683  0.1885 -0.0651
 5095W        W22619  10.413   9.988  15.632  0.1385 -0.1936 -0.4667
 5096W        W22620   4.286   6.811  14.247  0.0134  0.3380  0.1045
 5097W        W22621  17.408   2.428   1.671  0.2169 -0.0363  0.0386
 5098W        W22622   9.609   0.035  15.489 -0.1710 -0.0086 -0.0114
 5099W        W22623  12.177  13.741   1.773 -0.0692 -0.1691 -0.1443
 5100W        W22624   8.487  10.514   4.660  0.1128 -0.1244  0.0652
 5101W        W22625  16.638  15.338  14.866  0.1124 -0.1112 -0.0473
 5102W        W22626  15.099  13.138  14.892 -0.1960  0.1250  0.0664
 5103W        W22627  16.289   8.442  15.989  0.0869  0.0095 -0.4826
 5104W        W22628   9.536  13.535   4.844 -0.2811  0.1394  0.2378
 5105W        W22629  15.516   0.285  14.505 -0.0064  0.0623 -0.0790
 5106W        W22630  15.169  11.569  11.871 -0.1798 -0.0946  0.0537
 5107W        W22631   5.799  14.178  15.067  0.4337 -0.1722 -0.1423
 5108W        W22632  13.499   3.890   2.585 -0.2255 -0.1313 -0.0153
 5109W        W22633  16.071   7.299  12.484 -0.1423 -0.3135 -0.0446
 5110W        W22634  15.251  15.485  11.469 -0.1992  0.2578 -0.2194
 5111W        W22635   2.454  15.612  15.103 -0.0740  0.1256 -0.1134
 5112W        W22636   8.252  15.904   1.320 -0.2769  0.3552 -0.0147
 5113W        W22637   3.713  10.305  13.470 -0.0541  0.1230  0.2250
 5114W        W22638  12.965  15.309   0.540 -0.1176 -0.2021  0.0752
 5115W        W22639  17.115   4.915  13.599 -0.0578  0.2178  0.0046
 5116W        W22640  13.551  12.718  15.806  0.1479 -0.0399 -0.2612
 5117W        W22641  14.589   4.054  14.699  0.0481 -0.0953 -0.3374
 5118W        W22642   8.113  17.565   0.663 -0.2159 -0.1842 -0.2413
 5119W        W22643  16.084   9.526   4.416 -0.2908 -0.0115  0.1307
 5120W        W22644   1.711  16.074   2.995 -0.0802 -0.0957  0.1982
 5121W        W22645   3.250   7.944  13.408  0.0176  0.1028 -0.0634
 5122W        W22646   7.202   1.941   4.257  0.1210 -0.0901  0.1984
 5123W        W22647   7.963   2.964  11.540 -0.0593  0.3648 -0.2635
 5124W        W22648   6.711   6.377   2.098  0.0032 -0.3222 -0.1254
 5125W        W22649  11.506  11.517  15.227 -0.2251 -0.2126  0.0890
 5126W        W22650   1.308  14.899  11.959  0.2224  0.0825 -0.0039
 5127W        W22651   9.699  10.406  11.254 -0.0202 -0.4370 -0.2386
 5128W        W22652  17.634  15.115  14.628  0.2466 -0.0198  0.1547
 5129W        W22653  14.218  15.483   0.389  0.1319 -0.3610 -0.0082
 5130W        W22654   6.958   5.511   2.554  0.0900 -0.2500  0.2628
 5131W        W22655  15.619  17.213  15.042  0.1940 -0.2953  0.0466
 5132W        W22656  15.962  17.088  12.959  0.1866 -0.0749 -0.1575
 5133W        W22657  12.975  15.287  13.268  0.2744 -0.0885 -0.1763
 5134W        W22658  11.230  10.374  13.731  0.2115 -0.2788 -0.0063
 5135W        W22659  15.503  10.896   0.072 -0.0419  0.3597  0.0071
 5136W        W22660   6.479   2.692   2.610 -0.1300  0.1629 -0.2430
 5137W        W22661  16.694   7.599   2.786 -0.1774  0.0526  0.1575
 5138W        W22662  15.547   9.963  15.166  0.2691  0.2538  0.4142
 5139W        W22663  10.834   1.029  11.012 -0.1564 -0.1305 -0.0735
 5140W        W22664  17.534   2.554   4.795  0.0986  0.2613  0.0529
 5141W        W22665  14.197   3.417   3.289 -0.0095  0.0007  0.2819
 5142W        W22666   8.906   5.353  14.309  0.1225  0.3441 -0.2475
 5143W        W22667   8.828  10.579  14.283 -0.1974  0.0464  0.0197
 5144W        W22668  12.629   5.060   2.957 -0.1175  0.1863 -0.1043
 5145W        W22669  14.128   1.451  15.201  0.2340  0.1145 -0.1107
 5146W        W22670  17.363  16.257   1.791 -0.2858 -0.0325 -0.2235
 5147W        W22671  16.921  17.506   0.345  0.0934 -0.0859  0.1331
 5148W        W22672   3.648   0.588  14.950 -0.1458 -0.1987  0.1957
 5149W        W22673   0.039   0.202  12.128 -0.1819 -0.3509 -0.0653
 5150W        W22674   5.253  14.448   3.156  0.0668 -0.1516 -0.0118
 5151W        W22675  13.253   6.404   0.154 -0.1484  0.0289 -0.1152
 5152W        W22676   4.766  15.924   1.561 -0.1637 -0.2832 -0.3231
 5153W        W22677  10.486  16.336  15.273  0.0663  0.0193 -0.3034
 5154W        W22678  16.140  16.145  12.036  0.1943 -0.2866  0.3110
 5155W        W22679   7.848  15.963  15.140 -0.2278  0.0589  0.2650
 5156W        W22680   4.848   7.094   3.352  0.0748 -0.0305 -0.1234
 5157W        W22681   1.396   4.490  13.012  0.0673  0.2133 -0.0016
 5158W        W22682   9.182   3.041  15.604 -0.0854  0.1140  0.0678
 5159W        W22683   0.368   7.063   0.258 -0.2830  0.0566  0.1138
 5160W        W22684  13.585   8.746   2.266  0.0449 -0.1373  0.1361
 5161W        W22685   0.284  14.504   0.277 -0.3202 -0.0502  0.2598
 5162W        W22686   0.770   5.213  15.793  0.2179 -0.1079  0.2601
 5163W        W22687   5.724  15.806   5.120 -0.2788  0.0271  0.1431
 5164W        W22688  10.338  13.827  14.312 -0.0782 -0.1619 -0.1647
 5165W        W22689   9.329   7.634   3.754  0.0018 -0.1071  0.0050
 5166W        W22690  11.427   1.730   4.791  0.0423  0.2320 -0.0639
 5167W        W22691  11.952   8.125   5.612  0.0882  0.2897  0.1331
 5168W        W22692   5.367  12.429   5.998  0.3723  0.1658 -0.0393
 5169W        W22693  17.543   5.177   1.902 -0.1148 -0.1741  0.2504
 5170W        W22694  11.117  17.434   3.119  0.2538 -0.1144  0.0510
 5171W        W22695   9.185   6.236  14.310 -0.1454  0.0832 -0.2227
 5172W        W22696  13.876  14.551   2.836 -0.1759 -0.2229 -0.1105
 5173W        W22697   6.337  15.878   2.847 -0.1174  0.0126 -0.0736
 5174W        W22698   3.813   8.711  15.940 -0.5859  0.4002  0.0353
 5175W        W22699   2.012   2.358   4.566 -0.2571 -0.0604 -0.0596
 5176W        W22700   3.028   3.719   1.631 -0.0750  0.0853 -0.2179
 5177W        W22701  11.803  10.806   0.046  0.0038  0.1378 -0.3441
 5178W        W22702   1.817   9.261  13.122 -0.2366  0.0172 -0.1141
 5179W        W22703   0.183   0.235  10.705 -0.0378  0.0627 -0.3642
 5180W        W22704  12.121  11.525   4.049 -0.2608  0.3312 -0.1871
 5181W        W22705  11.190  15.563  11.238  0.1026 -0.1220 -0.0657
 5182W        W22706  11.039   6.171   1.495  0.1146 -0.2395  0.1665
 5183W        W22707  17.720  14.953   3.335  0.0803  0.2576 -0.1250
 5184W        W22708   4.614   3.772   4.410  0.0323 -0.2793 -0.0095
 5185W        W22709   9.294  15.624  12.035  0.2941  0.0695  0.0289
 5186W        W22710  16.857  15.685  11.395  0.0443 -0.2311 -0.2037
 5187W        W22711  15.261  12.993  15.654  0.0496 -0.1191  0.0216
 5188W        W22712   1.985  17.278   1.959 -0.2159 -0.1664 -0.1833
 5189W        W22713  14.554  16.031   3.371  0.2699  0.1852  0.0266
 5190W        W22714   3.765  10.426  14.690  0.1753 -0.3961  0.0620
 5191W        W22715  14.885  11.654  11.433 -0.3692 -0.0276 -0.3550
 5192W        W22716   1.303   8.208  14.592  0.0478  0.0805 -0.1010
 5193W        W22717  16.982   4.083   4.457 -0.3738 -0.1377 -0.0786
 5194W        W22718  17.626  16.074   2.723  0.2705  0.1542  0.0404
 5195W        W22719   8.773  17.005  11.468  0.1363  0.3003 -0.1220
 5196W        W22720  12.862   9.767   0.263 -0.0414 -0.2884  0.1298
 5197W        W22721  12.202  14.138   3.854 -0.1741  0.2541 -0.3830
 5198W        W22722  14.396   1.145  12.952  0.5966  0.0163  0.2496
 5199W        W22723  12.005   4.011  11.429 -0.1054  0.0004 -0.1109
 5200W        W22724  11.841  13.581   2.620  0.0708  0.1525 -0.1798
 5201W        W22725   3.442   2.441   4.784 -0.3073  0.1676  0.2250
 5202W        W22726   6.858  11.463   0.031 -0.2952  0.0652  0.2022
 5203W        W22727  14.482  15.770   0.036  0.0776  0.1582 -0.1092
 5204W        W22728  17.725   5.858  15.745 -0.0192 -0.1836 -0.0097
 5205W        W22729   8.934  13.597  15.900 -0.2047 -0.2199  0.2900
 5206W        W22730   8.091   7.399  12.872 -0.2008  0.0824 -0.1931
 5207W        W22731  13.175   4.997  11.921 -0.0859  0.1573 -0.0703
 5208W        W22732  17.925  17.149   0.040 -0.1475  0.2091  0.1027
 5209W        W22733   8.310  15.172  10.805 -0.1582  0.1257  0.2212
 5210W        W22734  10.964   3.887  15.007 -0.0050 -0.2616  0.0274
 5211W        W22735  15.889   5.371  16.002  0.1435 -0.0187  0.0692
 5212W        W22736   5.563  10.838  15.816  0.3764 -0.1613  0.1672
 5213W        W22737  14.539   2.535   3.119  0.0568  0.0761 -0.1235
 5214W        W22738   5.283  11.768  11.834  0.1227 -0.0466 -0.0380
 5215W        W22739   3.758  16.117   0.901  0.3787 -0.0487  0.1497
 5216W        W22740   2.708  11.318  12.445 -0.1163  0.0364  0.1271
 5217W        W22741  14.752   3.819   2.458  0.0942 -0.0441 -0.2873
 5218W        W22742   0.089   0.872   1.260  0.0922 -0.1126 -0.0766
 5219W        W22743   7.158  16.403  11.742  0.0304  0.2446 -0.0693
 5220W        W22744  15.964   6.862   1.924  0.2106 -0.2243  0.1039
 5221W        W22745  16.477  10.266  11.896  0.0052  0.1623  0.1831
 5222W        W22746  14.750   9.398   0.266  0.1643  0.2753 -0.1192
 5223W        W22747  12.377   2.272   4.167  0.0206 -0.2742 -0.0202
 5224W        W22748  11.629  10.906  12.691 -0.3225  0.0347 -0.1162
 5225W        W22749  11.299   3.035   4.067 -0.0596  0.1205  0.1723
 5226W        W22750  13.009  13.475   0.084  0.0897  0.1454  0.1163
 5227W        W22751  10.505   7.748   2.536 -0.2560 -0.2085  0.1880
 5228W        W22752   8.101   6.853  11.676 -0.0784 -0.3357 -0.1302
 5229W        W22753  11.890   8.091  12.566  0.1536 -0.1744  0.1071
 5230W        W22754   5.098   9.922  10.827  0.0152  0.1961 -0.3232
 5231W        W22755   4.042   0.272  15.147 -0.0339 -0.4055  0.1821
 5232W        W22756  13.085   4.576   0.950  0.1317  0.1323 -0.0536
 5233W        W22757   7.576  10.501  12.749 -0.0645  0.1772  0.0703
 5234W        W22758  11.611   9.137  14.751 -0.2636  0.1066 -0.1168
 5235W        W22759   0.571   9.263  14.848  0.0691 -0.0147 -0.0143
 5236W        W22760   5.970  17.431  14.281  0.0601 -0.2055  0.1968
 5237W        W22761   7.433  13.406   4.300 -0.0614  0.1572  0.1348
 5238W        W22762   1.143  13.976   0.586 -0.2955 -0.1788  0.1846
 5239W        W22763   7.882  12.132  12.437 -0.0454 -0.1413  0.1597
 5240W        W22764   7.599   9.434   6.435 -0.3201 -0.3036  0.1212
 5241W        W22765  16.550  10.415  13.593 -0.0259 -0.0996  0.0656
 5242W        W22766  15.934  11.116  14.373  0.1207 -0.0442  0.1281
 5243W        W22767   1.765  10.741   1.650  0.5082 -0.0232 -0.2338
 5244W        W22768   4.685  17.714  14.566 -0.1689  0.5041  0.2335
 5245W        W22769  16.240  11.836   4.590 -0.0852 -0.0020  0.0299
 5246W        W22770  14.278   1.257  12.475 -0.2248 -0.0797 -0.1754
 5247W        W22771  11.661  12.131   0.562 -0.0828 -0.2368  0.2616
 5248W        W22772   5.182  12.853   3.014  0.3025 -0.3047 -0.4284
 5249W        W22773  17.820   5.116   5.917  0.2100  0.0352 -0.1136
 5250W        W22774   1.971   3.970  14.931 -0.0524  0.3352  0.1322
 5251W        W22775  15.079   0.937  15.765 -0.1533  0.0390 -0.0173
 5252W        W22776  14.929   4.793  12.171  0.2930 -0.1611  0.1420
 5253W        W22777   5.120  13.807  11.898  0.0151 -0.0064 -0.1836
 5254W        W22778   0.039  14.964   5.070  0.0044 -0.0327 -0.0984
 5255W        W22779   7.016  16.284  11.208 -0.1906 -0.0421 -0.0796
 5256W        W22780   0.171   3.661  11.573 -0.2871  0.0877 -0.3331
 5257W        W22781   2.708   3.717   5.108 -0.0590 -0.0211 -0.0994
 5258W        W22782  14.772  15.201   1.120  0.2410 -0.0035 -0.0090
 5259W        W22783  10.898  14.295  15.410  0.0513 -0.1364  0.3581
 5260W        W22784   1.125  13.444  16.161 -0.0683 -0.0408  0.3637
 5261W        W22785   3.757  16.966   1.273 -0.1237 -0.1973  0.0839
 5262W        W22786  12.550  13.061  15.829  0.0560  0.0061  0.0829
 5263W        W22787   2.625   4.073  15.200  0.3177  0.0794 -0.3492
 5264W        W22788   0.696  15.810  14.812 -0.1597 -0.0743  0.1087
 5265W        W22789   9.779  16.959  14.636  0.0035  0.2835 -0.2467
 5266W        W22790  12.953  11.541   4.670  0.1191  0.0794 -0.2522
 5267W        W22791   2.675   1.954   3.514 -0.2899  0.2801  0.2780
 5268W        W22792  13.707  14.712  11.192 -0.0010  0.0983  0.1403
 5269W        W22793  11.249  16.980  13.765  0.1740 -0.1523 -0.2285
 5270W        W22794   2.830   0.032  11.157  0.0501 -0.0638  0.0690
 5271W        W22795  10.072   5.783  14.251 -0.4625  0.1668 -0.0142
 5272W        W22796  16.667   1.111   3.134  0.0635 -0.1352  0.0368
 5273W        W22797  16.158   8.194   1.050  0.0266  0.0360 -0.1375
 5274W        W22798  17.512   2.088   1.273 -0.2373  0.2028 -0.0039
 5275W        W22799   6.864   5.045   0.224 -0.0928  0.1857  0.3116
 5276W        W22800  11.253   1.253   0.553  0.0085  0.0925  0.0666
 5277W        W22801   6.817  17.959  12.216 -0.0435 -0.1320 -0.1134
 5278W        W22802   3.470  11.253   6.181 -0.0803 -0.2203  0.1367
 5279W        W22803  12.936   2.355  15.417 -0.0321 -0.0809  0.0457
 5280W        W22804  10.474  12.810  12.454  0.0180 -0.0164 -0.4670
 5281W        W22805  15.635  15.758   2.295 -0.1273  0.3885  0.0504
 5282W        W22806  14.524  10.528  13.761  0.1309  0.0068 -0.0482
 5283W        W22807  12.553   1.843   0.162  0.2981  0.4139  0.1686
 5284W        W22808   0.950   4.563   4.425  0.1851 -0.1279 -0.0036
 5285W        W22809  17.416  14.477  12.098 -0.4484 -0.4030 -0.0272
 5286W        W22810  17.190  15.449   4.841  0.4186 -0.1328 -0.1524
 5287W        W22811   0.220   4.104  16.231  0.2936 -0.2467  0.2103
 5288W        W22812   4.915  17.189  10.622  0.2131 -0.0708  0.3448
 5289W        W22813   2.336   3.367  11.474 -0.2037  0.2898 -0.0552
 5290W        W22814   4.729   4.617   1.897 -0.1993 -0.1356 -0.0734
 5291W        W22815  14.439  16.387   2.880 -0.2148 -0.3627 -0.4044
 5292W        W22816  13.436  17.291   0.869 -0.0553  0.1118  0.5640
 5293W        W22817  15.734  10.528  10.591 -0.1042  0.1382  0.0320
 5294W        W22818  16.550  10.723  12.651 -0.2637 -0.0858 -0.1702
 5295W        W22819   0.179   3.263  12.030 -0.0304 -0.2659  0.2732
 5296W        W22820   4.876   2.594  14.365 -0.0966 -0.2841  0.3059
 5297W        W22821  16.566   6.512  11.456 -0.0156 -0.1650  0.0769
 5298W        W22822   6.505   6.122   4.876 -0.1160  0.0766  0.2549
 5299W        W22823  13.528  10.735   3.982 -0.1892  0.0680 -0.1149
 5300W        W22824  13.246   7.257  14.988  0.0099  0.2635  0.0074
 5301W        W22825   4.347   9.489   0.488  0.0652  0.1816  0.3232
 5302W        W22826  10.643  11.604   0.042 -0.2378 -0.1189 -0.3222
 5303W        W22827  16.681   0.484  12.402  0.3547 -0.1175  0.0656
 5304W        W22828   6.145   1.852   4.987 -0.1501  0.1076 -0.0078
 5305W        W22829   5.895   8.580   4.696  0.0111 -0.0616 -0.1713
 5306W        W22830  13.455  10.244   1.784  0.0427  0.2745  0.0038
 5307W        W22831   1.133  15.548   1.936 -0.1530 -0.2418  0.2113
 5308W        W22832  13.901  16.726  15.123 -0.2743 -0.2356  0.1923
 5309W        W22833   8.718   2.335  15.989 -0.2576 -0.1975  0.0971
 5310W        W22834  11.407   2.310  12.111  0.1007 -0.0831 -0.1130
 5311W        W22835  10.294   6.040   1.231 -0.2669 -0.1679  0.2324
 5312W        W22836   3.412   9.714  14.259  0.1278 -0.2360 -0.3010
 5313W        W22837   7.830   1.470   0.535  0.1244  0.2121  0.1356
 5314W        W22838  13.002  10.122   1.964  0.0240 -0.0552  0.0885
 5315W        W22839  12.872   4.828  12.325 -0.1351 -0.2269  0.2984
 5316W        W22840   9.441  11.730  13.150  0.0020  0.0849 -0.1646
 5317W        W22841  10.769  12.750   4.943  0.4954  0.0813 -0.1254
 5318W        W22842   4.935  12.084   0.837 -0.0415  0.1256  0.0151
 5319W        W22843   3.484   8.296  15.311 -0.2068 -0.0015  0.0959
 5320W        W22844  10.663   7.801  12.508  0.0261 -0.1217 -0.0695
 5321W        W22845   9.122   5.324  11.828  0.1772 -0.3999  0.2580
 5322W        W22846   3.204  16.608   2.024 -0.0722  0.1641 -0.2305
 5323W        W22847  16.909   4.139  11.868  0.0565  0.0006  0.1460
 5324W        W22848   2.868   9.435   1.763 -0.1599 -0.2091 -0.0337
 5325W        W22849   0.617   1.342   1.227 -0.3550  0.2941 -0.1583
 5326W        W22850   6.207   8.994   6.069  0.0370 -0.1154 -0.2669
 5327W        W22851   6.327   4.333   2.594 -0.1571 -0.0349  0.2275
 5328W        W22852  15.421   3.093  11.496 -0.2438 -0.0932 -0.0381
 5329W        W22853   3.252   2.151   6.148 -0.3754 -0.1180 -0.1788
 5330W        W22854   8.052   9.212  12.919  0.2969 -0.0284  0.4090
 5331W        W22855  10.129  11.634   0.094  0.1549  0.0898 -0.3235
 5332W        W22856  13.811  15.624   4.434  0.2390  0.0071 -0.0624
 5333W        W22857  14.986   0.345   1.661  0.2549  0.0069  0.1303
 5334W        W22858   7.475  12.360  11.492  0.0671 -0.0720  0.2238
 5335W        W22859   1.777   0.618   1.397  0.0943  0.0672 -0.2595
 5336W        W22860  11.242   7.701  11.828  0.1585  0.0923  0.1341
 5337W        W22861  14.056  15.101  13.196  0.1599  0.0159  0.0186
 5338W        W22862   4.502   8.970  14.778 -0.0438 -0.0647  0.0196
 5339W        W22863  12.745   9.211   4.404 -0.2234  0.4252  0.1153
 5340W        W22864   9.368  15.490   3.964  0.2195  0.0252 -0.0926
 5341W        W22865   9.321   6.591  14.699  0.2214 -0.0234  0.0416
 5342W        W22866   1.253   4.028   3.358  0.2555 -0.2213 -0.1937
 5343W        W22867  17.085  11.355   3.486 -0.3566 -0.2675  0.0152
 5344W        W22868  17.895   5.095  11.916 -0.1940 -0.1648  0.0566
 5345W        W22869   5.203  14.221  15.751  0.1119  0.0244  0.1279
 5346W        W22870  12.617  12.830  11.869  0.0127  0.2825 -0.0456
 5347W        W22871   2.567  15.220   1.619  0.1152 -0.0460  0.0241
 5348W        W22872   6.491  10.341  14.575 -0.0768 -0.2359 -0.0764
 5349W        W22873   2.316  15.108   2.818  0.0159  0.3440  0.1260
 5350W        W22874   9.651   1.305   3.331 -0.0200 -0.0448 -0.1330
 5351W        W22875   3.340   2.633  12.193  0.0019  0.0045 -0.0568
 5352W        W22876  10.737  15.015  15.489 -0.0148 -0.1114 -0.3145
 5353W        W22877  16.319   4.380   0.332  0.1103  0.0469  0.0858
 5354W        W22878  13.637  16.559  10.321  0.0572  0.3217 -0.0232
 5355W        W22879  13.562  12.983   0.597 -0.1394  0.0949  0.0200
 5356W        W22880  12.710   7.554  14.493 -0.0626  0.3634  0.2440
 5357W        W22881  15.720   5.030   3.472 -0.1577 -0.1019  0.0181
 5358W        W22882   0.924   4.075   2.235 -0.4158 -0.1877  0.1087
 5359W        W22883   8.858  12.431   6.007 -0.0189  0.1587  0.1534
 5360W        W22884  13.557  13.342   1.461  0.3112 -0.0434 -0.1546
 5361W        W22885   2.690  10.822   2.758 -0.2710 -0.1416 -0.2482
 5362W        W22886  16.735   9.144  14.201 -0.1446  0.1424 -0.3250
 5363W        W22887  10.381   7.536  13.668  0.0380  0.0250  0.0013
 5364W        W22888  12.550  16.547  12.334  0.2516 -0.1003  0.0915
 5365W        W22889  12.594   3.464  15.266 -0.2138 -0.0821 -0.0071
 5366W        W22890  13.950   1.171   2.744  0.1892  0.0231  0.0397
 5367W        W22891  17.213  10.574  12.623  0.1222  0.1459  0.2368
 5368W        W22892  12.446   9.930  11.224 -0.0004  0.1728  0.0190
 5369W        W22893   0.682   9.474  14.365 -0.3208  0.1753 -0.0198
 5370W        W22894   8.137  14.044  12.199 -0.0614  0.1970  0.0141
 5371W        W22895   1.944  13.199  11.641  0.2213  0.0565 -0.0063
 5372W        W22896   2.960   0.551  14.293  0.0859  0.1086  0.0542
 5373W        W22897  12.810   2.976  13.697 -0.0137 -0.2156  0.1223
 5374W        W22898  12.699  11.786  11.395 -0.0747 -0.2096  0.0101
 5375W        W22899   5.376   0.902  15.626  0.0233  0.0117  0.0011
 5376W        W22900  13.143   6.868   0.237  0.0328  0.0309 -0.0425
 5377W        W22901   7.130   1.361  16.086 -0.2418  0.2170 -0.2994
 5378W        W22902  11.743   8.862  13.523 -0.1522  0.1288  0.1049
 5379W        W22903   2.355   0.809  13.968  0.2245  0.1079  0.0841
 5380W        W22904   3.201  17.252   5.006 -0.1671 -0.0667  0.0533
 5381W        W22905  14.155  16.632   2.453  0.3137 -0.1636  0.0192
 5382W        W22906   2.749   3.333   1.007 -0.2221  0.0272  0.0985
 5383W        W22907   1.029   8.925  12.457  0.1300 -0.0113  0.1216
 5384W        W22908  15.571   1.415   2.398 -0.2534 -0.1259 -0.0989
 5385W        W22909   7.163   6.077   1.417 -0.0569 -0.1072  0.3177
 5386W        W22910   1.209  13.401  12.107  0.2164 -0.2117 -0.1903
 5387W        W22911  17.951   3.647  15.135  0.0392 -0.2336 -0.0122
 5388W        W22912   9.772   6.187  15.994 -0.1557  0.0843 -0.3898
 5389W        W22913  12.986  14.327  11.755  0.0566 -0.0273 -0.1052
 5390W        W22914  13.080  12.446  15.798 -0.1841 -0.3229  0.0925
 5391W        W22915  17.880   1.042   2.253  0.1129  0.0354  0.2141
 5392W        W22916  13.238   9.035  14.601  0.2428 -0.1400 -0.2105
 5393W        W22917   6.840  15.257  13.091 -0.0918  0.0445 -0.1280
 5394W        W22918   0.804  15.914   3.419  0.1240 -0.1599  0.2070
 5395W        W22919   3.884  15.364   0.305 -0.0259  0.1183  0.1191
 5396W        W22920  13.491  15.932   2.750 -0.1400 -0.0883 -0.1408
 5397W        W22921   0.813  16.544  11.680  0.0271  0.0256 -0.0768
 5398W        W22922   3.206   9.857  15.931 -0.0833 -0.1326  0.0267
 5399W        W22923   9.331  11.718  13.621  0.2050  0.1038 -0.1763
 5400W        W22924  14.167  15.405  10.790 -0.3817  0.0165 -0.0336
 5401W        W22925   5.267  16.693   0.145 -0.0702  0.2752 -0.0746
 5402W        W22926   4.069  11.067   1.036  0.2156 -0.2421 -0.0068
 5403W        W22927   9.120  12.624   2.462  0.1580  0.0968 -0.0930
 5404W        W22928  13.942   2.739  11.962 -0.3938 -0.0006  0.0400
 5405W        W22929   7.797  14.270  15.184  0.2963  0.1403  0.4082
 5406W        W22930   8.918   9.321  13.189  0.2961  0.0858  0.0425
 5407W        W22931   5.086   2.667  11.896 -0.2127 -0.2620 -0.1496
 5408W        W22932   1.569  10.656  15.458  0.0510  0.0776  0.2649
 5409W        W22933   9.681   4.239  15.010  0.1252 -0.4305 -0.0579
 5410W        W22934  10.595  11.238   1.766  0.0479  0.1568  0.1142
 5411W        W22935  16.040  13.249   2.991 -0.0242  0.3615 -0.2490
 5412W        W22936  17.630  17.131   4.887  0.3629  0.0307  0.2992
 5413W        W22937   7.304   5.535   4.967 -0.5648 -0.3607  0.0001
 5414W        W22938   3.593   1.369   3.349  0.2156 -0.1509 -0.1086
 5415W        W22939   0.833  14.954   2.733  0.1996 -0.1671 -0.1036
 5416W        W22940   0.722  13.772  15.914  0.1009  0.1642 -0.0388
 5417W        W22941   6.535   3.855  12.253  0.2369 -0.0221  0.3992
 5418W        W22942  13.705   6.577   2.268 -0.1222 -0.0268  0.0969
 5419W        W22943   8.667  13.060  12.625 -0.0816  0.1839 -0.3185
 5420W        W22944  15.063   4.828   4.032  0.1993  0.0631 -0.0058
 5421W        W22945  13.423  14.632   1.720  0.4605  0.0283  0.0971
 5422W        W22946   9.323   7.278  15.374  0.0045  0.3385 -0.3103
 5423W        W22947   3.401   5.936  11.399  0.1959 -0.1229  0.0392
 5424W        W22948  10.713   6.496  16.142  0.3807  0.0288  0.3633
 5425W        W22949  17.368   2.969  14.127  0.1385  0.0884  0.0213
 5426W        W22950  11.507   8.944  10.867 -0.0073 -0.0315  0.0756
 5427W        W22951   3.377   2.359   0.137 -0.0422  0.1997 -0.2245
 5428W        W22952  11.372   0.796   1.441 -0.2664 -0.1926  0.1616
 5429W        W22953   0.503   8.001  13.926 -0.0075  0.1407  0.1157
 5430W        W22954  17.791   4.155   2.464  0.0526 -0.1187  0.2437
 5431W        W22955   9.120  16.274   1.789  0.2065  0.2917  0.2767
 5432W        W22956   9.692   6.881  14.493  0.1069  0.2358  0.1959
 5433W        W22957   8.137  10.472   1.003  0.1777 -0.1886 -0.2094
 5434W        W22958   8.461   6.089  11.731 -0.2436  0.0814 -0.1201
 5435W        W22959   6.628   6.803   1.844 -0.0225  0.0504  0.0316
 5436W        W22960   4.252   6.303   0.440 -0.0842 -0.0299  0.0829
 5437W        W22961  12.389   5.652  15.750  0.0341  0.1028  0.2700
 5438W        W22962   0.271  16.945  12.230  0.2471 -0.1363 -0.0976
 5439W        W22963   8.608  12.204  13.129 -0.0939  0.1745  0.1747
 5440W        W22964   6.082   0.682   1.926  0.1822 -0.0895 -0.2261
 5441W        W22965   5.690   9.392   4.075 -0.1259 -0.1105 -0.1338
 5442W        W22966   3.865  14.026  12.301 -0.4157  0.0875 -0.1869
 5443W        W22967  16.111   6.810  13.532  0.0919 -0.0638  0.0194
 5444W        W22968  14.729   2.586   4.189  0.0636  0.2099 -0.0775
 5445W        W22969   1.710  16.349  12.649 -0.3812  0.0087  0.0037
 5446W        W22970  10.667   2.289   4.741  0.1162  0.0006  0.1466
 5447W        W22971   3.065  10.181   1.607  0.4139  0.1112 -0.0146
 5448W        W22972  14.164   7.051  14.899 -0.0654 -0.2510 -0.2277
 5449W        W22973  13.061   1.646  12.862  0.0088  0.1698  0.2233
 5450W        W22974  16.752   3.790   0.120 -0.0017  0.0558 -0.0391
 5451W        W22975   7.229   7.640  15.226  0.0427  0.0105  0.0807
 5452W        W22976   1.666   1.910  13.421 -0.2240 -0.1106  0.1435
 5453W        W22977   7.448   6.745   0.898 -0.1130 -0.1375  0.0535
 5454W        W22978   1.316   3.693   4.725  0.3624 -0.2238 -0.1864
 5455W        W22979  13.678  10.770   5.720 -0.0696 -0.1016 -0.0974
 5456W        W22980   3.274   6.001  12.870 -0.3154 -0.0574  0.1582
 5457W        W22981   3.817  15.977  13.977 -0.2488  0.0678 -0.3893
 5458W        W22982   4.641  10.059  13.292 -0.3767 -0.0567  0.1539
 5459W        W22983  10.700   5.556  12.488 -0.0897 -0.0798 -0.0418
 5460W        W22984   4.273  12.881  12.374 -0.1546 -0.2698 -0.0800
 5461W        W22985   9.438   1.111  13.608  0.1405 -0.0223 -0.1420
 5462W        W22986   6.898  15.015   2.257  0.0887 -0.1861 -0.2618
 5463W        W22987   0.530  11.952   2.364 -0.5249  0.1447 -0.1598
 5464W        W22988   2.670   2.236  12.499 -0.1432 -0.0750 -0.2331
 5465W        W22989   3.921   7.174  14.358 -0.1096  0.1126  0.0813
 5466W        W22990   1.376  17.054  14.017 -0.1145  0.0909  0.1874
 5467W        W22991  14.163  13.170  15.500  0.4488  0.0427 -0.0809
 5468W        W22992   6.301   4.922  10.374 -0.1990 -0.3070 -0.2379
 5469W        W22993  17.909  13.421  12.568 -0.2883 -0.0231  0.0574
 5470W        W22994   7.580  15.754   3.942  0.0192 -0.2565 -0.1680
 5471W        W22995   7.324   7.057   0.177  0.2244 -0.1244 -0.0035
 5472W        W22996   2.599   5.583  12.416  0.2798  0.0456 -0.0630
 5473W        W22997  16.256   7.836   4.130  0.3152 -0.1593 -0.0209
 5474W        W22998  14.470   0.705  14.216  0.0902  0.3016  0.1877
 5475W        W22999   3.714  10.832   1.744 -0.1594  0.2431 -0.2136
 5476W        W23000  12.138   3.004  15.235  0.2378 -0.1064  0.0662
 5477W        W23001  14.945   8.887  12.702 -0.0848 -0.1248 -0.1430
 5478W        W23002   8.264   0.067   3.089 -0.0469  0.0490  0.0884
 5479W        W23003  12.164   0.910   2.093  0.0317 -0.0607  0.1422
 5480W        W23004  15.997   0.751  13.361  0.3113  0.0614  0.1772
 5481W        W23005   4.022  15.726   1.205  0.0770 -0.0697  0.1346
 5482W        W23006  11.255  14.027   3.301  0.1763  0.0296  0.3182
 5483W        W23007  11.937   9.078   1.503  0.2253  0.1522  0.0314
 5484W        W23008   8.521   0.137  13.770  0.1815  0.1819 -0.0214
 5485W        W23009   0.813   7.284   5.011  0.2424  0.0176  0.0730
 5486W        W23010   5.569  11.833   2.242  0.0718 -0.0247 -0.1760
 5487W        W23011  14.275  12.309  12.855 -0.1083  0.0944 -0.0097
 5488W        W23012  11.946  10.068  15.321 -0.2750  0.1931  0.1474
 5489W        W23013   1.835  16.903  15.153 -0.0258  0.0216 -0.1208
 5490W        W23014  13.758   0.456  13.064 -0.1857 -0.0276  0.2851
 5491W        W23015  15.617  16.876   2.587  0.2070 -0.1181 -0.2079
 5492W        W23016   8.615  17.070   5.104 -0.1141  0.1238 -0.1548
 5493W        W23017   5.743   1.779  12.828 -0.0913 -0.1455  0.0982
 5494W        W23018  13.365  10.508  14.813 -0.1704 -0.3183 -0.0717
 5495W        W23019   4.800   9.513   3.651  0.0530  0.1299 -0.2107
 5496W        W23020  10.310   0.063   0.284 -0.0019 -0.2636  0.1161
 5497W        W23021   7.261  16.860  13.100  0.0164 -0.0392  0.1019
 5498W        W23022  17.513   4.948  10.444 -0.0038 -0.1261 -0.0045
 5499W        W23023  10.905  16.676   2.911 -0.0692 -0.1760  0.3764
 5500W        W23024  11.235   2.820  14.836 -0.2352 -0.0689 -0.0117
 5501W        W23025   9.968   5.554   2.715 -0.2227 -0.0587  0.1309
 5502W        W23026   6.867  17.517   0.373 -0.0963  0.0680  0.1031
 5503W        W23027  16.367  15.704  11.340 -0.0243  0.1275 -0.1214
 5504W        W23028  17.431  17.878   3.455 -0.2671 -0.0259  0.1274
 5505W        W23029  14.853   3.015  13.068  0.2085  0.1172 -0.0999
 5506W        W23030   2.289   6.065  12.497  0.1353 -0.0275  0.0594
 5507W        W23031   0.756   9.532  13.001 -0.0526  0.3457  0.2617
 5508W        W23032  13.898  16.650   1.991  0.2134  0.1638  0.2051
 5509W        W23033  10.884  13.234   4.904  0.1251 -0.1665  0.0544
 5510W        W23034  11.514   9.364   1.947  0.1074  0.0254  0.0744
 5511W        W23035   2.750  15.414   2.141  0.0111  0.0361  0.0310
 5512W        W23036   5.392  16.139   0.138  0.0605  0.1019  0.2762
 5513W        W23037   7.339   0.658   2.361 -0.1663 -0.0061 -0.1271
 5514W        W23038  14.981   4.549  13.810  0.2317 -0.0610  0.1375
 5515W        W23039   4.132  10.249   4.883  0.2945 -0.0721 -0.2916
 5516W        W23040   2.940   9.902   4.445  0.0701 -0.1896 -0.3578
 5517W        W23041   8.803  14.304   3.221  0.0472 -0.1575  0.2272
 5518W        W23042  11.904   3.514   4.288 -0.0196  0.1036  0.0179
 5519W        W23043  15.918  10.281   2.371  0.1761  0.0215  0.2989
 5520W        W23044   4.104  17.950  13.247  0.0085 -0.2863  0.0666
 5521W        W23045   3.321  12.321  14.645 -0.0571  0.3759 -0.0143
 5522W        W23046  14.682   4.792   0.020  0.1405  0.2145 -0.0063
 5523W        W23047   5.576  16.919  13.864 -0.1411  0.1360  0.0281
 5524W        W23048   2.288   7.868   5.345  0.3172 -0.1814  0.2992
 5525W        W23049  15.496   0.421  13.233 -0.0096  0.5029 -0.1042
 5526W        W23050  15.499  12.561  15.430  0.1109  0.1531  0.2793
 5527W        W23051   4.295  11.353   2.928 -0.1921 -0.1677  0.2020
 5528W        W23052  15.179  14.511  15.291  0.3533 -0.4079  0.0884
 5529W        W23053   6.866   7.279  14.649  0.1545 -0.0700  0.1421
 5530W        W23054   4.828  14.055  12.736 -0.2448 -0.1009  0.1337
 5531W        W23055  11.505   7.956   2.126 -0.0760  0.3086  0.1052
 5532W        W23056   9.472   8.094   3.167  0.0735  0.0211 -0.2359
 5533W        W23057  10.144   0.431   1.168 -0.2030 -0.4275  0.0621
 5534W        W23058   6.175  16.121  14.451  0.0876  0.0062  0.0399
 5535W        W23059   7.352   8.799   1.952 -0.1942 -0.0564 -0.2423
 5536W        W23060  17.802  10.786   5.165  0.2423 -0.0811  0.3565
 5537W        W23061  15.677   0.798   0.612 -0.0879 -0.1996 -0.1572
 5538W        W23062   2.164  15.125  12.293 -0.1092 -0.0823  0.0324
 5539W        W23063   7.568  16.243  12.137 -0.0602 -0.0114 -0.0550
 5540W        W23064   1.668   0.213  15.083 -0.0718  0.0213  0.0804
 5541W        W23065   6.855   4.123  10.338  0.0725  0.0005 -0.1674
 5542W        W23066  11.777   0.693   4.534 -0.0085  0.0717 -0.2351
 5543W        W23067   5.103  16.462  14.594  0.0424  0.1551 -0.1347
 5544W        W23068  15.381  15.383   1.699 -0.0139  0.2721  0.1386
 5545W        W23069  13.358   9.827  11.123 -0.1596  0.1223  0.2350
 5546W        W23070   3.835  13.111  11.798 -0.0658 -0.2541  0.0271
 5547W        W23071   4.038  11.758   1.485  0.0077 -0.0584 -0.1386
 5548W        W23072  10.685  14.830   3.486 -0.2906 -0.0455 -0.1349
 5549W        W23073  16.170  15.999   2.474  0.0011 -0.0772  0.0118
 5550W        W23074   1.932   5.152  10.400 -0.1891  0.0843 -0.1724
 5551W        W23075  14.776   1.955  15.108 -0.0281 -0.0979  0.0600
 5552W        W23076   6.358   5.182   3.193 -0.2462 -0.1674 -0.0680
 5553W        W23077   5.670   4.199  15.185 -0.1520  0.3168  0.1062
 5554W        W23078  12.207  13.505  15.116  0.0260  0.0776 -0.1457
 5555W        W23079   0.107  13.590  12.109  0.1916 -0.2509 -0.0294
 5556W        W23080  14.422  13.899  14.858  0.0407  0.1078 -0.1503
 5557W        W23081   4.648  16.081   3.947  0.1069 -0.3248 -0.1895
 5558W        W23082  12.619  13.439   2.130  0.1921  0.1551  0.2198
 5559W        W23083  12.297   2.299   1.466 -0.4183  0.1006  0.0388
 5560W        W23084   5.547   4.860  11.917  0.2249 -0.1491 -0.1623
 5561W        W23085   3.389   1.298  13.220  0.0766 -0.1417 -0.2005
 5562W        W23086  12.547  15.049   0.436  0.1704 -0.1731  0.0481
 5563W        W23087   1.778  16.757  11.343 -0.0313  0.0589 -0.3010
 5564W        W23088   1.330  11.630   4.432 -0.4222  0.0841 -0.0100
 5565W        W23089  11.547  17.353   1.382  0.0294  0.0638 -0.0981
 5566W        W23090  16.634   5.715  15.591  0.0997  0.4125 -0.1372
 5567W        W23091  14.318  15.026   0.235 -0.0153  0.2236  0.1004
 5568W        W23092   7.673  10.808   2.240  0.0390  0.1403 -0.1404
 5569W        W23093  11.681   3.608   3.446 -0.0964  0.1433  0.1208
 5570W        W23094   7.908  14.567   2.020  0.1416 -0.5102  0.2277
 5571W        W23095  13.427  11.873   4.644 -0.3753  0.0776 -0.4528
 5572W        W23096  13.760  16.374  13.516  0.3716  0.0375  0.1888
 5573W        W23097  14.104   8.530   3.141  0.1563  0.2097 -0.1600
 5574W        W23098  13.443  15.799  15.339  0.3247  0.1586 -0.0952
 5575W        W23099   6.218   2.356   3.608 -0.3925  0.1968  0.1424
 5576W        W23100   3.142  11.734  16.110  0.1466  0.1610  0.1845
 5577W        W23101  15.214   9.366   0.498 -0.2711 -0.3148  0.2410
 5578W        W23102   3.330  12.905  15.578  0.2666 -0.1681 -0.3782
 5579W        W23103   8.089  10.867  15.322 -0.0761 -0.1653 -0.0626
 5580W        W23104   4.604  11.096   1.214  0.1827 -0.1487  0.1904
 5581W        W23105  11.086   6.825  15.843 -0.1756 -0.2168  0.0776
 5582W        W23106   8.184  12.375  13.883  0.2545 -0.1392  0.1411
 5583W        W23107  10.128  15.012  13.404  0.0593 -0.1699  0.1637
 5584W        W23108  15.969   8.019   1.458  0.2615 -0.1258  0.0913
 5585W        W23109  16.441  14.173   2.868 -0.4142 -0.0673 -0.2168
 5586W        W23110   0.502   8.581  15.314  0.2763  0.0896  0.0209
 5587W        W23111   6.059   4.653  11.220  0.0318 -0.0532  0.4790
 5588W        W23112   9.942   4.520  13.849  0.1218 -0.1209  0.1878
 5589W        W23113   6.367  13.436  12.651 -0.0840  0.0316  0.1391
 5590W        W23114   0.850   1.606   4.597 -0.0581  0.2148 -0.2823
 5591W        W23115  15.946   1.785   4.909  0.0187 -0.1030  0.1225
 5592W        W23116  15.466  14.520  11.272 -0.1334  0.2788  0.1647
 5593W        W23117   7.781  17.749  11.328  0.0953 -0.3846  0.1787
 5594W        W23118   6.391   6.318   0.131  0.0556 -0.0076 -0.0341
 5595W        W23119   4.388   2.583  13.257 -0.1506  0.0098  0.1175
 5596W        W23120  13.702  12.269  11.962 -0.0117 -0.0502  0.1547
 5597W        W23121  11.269   4.474   1.197  0.0045 -0.2970 -0.1403
 5598W        W23122   7.439  16.250  15.250  0.0417  0.1315 -0.3012
 5599W        W23123   6.285   4.748  13.363  0.2468 -0.1562 -0.1553
 5600W        W23124  17.628  15.401  14.214  0.3770 -0.1938 -0.0381
 5601W        W23125  14.143   0.922  11.878  0.3584 -0.1986 -0.0258
 5602W        W23126   2.623   2.474   0.769  0.1544 -0.1663  0.2548
 5603W        W23127   8.412   7.190  12.289  0.2480  0.2203 -0.2599
 5604W        W23128  15.479  13.410   2.431 -0.0323 -0.0657  0.0409
 5605W        W23129   0.455  13.563   0.035 -0.3561  0.1340 -0.1865
 5606W        W23130   8.950  14.775  12.223  0.2242  0.1240  0.0194
 5607W        W23131  13.832   4.237  16.190  0.1050 -0.2767 -0.1452
 5608W        W23132   6.885  10.946   4.987 -0.0119  0.0750 -0.0104
 5609W        W23133  13.679   1.256  10.329 -0.1320 -0.0844 -0.1121
 5610W        W23134   3.468  17.107  15.767  0.1459  0.2662 -0.2317
 5611W        W23135  11.252  11.727   4.270  0.0332 -0.0110  0.0701
 5612W        W23136   5.424  17.658  16.140  0.0708 -0.0453  0.0747
 5613W        W23137  13.175   3.746   0.100  0.0039 -0.1657 -0.2292
 5614W        W23138  12.920  13.502  15.792 -0.2347  0.1029  0.1691
 5615W        W23139   3.441   6.679  14.285  0.0728 -0.0018 -0.1861
 5616W        W23140   8.332   6.492   1.163 -0.0041  0.1468  0.3398
 5617W        W23141  15.271   1.817  14.244  0.0771  0.0205 -0.1602
 5618W        W23142   0.082   8.804  12.535 -0.0232 -0.2312 -0.0030
 5619W        W23143   8.363  13.224  14.357 -0.1130 -0.2083 -0.2242
 5620W        W23144   9.183  10.798   2.211  0.0405  0.3220 -0.2229
 5621W        W23145  13.041   3.790  12.958  0.1505 -0.1412  0.1042
 5622W        W23146   9.169   7.484  15.950 -0.0535  0.2901 -0.0212
 5623W        W23147  15.437   8.894   0.462 -0.0335  0.0006 -0.4156
 5624W        W23148  11.513  13.158   0.008 -0.3330 -0.0945  0.0753
 5625W        W23149  10.030  11.562  12.215  0.0853 -0.3483 -0.3699
 5626W        W23150  17.175   9.065   1.041 -0.1152 -0.0364  0.0848
 5627W        W23151   0.515  17.154   3.121 -0.2097 -0.1063  0.0750
 5628W        W23152  10.033   9.381   0.997 -0.0550 -0.1875  0.0996
 5629W        W23153   3.038  15.043  11.562  0.0787  0.6049  0.0876
 5630W        W23154  15.978  12.539   0.873  0.2881  0.1293  0.0038
 5631W        W23155  17.507  14.955  12.339 -0.1589 -0.0916  0.3587
 5632W        W23156  11.105  14.428   5.034 -0.0738 -0.0912 -0.1058
 5633W        W23157  14.129   5.587  15.141  0.1902 -0.2467 -0.0925
 5634W        W23158   9.890   2.055  13.173 -0.0072 -0.0291 -0.3869
 5635W        W23159  12.412   1.349  14.663 -0.2579  0.0329 -0.1286
 5636W        W23160   8.002   1.624  11.176  0.2862  0.0002  0.2246
 5637W        W23161   5.197   8.549   1.966 -0.0774  0.1638  0.0626
 5638W        W23162   6.918  10.207   4.196  0.2014  0.2326 -0.0269
 5639W        W23163  13.604   1.243  13.741 -0.0231  0.0798  0.0952
 5640W        W23164  15.037   1.424  14.028  0.1695 -0.0640  0.1443
 5641W        W23165  10.844   3.427  14.051  0.0330 -0.2855  0.1982
 5642W        W23166  16.615  10.941   5.432  0.1910 -0.0293 -0.1227
 5643W        W23167   9.554   4.027  12.305  0.0099 -0.1411 -0.0878
 5644W        W23168  17.017   4.695  12.692 -0.1360  0.1221 -0.0636
 5645W        W23169  16.486  13.672  13.263  0.3044  0.0881 -0.1232
 5646W        W23170   8.351   2.366  15.671 -0.2487 -0.1831  0.1471
 5647W        W23171   6.696   6.174   1.208  0.1848  0.0605  0.0919
 5648W        W23172   7.276   0.723  12.300  0.3217  0.1145 -0.0488
 5649W        W23173   3.182  17.793  15.035  0.1337 -0.1285 -0.0857
 5650W        W23174   7.169  13.791   6.501 -0.0192  0.1389  0.2277
 5651W        W23175   4.352  15.045   2.090 -0.1605  0.1182  0.1391
 5652W        W23176   8.814  10.379  12.495 -0.0617  0.3168  0.0457
 5653W        W23177   5.008  17.572   3.619 -0.0740 -0.1731  0.0961
 5654W        W23178   8.747   1.025   1.780 -0.2721  0.4311 -0.1754
 5655W        W23179  16.965  10.747   1.758  0.0385 -0.1699 -0.0329
 5656W        W23180  13.072   3.337   1.876  0.1437 -0.0260 -0.1395
 5657W        W23181   2.942   4.577  11.823 -0.1650  0.0081  0.2832
 5658W        W23182   3.338  10.172   0.521  0.2766  0.0354 -0.1188
 5659W        W23183   0.808   5.720  14.490 -0.0091  0.1205 -0.1137
 5660W        W23184   7.455   8.936   0.586 -0.2309  0.3069 -0.2455
 5661W        W23185  16.473   2.442   3.069 -0.2141 -0.0327  0.4237
 5662W        W23186  14.437   1.038  13.442  0.1264  0.0211  0.0622
 5663W        W23187   6.420   7.706  16.259  0.1599  0.1846  0.2234
 5664W        W23188  15.170   2.993   2.387 -0.0797  0.1069  0.0524
 5665W        W23189  13.436   6.694  11.484 -0.2190  0.2716 -0.0211
 5666W        W23190   3.809   2.464   3.624  0.1213  0.3938  0.0240
 5667W        W23191  14.026  13.073  10.977  0.0275 -0.0651  0.0984
 5668W        W23192   6.409   4.854  13.987  0.0367  0.2560 -0.2046
 5669W        W23193  10.636  13.518  12.639  0.0913 -0.0868 -0.1695
 5670W        W23194   5.765   0.442   4.845  0.0184  0.2444  0.0329
 5671W        W23195   4.550  17.181   3.122 -0.0512 -0.0276 -0.1437
 5672W        W23196  12.425   6.681   3.214  0.0407  0.2422 -0.0494
 5673W        W23197  10.985   7.587  11.307  0.0829  0.1214  0.0865
 5674W        W23198   4.796  15.784   3.605  0.0862  0.0337 -0.1478
 5675W        W23199   5.858   8.139   4.935 -0.1584 -0.2414  0.1648
 5676W        W23200   9.596   4.315   1.132  0.2409 -0.2733  0.0726
 5677W        W23201   6.134   8.400  13.910  0.1239 -0.0110 -0.2321
 5678W        W23202  13.622   5.455  10.790  0.1107  0.0348 -0.0860
 5679W        W23203   9.438  10.921   1.791 -0.0479  0.3067  0.0288
 5680W        W23204   3.688   4.285  14.701 -0.3908 -0.1057 -0.2737
 5681W        W23205  11.868  10.123   2.083  0.1009 -0.0563  0.1780
 5682W        W23206   1.380   7.310  15.962  0.3628  0.0202  0.3203
 5683W        W23207   8.103   2.767   0.318 -0.1870 -0.0245 -0.3298
 5684W        W23208  11.203   9.331   5.285  0.1223 -0.1100 -0.0742
 5685W        W23209   8.511   1.954  13.941 -0.2295 -0.0947 -0.1597
 5686W        W23210  17.396  10.084  12.388 -0.1246 -0.0047  0.2496
 5687W        W23211   6.648  11.512  13.770  0.0924 -0.1049  0.1080
 5688W        W23212   2.386  12.118   0.053 -0.3437  0.0850 -0.0607
 5689W        W23213   4.005  13.655   0.499  0.2762 -0.1012 -0.3086
 5690W        W23214   7.643  17.585   1.952  0.0175 -0.2463 -0.2432
 5691W        W23215   3.880  12.750  13.637 -0.0427 -0.0264 -0.1747
 5692W        W23216  13.707  14.508   1.303 -0.0256  0.0852 -0.1683
 5693W        W23217   5.886   1.376  13.168  0.1031 -0.1397 -0.3514
 5694W        W23218   6.622  17.807   1.691 -0.0331 -0.0000 -0.0181
 5695W        W23219   3.345  12.309  11.879  0.1106 -0.0144 -0.0044
 5696W        W23220  14.467   2.529  14.244 -0.2019 -0.1043  0.2314
 5697W        W23221  16.142  14.708  14.347  0.0909  0.0801 -0.2706
 5698W        W23222  14.100  11.987   4.362 -0.0292 -0.1189 -0.1556
 5699W        W23223   1.634  13.883   4.024  0.2932 -0.0717  0.1817
 5700W        W23224   7.245  16.767  15.110 -0.0859  0.0544 -0.4189
 5701W        W23225  15.839  17.912  12.682  0.1693  0.0129 -0.2378
 5702W        W23226  10.747  14.331  12.994 -0.2195 -0.0624  0.0856
 5703W        W23227  10.095  10.317  10.883  0.2350  0.1297 -0.2946
 5704W        W23228   2.603   5.160  13.753 -0.1600  0.0357 -0.0968
 5705W        W23229  14.307   4.130  15.868  0.2430 -0.1331 -0.1964
 5706W        W23230  13.767   0.470  15.164 -0.3074  0.2814 -0.1253
 5707W        W23231  10.505   1.344   2.726 -0.2286 -0.0502 -0.1026
 5708W        W23232  15.605   1.815  12.027  0.0476  0.1746 -0.0636
 5709W        W23233   6.772  11.851   3.940  0.2952  0.1686 -0.2286
 5710W        W23234  11.611  16.513   4.884  0.0563 -0.4549 -0.0441
 5711W        W23235  10.235  16.133  14.831 -0.0810 -0.0454  0.0818
 5712W        W23236   8.464   6.724  12.643 -0.0366  0.0975  0.1985
 5713W        W23237   9.036  17.377  12.564  0.2082 -0.1762  0.0486
 5714W        W23238   1.236  10.781   1.708  0.0916  0.0733 -0.3313
 5715W        W23239  16.327   9.104  13.272  0.2304 -0.0095  0.1479
 5716W        W23240  11.658   8.751  11.824 -0.3260 -0.0672 -0.0241
 5717W        W23241   2.683   8.484  14.995 -0.1303 -0.0542 -0.1684
 5718W        W23242   7.184  15.587  15.809 -0.2220  0.0562 -0.1387
 5719W        W23243   0.695   7.385   2.847 -0.3746  0.1385 -0.7044
 5720W        W23244   8.867   6.576   1.923 -0.4544 -0.0601  0.1494
 5721W        W23245   6.304   7.351   1.423 -0.0402  0.1971 -0.0542
 5722W        W23246  16.867   4.488  13.412 -0.0535 -0.1077  0.2104
 5723W        W23247  15.918   2.432   0.435 -0.1429 -0.2676  0.2404
 5724W        W23248   4.566   2.194  12.460 -0.0377 -0.2917 -0.0072
 5725W        W23249  13.011   7.839  14.234 -0.0557  0.1264  0.3143
 5726W        W23250  17.285  11.890   2.789  0.1098  0.2242 -0.1096
 5727W        W23251   7.107  16.782  11.267  0.0683  0.2210 -0.0483
 5728W        W23252   2.729   2.128   6.363 -0.0597 -0.0681  0.0180
 5729W        W23253   3.795   2.932   5.009 -0.1353 -0.1037  0.1422
 5730W        W23254   6.226   6.670   2.210  0.2547 -0.0935 -0.1946
 5731W        W23255   1.559  15.774  11.411 -0.3464 -0.0169  0.0867
 5732W        W23256  16.596   5.007  11.529  0.0646 -0.2678 -0.1389
 5733W        W23257  10.024   8.299   3.728  0.2822 -0.0880  0.1856
 5734W        W23258  17.450   9.809  15.564  0.3133 -0.0029 -0.2250
 5735W        W23259  17.008   8.312  14.929  0.2735  0.0058 -0.1199
 5736W        W23260  12.555   3.218   3.390 -0.1775 -0.2698 -0.1131
 5737W        W23261   4.671   2.282  14.039 -0.4416 -0.2646  0.1407
 5738W        W23262  17.554   5.899   3.920  0.1799 -0.0826 -0.2240
 5739W        W23263   3.004  15.101  13.229 -0.1868 -0.1215  0.1864
 5740W        W23264  17.475   7.527   1.721  0.0161  0.3204 -0.1941
 5741W        W23265   6.600   2.892  14.259  0.4334  0.0826 -0.0973
 5742W        W23266  16.117   6.247   4.230  0.0432 -0.2530  0.0229
 5743W        W23267  11.891  17.605  11.588 -0.2821  0.4190  0.2137
 5744W        W23268   0.279   2.236   0.902 -0.2068 -0.1725 -0.0453
 5745W        W23269  10.627   9.001   4.775 -0.1037 -0.1138 -0.0753
 5746W        W23270  11.924   9.891   1.147 -0.0265 -0.0713 -0.2193
 5747W        W23271  17.735  11.752   4.372  0.0844  0.0851 -0.0896
 5748W        W23272  17.439  11.859   0.078 -0.1254 -0.1954  0.0023
 5749W        W23273  11.038  10.568  11.207  0.0249 -0.2295  0.1011
 5750W        W23274   6.260   7.035   1.005 -0.0492  0.1100  0.0619
 5751W        W23275   4.475   9.872  15.796  0.0150 -0.0627  0.2563
 5752W        W23276   2.257  12.286   3.062 -0.2896 -0.2812 -0.4678
 5753W        W23277   7.132  12.465   1.287  0.0074  0.0916  0.0649
 5754W        W23278   3.656   8.676  12.933 -0.0150 -0.0169 -0.2529
 5755W        W23279  16.658   4.629   4.259  0.1309  0.1884  0.1241
 5756W        W23280  10.066  13.381   2.540 -0.1560  0.0682 -0.1514
 5757W        W23281  13.546   8.324   2.022  0.1675  0.1320  0.4937
 5758W        W23282  15.680   1.961   3.245 -0.0255 -0.1397  0.2602
 5759W        W23283   7.113  14.855   2.629  0.1564  0.0325  0.0156
 5760W        W23284   8.417  10.976  13.824  0.1135  0.1450 -0.1694
 5761W        W23285   4.806   0.379   1.555  0.1711  0.1370  0.1088
 5762W        W23286   5.885  16.949   0.581 -0.2273  0.1358  0.2019
 5763W        W23287   7.331  13.789   0.470  0.1230  0.1439 -0.1249
 5764W        W23288  10.281   6.957  12.505 -0.0345 -0.1524  0.3769
 5765W        W23289  10.818   0.972   1.338 -0.0631  0.1820 -0.4739
 5766W        W23290  11.585   5.707   1.015 -0.0419 -0.1980 -0.0674
 5767W        W23291   4.769   5.106  12.962  0.0768  0.1736  0.1491
 5768W        W23292  12.489  17.851  13.102 -0.2607  0.0305  0.2356
 5769W        W23293   3.057   0.635  15.834  0.1202  0.2170  0.2254
 5770W        W23294   3.582   0.827   3.312  0.1051 -0.2086 -0.2448
 5771W        W23295   1.899  17.109   1.476  0.0339  0.2375 -0.0641
 5772W        W23296  14.665   3.291   1.052 -0.0812 -0.0227  0.1108
 5773W        W23297   8.730  14.943  14.263  0.2216  0.1889  0.0126
 5774W        W23298  17.520  17.248   3.367 -0.1228 -0.0162  0.1568
 5775W        W23299   2.369  16.226   4.186 -0.0948 -0.0526 -0.0728
 5776W        W23300  13.307   0.814   4.155  0.1598 -0.1733  0.0688
 5777W        W23301   5.824   8.483  16.029 -0.1610  0.0473 -0.2621
 5778W        W23302  12.650  13.367  11.942  0.2957 -0.0876 -0.0300
 5779W        W23303   9.828  17.174  12.074  0.0043  0.1188 -0.3058
 5780W        W23304  15.299  10.260   3.124 -0.1620 -0.0735 -0.0355
 5781W        W23305   4.114   9.597   1.521 -0.0542 -0.2437 -0.2398
 5782W        W23306   2.987   6.859  14.647 -0.0520  0.1329  0.0277
 5783W        W23307  10.064  11.562  11.685 -0.0085  0.2254  0.1395
 5784W        W23308   4.566   0.513  11.593 -0.0499  0.3192  0.2817
 5785W        W23309   4.057  17.872  14.832  0.0158  0.0162 -0.1899
 5786W        W23310   5.882  16.265  14.957 -0.0104 -0.1838 -0.1633
 5787W        W23311   7.413   9.487   4.672 -0.2945  0.1478  0.1485
 5788W        W23312  16.637   5.213   0.291  0.0524 -0.1709 -0.2727
 5789W        W23313  15.445   7.306  11.144  0.0347 -0.1445 -0.1422
 5790W        W23314   4.226  17.113  14.260 -0.4088  0.0772 -0.1926
 5791W        W23315  10.462   0.625   0.177  0.0961 -0.0329  0.1259
 5792W        W23316   2.652   3.767   4.260  0.0394  0.0254  0.1327
 5793W        W23317   3.964  16.222   4.548 -0.2116 -0.0046  0.1598
 5794W        W23318  10.377   0.373   2.271  0.2293  0.0326 -0.0161
 5795W        W23319   1.983  13.206  15.332  0.0328 -0.0455  0.0576
 5796W        W23320   8.591   3.990  12.493 -0.1380  0.0806  0.0786
 5797W        W23321  14.850  17.613  14.904 -0.1884 -0.0659 -0.2560
 5798W        W23322   3.494  11.160  14.541 -0.1621 -0.3200 -0.2332
 5799W        W23323  10.097  14.158  15.471 -0.2522  0.2024  0.1597
 5800W        W23324   4.334   3.609  14.241  0.0358 -0.3875 -0.1596
 5801W        W23325   1.949   3.260  13.193 -0.1802 -0.0243 -0.1198
 5802W        W23326  10.315  14.438  10.995  0.2326 -0.2850  0.0899
 5803W        W23327  11.502   9.999   3.153 -0.2977 -0.1016  0.3873
 5804W        W23328  11.974  13.511  13.576  0.1778 -0.1127 -0.1564
 5805W        W23329   5.042   4.518  13.577 -0.2215 -0.0537 -0.3973
 5806W        W23330   7.465   3.222  12.231 -0.4384  0.2552 -0.0884
 5807W        W23331   5.780   6.980  16.011 -0.0177 -0.0580  0.1274
 5808W        W23332   7.331  15.756   1.146  0.0167 -0.2672  0.1316
 5809W        W23333  17.494   7.996   4.056 -0.0068  0.0207  0.1145
 5810W        W23334  15.714  11.663  12.669 -0.3277  0.0628  0.0578
 5811W        W23335   2.277   9.621  12.810 -0.1733 -0.0073 -0.0113
 5812W        W23336   3.586   7.014  15.722  0.1806  0.0422 -0.0481
 5813W        W23337  15.787  13.327  15.719  0.2597 -0.2127 -0.2372
 5814W        W23338   3.244  17.608  14.422  0.0987  0.0316 -0.1463
 5815W        W23339  17.917  16.849  11.308 -0.1716  0.1421  0.1700
 5816W        W23340   1.967   7.344   4.465  0.2036 -0.1482 -0.0767
 5817W        W23341  12.859   6.292   2.368  0.0845 -0.0431  0.1338
 5818W        W23342   1.116  10.482  15.480  0.3366  0.1213 -0.2129
 5819W        W23343   7.928  10.934  12.895  0.2081 -0.4398 -0.0496
 5820W        W23344   9.932  17.854  11.439 -0.0580  0.1783 -0.3634
 5821W        W23345   1.747  10.941   5.549  0.1468 -0.2674  0.3111
 5822W        W23346   0.929   5.141   1.249  0.3547 -0.1091  0.0275
 5823W        W23347  15.660  12.183   3.932 -0.3882  0.0848 -0.0374
 5824W        W23348   9.836  10.664  12.213  0.1159  0.1675 -0.0921
 5825W        W23349   3.833   6.216  11.601  0.0608  0.1674  0.1765
 5826W        W23350   4.907   1.361  14.065  0.0416 -0.1398  0.1060
 5827W        W23351  16.515   6.070  13.071  0.4152 -0.0624 -0.1172
 5828W        W23352  16.505   7.116   1.365 -0.1129  0.6043  0.0669
 5829W        W23353  13.888   7.590   3.029  0.0231 -0.1113 -0.0747
 5830W        W23354   1.560  13.927   1.584  0.1841 -0.0393  0.1370
 5831W        W23355   4.936   0.665   1.063 -0.1839 -0.0234  0.2365
 5832W        W23356   0.606  12.167  15.829 -0.0803  0.0445 -0.0162
 5833W        W23357   1.542  16.543   5.219  0.1125 -0.4598  0.1831
 5834W        W23358   1.835   5.431   1.614  0.2425  0.1310 -0.0248
 5835W        W23359   9.592  13.654   2.371 -0.1151  0.1224  0.4449
 5836W        W23360   0.612  11.395   1.014 -0.1978  0.2617  0.0798
 5837W        W23361   1.509  15.689  16.260  0.0497  0.0202 -0.0162
 5838W        W23362  10.639  11.473  13.454  0.1753 -0.1748 -0.2745
 5839W        W23363   0.954  15.515  16.138  0.0048  0.0313 -0.1468
 5840W        W23364  11.461  13.754  11.274 -0.2025  0.1204  0.2274
 5841W        W23365   7.622  11.397  12.997 -0.1723  0.2019 -0.0757
 5842W        W23366   1.300   0.907  14.704  0.1334  0.1337 -0.5186
 5843W        W23367  13.353  12.281  16.154 -0.1273  0.0353  0.0114
 5844W        W23368   8.236  17.435  10.752 -0.2475  0.0099  0.0910
 5845W        W23369   9.571  12.607   1.766 -0.0196 -0.3313 -0.3342
 5846W        W23370   4.247  13.350   1.479 -0.0403 -0.0784 -0.1977
 5847W        W23371   6.049   6.753  11.646 -0.1786 -0.1654  0.2868
 5848W        W23372   9.481  10.927   1.021  0.0067 -0.1623  0.0470
 5849W        W23373   2.258   8.392  14.801 -0.0084  0.0011 -0.1165
 5850W        W23374   8.248   8.999   0.127 -0.3513  0.0128  0.1830
 5851W        W23375  16.704  10.700  13.961 -0.0813  0.0472  0.2201
 5852W        W23376  16.063   2.824   2.966  0.1881 -0.0775  0.1169
 5853W        W23377  15.225  10.304   3.576 -0.1249  0.2593 -0.1091
 5854W        W23378  11.589   0.257  11.812 -0.0738  0.3045  0.0583
 5855W        W23379  10.487  14.443   1.499  0.0872  0.1211  0.1168
 5856W        W23380   1.730  10.857  15.973 -0.3523  0.0893 -0.0555
 5857W        W23381  14.916   7.450   2.271 -0.2061 -0.0307  0.0943
 5858W        W23382  10.327   2.643   1.513 -0.1067 -0.0447  0.2131
 5859W        W23383   5.604   1.512   5.080 -0.2372  0.0050 -0.2120
 5860W        W23384  17.778   7.569  15.277 -0.1147  0.2043 -0.1214
 5861W        W23385   1.659   7.059  13.441 -0.1364  0.0799  0.0528
 5862W        W23386  14.445  16.946  13.541  0.0706 -0.2878  0.0568
 5863W        W23387   8.458   8.930  12.828  0.2160  0.2900  0.1176
 5864W        W23388   6.177  14.938   0.040 -0.4451  0.0886  0.0020
 5865W        W23389   1.142   4.347  16.079  0.1777 -0.1878 -0.0169
 5866W        W23390  15.593  13.536  14.500  0.1810  0.6072  0.2576
 5867W        W23391  15.671  15.449  10.179  0.2038 -0.1684  0.0252
 5868W        W23392   8.572   0.970   3.491  0.2861  0.2616 -0.1983
 5869W        W23393   7.488   1.059  15.144  0.2722 -0.1894  0.1503
 5870W        W23394   8.154   8.876  11.188  0.2400 -0.3540  0.1509
 5871W        W23395  11.089  14.918   2.680  0.0316 -0.1544 -0.1244
 5872W        W23396   6.225  15.047   4.805  0.0475 -0.0823 -0.0055
 5873W        W23397   3.110  16.012  11.566 -0.2173  0.1456  0.1942
 5874W        W23398   3.666  10.802   4.819 -0.3195  0.0195  0.1121
 5875W        W23399  15.695   5.972   3.478 -0.1498 -0.1278 -0.1248
 5876W        W23400   7.034   4.647  13.984  0.0289 -0.0843 -0.1199
 5877W        W23401  17.223   9.294  10.445  0.4985 -0.1408  0.2107
 5878W        W23402   0.967   6.316  15.056 -0.2629 -0.1204  0.1310
 5879W        W23403   0.511  13.489   2.509  0.1003  0.2095  0.1245
 5880W        W23404   3.096   4.993  14.444 -0.1313  0.1604  0.1031
 5881W        W23405   3.313  10.096   3.795 -0.2367  0.1081  0.0290
 5882W        W23406   8.981  11.733   5.196 -0.1817 -0.0040 -0.1375
 5883W        W23407   5.120   4.013  12.993 -0.1777  0.0767 -0.0370
 5884W        W23408   9.160  13.176   2.953 -0.1315 -0.1574 -0.2188
 5885W        W23409  17.955   4.996   1.035  0.1833  0.1807  0.4231
 5886W        W23410  16.931   4.591  13.967  0.1171 -0.0632 -0.3769
 5887W        W23411   8.897   5.008   0.174 -0.1715 -0.0870  0.0241
 5888W        W23412   0.886  10.837   0.315  0.0764 -0.2003 -0.2409
 5889W        W23413  15.930   8.553  12.775 -0.1981 -0.0430 -0.0404
 5890W        W23414   0.572   8.207  11.363 -0.5909 -0.1103 -0.0694
 5891W        W23415  12.065   3.676   3.728  0.2516 -0.2137  0.0875
 5892W        W23416   1.767   3.624  14.072 -0.0502 -0.1367  0.0754
 5893W        W23417   9.769   9.769   3.582 -0.2880 -0.3008  0.1007
 5894W        W23418   7.463  16.476  15.957 -0.1896  0.0314 -0.0124
 5895W        W23419   6.670  12.756   4.270 -0.2148  0.1222 -0.0134
 5896W        W23420  14.497  14.359  11.371 -0.0475 -0.0195  0.1885
 5897W        W23421  16.470   4.929  14.086  0.0026  0.2455 -0.1151
 5898W        W23422  12.189  14.812   2.163 -0.2349 -0.1953  0.0181
 5899W        W23423  11.503   5.999  12.078  0.1164  0.0740  0.0643
 5900W        W23424  16.909   3.408  16.054 -0.2230  0.1359 -0.1806
 5901W        W23425  10.540   5.781   4.426  0.1120 -0.2103  0.1532
 5902W        W23426  10.546   8.283  12.750  0.1303  0.1499  0.2251
 5903W        W23427  15.182  13.880  11.419  0.2842  0.2341  0.1336
 5904W        W23428   3.886  14.805   4.918 -0.1750 -0.0224  0.2299
 5905W        W23429   3.805   9.905  13.981 -0.0979 -0.2163 -0.0804
 5906W        W23430   4.366  13.300  11.654 -0.1496 -0.0241 -0.0472
 5907W        W23431  11.443  16.855   2.089  0.2555  0.2972 -0.3288
 5908W        W23432  12.032   3.596  13.682 -0.0094 -0.2518  0.0030
 5909W        W23433   3.427   9.613   3.578 -0.2185 -0.0545 -0.0817
 5910W        W23434   1.171   2.040  11.231 -0.1822  0.2321 -0.0974
 5911W        W23435   5.457  10.798   1.107 -0.2039  0.1630 -0.0152
 5912W        W23436   0.093  15.282  14.932 -0.3110  0.1060  0.0132
 5913W        W23437   3.335   0.766  15.379  0.1791  0.0647 -0.1324
 5914W        W23438  10.230   3.505   3.551  0.1189  0.0478 -0.0158
 5915W        W23439  12.355  14.132  11.518  0.0251  0.3112 -0.0954
 5916W        W23440   4.839  14.517  12.904  0.0298  0.0358  0.0745
 5917W        W23441   8.449   5.281   1.722  0.1456  0.0071 -0.0237
 5918W        W23442   6.825  12.456  14.165 -0.0966  0.1201  0.3820
 5919W        W23443  14.514   3.452   0.094  0.3413  0.0662 -0.0524
 5920W        W23444  14.839   3.793   1.344  0.0292  0.0331 -0.0033
 5921W        W23445   4.686  15.568  13.638  0.2510 -0.0144 -0.2255
 5922W        W23446  17.690   5.351  15.666 -0.1092 -0.0813  0.3614
 5923W        W23447  10.478   2.628   1.992  0.2274 -0.1666  0.0596
 5924W        W23448   8.620   1.397  15.781  0.1278 -0.1922  0.1777
 5925W        W23449   7.928   5.754   2.480  0.0476  0.0521 -0.5732
 5926W        W23450   2.448  11.561  13.474  0.1312 -0.1962  0.0423
 5927W        W23451  14.422   1.734  15.604 -0.0643 -0.0799 -0.1450
 5928W        W23452   4.469   5.363   0.169  0.0891  0.0330  0.0582
 5929W        W23453   9.904   0.897   4.340 -0.0145  0.3728  0.2209
 5930W        W23454  14.694   5.154  11.839  0.3869 -0.2212  0.2134
 5931W        W23455  11.589  16.876   0.051  0.0362 -0.2724 -0.0175
 5932W        W23456   2.775   4.502  10.851 -0.0214  0.2483 -0.0478
 5933W        W23457  13.646  13.852  15.249 -0.0901 -0.0995  0.0661
 5934W        W23458  14.271  14.380  15.022 -0.1727  0.1306 -0.0628
 5935W        W23459  16.516   5.967   1.552 -0.2075  0.0394 -0.2598
 5936W        W23460  12.995   3.792   3.345 -0.1027 -0.2465  0.0117
 5937W        W23461   4.954   7.377   1.079 -0.1361  0.2024 -0.2761
 5938W        W23462   0.646  17.043  12.719 -0.1629 -0.0765 -0.3076
 5939W        W23463   2.159  14.231   0.012  0.0518 -0.4331 -0.0942
 5940W        W23464   0.945  14.642   2.330  0.2286 -0.0023 -0.0754
 5941W        W23465  14.126   5.599   5.662 -0.0771 -0.1532 -0.0167
 5942W        W23466   8.484   5.444   3.604 -0.0789 -0.0609 -0.1616
 5943W        W23467   6.053   7.617   1.708  0.0648  0.0364  0.0628
 5944W        W23468   5.797   8.099   1.635 -0.0750 -0.2859  0.0401
 5945W        W23469   3.981   4.786   2.338 -0.1377 -0.0728  0.0973
 5946W        W23470  16.023  12.105  11.852 -0.1184 -0.0786  0.0529
 5947W        W23471   1.755   9.267   2.403  0.0872  0.1541  0.0462
 5948W        W23472   4.687   9.630  15.436 -0.2085 -0.2362  0.2206
 5949W        W23473   7.527   3.501   1.452  0.3598  0.1678  0.0840
 5950W        W23474   4.408   5.225   1.196 -0.3023  0.2345 -0.0751
 5951W        W23475  11.495   5.608  13.798 -0.1635  0.0469 -0.4285
 5952W        W23476  15.214   0.106  12.359  0.1922 -0.2357 -0.1854
 5953W        W23477   3.979   5.322   4.928 -0.0143 -0.1598 -0.0181
 5954W        W23478   0.648  14.291  11.093 -0.0395 -0.0787 -0.1517
 5955W        W23479  16.138   3.821  12.051  0.2094 -0.0205  0.0107
 5956W        W23480  10.497   9.963  11.718  0.1441  0.0784  0.0190
 5957W        W23481   9.564   6.953  11.916 -0.2795 -0.0016  0.0319
 5958W        W23482  11.329  12.545   3.629 -0.0400  0.2811  0.1379
 5959W        W23483  17.531   2.730   1.296  0.2010  0.2669 -0.0492
 5960W        W23484  15.994   1.443  13.780 -0.1415 -0.1470 -0.0772
 5961W        W23485  11.833  17.943   3.719 -0.1070  0.1570  0.0844
 5962W        W23486  17.695  15.447  13.570 -0.0994 -0.4324 -0.1618
 5963W        W23487  17.829  17.411  12.796  0.3508  0.1311 -0.0438
 5964W        W23488   2.324   5.674   5.320 -0.0766  0.0559  0.0471
 5965W        W23489   4.327   0.866   4.893  0.1093  0.1505 -0.2585
 5966W        W23490  11.013   8.272  13.314  0.0854  0.2192  0.0914
 5967W        W23491   3.174   8.724  14.066 -0.1815  0.0884  0.0978
 5968W        W23492  17.303   4.567   1.273 -0.3600  0.0284  0.0356
 5969W        W23493   9.553  11.557  14.946 -0.1695 -0.0667  0.0380
 5970W        W23494  16.335  13.034   2.193  0.0127  0.0721  0.0227
 5971W        W23495   2.681   5.065  10.995  0.3483 -0.0783  0.1110
 5972W        W23496   9.074  11.406   3.825 -0.1302 -0.1171 -0.0698
 5973W        W23497  11.836   4.207   1.745  0.0601  0.1108 -0.1788
 5974W        W23498  10.469   8.936  14.201  0.0856  0.2089 -0.1040
 5975W        W23499  16.748   3.534  13.012 -0.0134  0.0246 -0.2901
 5976W        W23500  12.828   6.809  13.393 -0.2357  0.1749  0.0535
 5977W        W23501  14.731   7.082  12.080 -0.2019 -0.0092  0.3923
 5978W        W23502  16.824  17.829  15.350 -0.0420  0.0548  0.0665
 5979W        W23503   1.772   6.598   1.465  0.2247 -0.0844 -0.2679
 5980W        W23504   1.609   5.542   6.042  0.0943  0.2020 -0.4174
 5981W        W23505   0.187   4.976   0.145  0.1356 -0.1776 -0.1252
 5982W        W23506   3.903  11.634   4.763  0.0833  0.1962  0.0267
 5983W        W23507  10.169  12.827  12.888  0.2482 -0.0654  0.0321
 5984W        W23508   0.439  14.744  12.484  0.0294  0.0608 -0.2171
 5985W        W23509  14.066   4.855  14.055  0.0321 -0.2342 -0.0022
 5986W        W23510   0.830   0.191   1.699  0.3324 -0.1712  0.0186
 5987W        W23511  12.618  12.693  15.028 -0.0978  0.1242  0.1169
 5988W        W23512   2.655   5.041   1.243 -0.2180  0.1148  0.3093
 5989W        W23513  15.803  13.324   1.878  0.1128  0.2487 -0.1294
 5990W        W23514  12.545  12.131  13.807 -0.1887 -0.0522 -0.1977
 5991W        W23515  17.023   9.651   3.634 -0.3584 -0.0377 -0.1353
 5992W        W23516   7.504   4.458   2.015  0.2032 -0.0981 -0.0559
 5993W        W23517  16.636   9.090  15.814 -0.3120  0.0248  0.1110
 5994W        W23518  16.487   9.197  13.750 -0.1079 -0.1486 -0.0731
 5995W        W23519  14.108   1.119   2.289 -0.0664  0.1930  0.0383
 5996W        W23520   3.627   3.850  11.629  0.0291 -0.2455 -0.2283
 5997W        W23521  13.816   5.506   2.908  0.0966  0.1254 -0.0964
 5998W        W23522   6.775   2.414  13.243  0.2545  0.0664  0.3132
 5999W        W23523  14.989   6.630  12.136 -0.2115  0.1156  0.0126
 6000W        W23524  17.784  15.311   3.871 -0.0494 -0.0114 -0.1523
 6001W        W23525  17.887   1.173  12.026  0.2625 -0.4294  0.2486
 6002W        W23526   4.889  17.193   0.894 -0.0519 -0.0179  0.1213
 6003W        W23527  16.152   5.159  11.380 -0.2582 -0.1001  0.1240
 6004W        W23528   5.353   2.752  13.641  0.2473 -0.1061  0.0266
 6005W        W23529   8.885   3.360  14.015 -0.0099  0.0982  0.4847
 6006W        W23530  16.822   6.989   3.388  0.3411  0.2756 -0.0046
 6007W        W23531  12.425  16.502  14.826 -0.0078 -0.0479  0.0917
 6008W        W23532  17.336  13.340  14.278 -0.0724 -0.1369 -0.0727
 6009W        W23533   5.205   9.953  16.243 -0.1438  0.1045  0.2591
 6010W        W23534   7.055  11.678   4.341 -0.3768  0.0699 -0.0207
 6011W        W23535   2.920  12.899   5.032  0.0915 -0.0944 -0.1143
 6012W        W23536  17.526   2.310  12.647 -0.0055  0.1650  0.0772
 6013W        W23537  15.933  10.244  15.351  0.1647  0.1737  0.0176
 6014W        W23538  13.431  16.869  15.421  0.1474 -0.1078  0.0489
 6015W        W23539   1.044   8.353  13.402 -0.1374 -0.0176  0.1213
 6016W        W23540   0.634  10.593  11.989  0.1497  0.0146 -0.2824
 6017W        W23541  13.574   4.536  10.381  0.1760  0.1199  0.0226
 6018W        W23542  14.059   5.043   4.372  0.2486  0.0843 -0.0990
 6019W        W23543   6.782   8.824  14.274  0.1531 -0.3299  0.0632
 6020W        W23544  12.080  13.971   3.275 -0.0009  0.1346  0.2944
 6021W        W23545   0.727  12.234   1.496 -0.1992  0.1514  0.0955
 6022W        W23546   1.958   7.986   4.986 -0.1037  0.1698 -0.0268
 6023W        W23547   3.577  14.291  11.477  0.0999  0.1368  0.2278
 6024W        W23548  11.758   1.392  13.358 -0.1346 -0.0258  0.1092
 6025W        W23549  13.568  16.220   1.212 -0.0106 -0.0496  0.1540
 6026W        W23550  11.458   7.413  11.024  0.0068  0.0075 -0.0942
 6027W        W23551   2.963   5.639   1.415 -0.4588 -0.0138 -0.2547
 6028W        W23552   5.191  10.035   5.847 -0.0094 -0.1191  0.0558
 6029W        W23553  11.934   5.139  12.308 -0.0803 -0.0854 -0.3316
 6030W        W23554   8.002  10.506  14.546 -0.2565 -0.0099  0.1540
 6031W        W23555  11.183   2.154  10.539 -0.0457 -0.4732  0.1274
 6032W        W23556  17.854  13.950  12.514  0.0006 -0.1425 -0.0167
 6033W        W23557   4.503  13.393   4.533 -0.1313 -0.1629 -0.0035
 6034W        W23558   1.255   6.044  14.663  0.3100  0.3138 -0.1026
 6035W        W23559  15.940  15.090  11.759  0.1916 -0.3719 -0.0489
 6036W        W23560  11.209  16.921  12.133 -0.1913  0.3952 -0.1329
 6037W        W23561  10.949   3.524   2.096 -0.0894 -0.0352 -0.2123
 6038W        W23562   9.284  11.369   2.127  0.1142 -0.0711  0.3392
 6039W        W23563  12.137   6.362   0.916 -0.1116  0.0523 -0.1577
 6040W        W23564   3.048   8.749   2.374  0.0829 -0.0217  0.4565
 6041W        W23565  12.969  15.755   2.569 -0.0076 -0.0293  0.2550
 6042W        W23566  14.218  16.385   3.805  0.0864  0.0539 -0.0801
 6043W        W23567  10.759   7.336   2.667  0.0856  0.0236  0.1841
 6044W        W23568  13.583   4.742  11.973 -0.1295 -0.1979  0.2231
 6045W        W23569   8.228  13.565  11.834 -0.1190  0.1415 -0.0216
 6046W        W23570   6.484   9.978  16.198 -0.1475 -0.0156 -0.0849
 6047W        W23571  14.130  13.266   4.085  0.2766 -0.0785  0.1263
 6048W        W23572   1.581   0.110  13.060 -0.1157  0.2463 -0.2198
 6049W        W23573   3.855  12.200  15.324  0.0119 -0.0094 -0.1480
 6050W        W23574  17.585  15.134  12.884 -0.0893  0.0613  0.1525
 6051W        W23575   6.786   8.269   0.665  0.0956 -0.3753 -0.1197
 6052W        W23576   5.978   5.785  15.009  0.0614 -0.0547  0.1499
 6053W        W23577  16.018   0.656  15.208 -0.1234 -0.0465 -0.1652
 6054W        W23578   5.601   1.202   2.816 -0.0047  0.0358 -0.1073
 6055W        W23579   4.464  14.355   0.805 -0.0188  0.0009  0.1849
 6056W        W23580  10.396  17.191   2.881 -0.2799 -0.0650 -0.4221
 6057W        W23581  11.363   8.245   3.490 -0.1037 -0.1058  0.2070
 6058W        W23582   1.779   0.967  12.920  0.1497  0.0562 -0.3530
 6059W        W23583   7.906   1.990  15.696  0.0892  0.2374  0.2864
 6060W        W23584   2.802  13.958  10.768  0.3945 -0.3422 -0.1621
 6061W        W23585  17.842   4.293   0.598  0.5377 -0.0399  0.0348
 6062W        W23586   8.913   8.551  13.621 -0.1230 -0.0936 -0.0382
 6063W        W23587   5.999  12.112   1.379  0.2366 -0.0344  0.1401
 6064W        W23588  10.484   2.150   3.222 -0.1182  0.1505  0.1167
 6065W        W23589   8.490  11.026  16.106 -0.2152 -0.0383 -0.2587
 6066W        W23590  13.762   8.751  14.328  0.0092 -0.3554 -0.2571
 6067W        W23591   7.569   3.787   3.241 -0.1818  0.3230 -0.1209
 6068W        W23592  13.679  14.078   0.939 -0.0155 -0.2932 -0.1333
 6069W        W23593  10.381   1.281  14.054 -0.2502  0.1812 -0.2534
 6070W        W23594   6.779  16.045   3.670 -0.1683 -0.0276 -0.1886
 6071W        W23595   5.211  12.718  12.532 -0.5698 -0.0337 -0.1814
 6072W        W23596   1.883   0.814   5.142 -0.0740  0.2593  0.0024
 6073W        W23597  17.140  13.827   2.505 -0.1154  0.0783 -0.2129
 6074W        W23598  16.977  13.746  13.812 -0.1007 -0.1497  0.1067
 6075W        W23599  14.638   0.808   3.351 -0.1513 -0.0029 -0.0030
 6076W        W23600   7.290   1.355   4.603  0.0297 -0.0379  0.1100
 6077W        W23601  14.808  13.207   3.817 -0.1172  0.1638  0.1027
 6078W        W23602   5.070   9.906  14.098 -0.1154  0.2149  0.1216
 6079W        W23603  11.962   4.537   5.522  0.1045 -0.0965 -0.1406
 6080W        W23604   2.331  16.154   4.698 -0.1422  0.0860  0.2257
 6081W        W23605  13.152  15.288  12.818 -0.2348  0.3991 -0.0545
 6082W        W23606  16.102   5.879   2.355 -0.0597  0.2616  0.0901
 6083W        W23607  16.193   4.217   0.851  0.0629  0.1299  0.1808
 6084W        W23608  14.667   8.805  14.326  0.1797  0.0631  0.1478
 6085W        W23609   0.705  13.627  13.071  0.1175 -0.0149  0.2194
 6086W        W23610   2.135  15.265   4.739  0.2604 -0.1028 -0.1926
 6087W        W23611   0.832   4.850  16.170  0.0432  0.0463  0.2308
 6088W        W23612   3.372   5.396   4.499  0.1520 -0.1599 -0.1698
 6089W        W23613  12.733   4.231   0.860 -0.2790 -0.1572  0.1652
 6090W        W23614   2.361   4.039   2.030 -0.1321  0.0057 -0.0564
 6091W        W23615  12.289  11.493  13.422  0.0262 -0.1563 -0.3045
 6092W        W23616   5.438   5.162   4.590 -0.1883 -0.0332  0.0807
 6093W        W23617   5.486   5.209  16.236  0.2591  0.1360 -0.0044
 6094W        W23618   2.557   2.877  11.481  0.1136 -0.1743 -0.1820
 6095W        W23619   3.357  13.319  13.352 -0.2786  0.5110 -0.1830
 6096W        W23620   7.740  14.472  12.290 -0.1597  0.4178  0.1720
 6097W        W23621  13.036   0.892   2.876 -0.1063  0.2414  0.0847
 6098W        W23622   9.889   0.789   0.026 -0.0903  0.0412  0.2395
 6099W        W23623   8.893   0.657   3.644  0.1710 -0.0266  0.3627
 6100W        W23624   9.388   3.269   5.795  0.0653  0.0604  0.2838
 6101W        W23625  11.696   7.447  15.336  0.2623  0.1414 -0.1349
 6102W        W23626   7.681   3.302  13.381 -0.2660 -0.2061 -0.0032
 6103W        W23627   7.765   8.915  14.440  0.2430  0.0011  0.2587
 6104W        W23628   6.551   0.290  13.384  0.0611  0.1418  0.0048
 6105W        W23629   2.575   7.206  15.264 -0.0834  0.1863 -0.0027
 6106W        W23630  12.673   8.565  13.690  0.2106 -0.0537 -0.1249
 6107W        W23631  13.715   3.589   2.972 -0.2753  0.1507 -0.0024
 6108W        W23632   0.164   8.966   0.794  0.2854  0.0090 -0.1381
 6109W        W23633   1.988   4.891  15.135 -0.0238 -0.0363 -0.0049
 6110W        W23634   9.093   0.814   1.546  0.1579 -0.0120 -0.0313
 6111W        W23635   4.200  17.372   0.592 -0.0558 -0.2758 -0.3629
 6112W        W23636   3.722   9.136  12.891  0.0667  0.1212 -0.0414
 6113W        W23637   0.931   9.453   1.922  0.0983 -0.1325  0.0736
 6114W        W23638  12.880  17.817   2.393  0.1544 -0.0938  0.0498
 6115W        W23639  10.299   1.591  15.439 -0.1597 -0.1562  0.0092
 6116W        W23640  15.506   2.431   3.120 -0.0855  0.0968  0.0456
 6117W        W23641  13.381  17.372  15.403 -0.2136 -0.0622  0.1389
 6118W        W23642   3.710   2.626   1.534  0.0215  0.1646  0.0583
 6119W        W23643   2.156  15.734   4.445  0.1656  0.1374 -0.3290
 6120W        W23644   2.840  12.377   5.097  0.1209 -0.0741 -0.1469
 6121W        W23645  16.932   6.453  15.371 -0.4555 -0.3450 -0.3071
 6122W        W23646  12.541  15.333   2.984  0.0903  0.0455  0.3800
 6123W        W23647  17.771  12.309   2.932  0.1024  0.1962 -0.2284
 6124W        W23648   0.320  11.664   2.729 -0.2222 -0.3448  0.0982
 6125W        W23649   3.572  15.472  12.298 -0.2237 -0.1898  0.0924
 6126W        W23650   9.128  15.935   4.931 -0.1708 -0.0333 -0.0325
 6127W        W23651   7.234  15.287   5.627 -0.0136 -0.0258  0.0908
 6128W        W23652   8.182   4.095  13.571 -0.3426  0.1196 -0.0845
 6129W        W23653   4.657  11.264   3.236 -0.0237 -0.2359 -0.0441
 6130W        W23654   7.580  14.048   0.847  0.1755 -0.2015  0.3389
 6131W        W23655   3.950   6.389   2.311  0.0685  0.0568 -0.0655
 6132W        W23656   5.186   5.174  11.659 -0.1800 -0.1075 -0.0131
 6133W        W23657   6.327   7.266   2.014  0.3451  0.1735  0.0570
 6134W        W23658   1.889   6.466   0.693  0.0573 -0.0057  0.3084
 6135W        W23659  12.139   6.180  10.315  0.2041  0.0463 -0.1671
 6136W        W23660  11.436  12.924   0.935 -0.1563  0.0583 -0.0308
 6137W        W23661   6.500   5.114   1.470 -0.0618  0.0954 -0.0358
 6138W        W23662  13.909  11.159   3.849  0.0933  0.1336 -0.2952
 6139W        W23663   0.866  14.938  12.750  0.0880  0.1318  0.2485
 6140W        W23664   9.124  12.607  11.505 -0.0610 -0.1593 -0.0478
 6141W        W23665  17.550  13.958   4.780  0.0035  0.0980  0.1235
 6142W        W23666  12.512   5.382  10.819  0.0874 -0.0266  0.1476
 6143W        W23667  16.728  14.014  11.601  0.1171 -0.1501  0.2379
 6144W        W23668  11.032  17.875  13.594  0.1570  0.0859  0.0688
 6145W        W23669  11.763  12.524  15.761  0.1319 -0.0911  0.0135
 6146W        W23670  10.170   3.529  14.674  0.0141 -0.1895 -0.0861
 6147W        W23671  10.049  10.449   4.853  0.2832  0.4968  0.3348
 6148W        W23672   8.624   4.025   1.272 -0.1866  0.1816 -0.0628
 6149W        W23673  15.389   5.590  13.625  0.0358  0.2459 -0.3141
 6150W        W23674  15.678   9.941   6.105 -0.0622 -0.0401  0.1490
 6151W        W23675  17.123   9.181   1.695  0.1557  0.3915  0.2320
 6152W        W23676   7.142  17.750  15.189  0.0712  0.1921  0.0050
 6153W        W23677  13.160  10.136   0.190 -0.2447  0.2227  0.1912
 6154W        W23678  12.146  13.091  13.315  0.0932 -0.2049 -0.0263
 6155W        W23679   3.439   0.249  14.215  0.1629  0.1005 -0.0378
 6156W        W23680  13.688   4.389   3.314  0.0630  0.1982  0.2775
 6157W        W23681   5.024  13.872   2.318  0.1764  0.0766  0.1471
 6158W        W23682  15.865   8.692  15.645 -0.3399  0.0893  0.0992
 6159W        W23683  10.136  11.008  11.946 -0.1439 -0.3842  0.0800
 6160W        W23684   0.843   1.794  11.699 -0.0673  0.1525  0.4992
 6161W        W23685  11.830   3.841   0.875  0.0392  0.2425  0.1421
 6162W        W23686   9.092  17.961   0.012 -0.0126  0.1731 -0.1079
 6163W        W23687  15.865  12.969  14.376 -0.0781  0.0068  0.3131
 6164W        W23688   6.474  14.541   4.601 -0.1504  0.0407 -0.0703
 6165W        W23689  10.516   9.284   3.346  0.1747 -0.2138 -0.2790
 6166W        W23690   1.590   5.623  15.418  0.1858  0.0878 -0.0053
 6167W        W23691   5.238   4.868   5.653  0.3679  0.0705  0.1337
 6168W        W23692   3.550  17.268  11.788  0.1917  0.4468  0.0026
 6169W        W23693   9.970  10.454   2.586  0.1828  0.0020  0.0494
 6170W        W23694   4.659   4.105   2.125  0.0853  0.0850  0.1319
 6171W        W23695   1.870   6.046  12.864 -0.2945 -0.1203  0.0140
 6172W        W23696   6.534   9.666  15.706  0.0284  0.1187  0.0026
 6173W        W23697   0.411   4.520   1.589  0.1416 -0.1949  0.1143
 6174W        W23698  10.813  14.333   4.612  0.0403 -0.2663  0.1901
 6175W        W23699   3.658  15.756  15.355  0.0569  0.2440 -0.0364
 6176W        W23700   5.754   0.649   5.650 -0.0494 -0.1488 -0.0316
 6177W        W23701  10.897   6.935   4.310 -0.2047  0.2809 -0.0520
 6178W        W23702  16.662   7.594   4.312  0.0651 -0.0335 -0.3538
 6179W        W23703   9.433  12.856  14.321 -0.0483  0.1911 -0.1808
 6180W        W23704   4.180   2.751   2.621  0.1308 -0.1014 -0.1937
 6181W        W23705  16.876   0.168  12.052  0.4420  0.1201 -0.3966
 6182W        W23706  17.179  15.436  13.011 -0.0109 -0.0519  0.2533
 6183W        W23707   8.149  10.383  12.045 -0.2216  0.0383  0.0359
 6184W        W23708   8.456  14.830  15.030  0.2825  0.1692 -0.2231
 6185W        W23709   8.718  13.894   3.688 -0.0352  0.0633  0.1263
 6186W        W23710   8.754  14.235  12.261  0.1573 -0.5777  0.2406
 6187W        W23711   7.921  13.874   5.371  0.3262 -0.0561  0.1113
 6188W        W23712   1.561  10.672   4.193  0.0303  0.0492  0.2541
 6189W        W23713  15.243  11.926   4.126  0.0132  0.0964 -0.4444
 6190W        W23714  11.829  11.795   0.183 -0.4178 -0.2771  0.1451
 6191W        W23715   8.259   6.284  12.854 -0.0638 -0.1275 -0.5659
 6192W        W23716  11.669   5.774   3.144 -0.1055  0.3456 -0.0188
 6193W        W23717  12.082   4.405  15.843  0.0559  0.2586  0.0265
 6194W        W23718  10.245  12.261  14.473 -0.0848 -0.1500 -0.2765
 6195W        W23719   5.913   4.813   3.332 -0.1437  0.0392  0.1974
 6196W        W23720  17.915  10.265   3.027 -0.0941  0.0783 -0.1963
 6197W        W23721  10.585   3.126   4.743  0.0157 -0.1719  0.2847
 6198W        W23722   2.153   3.433   5.249  0.0304 -0.0648  0.1711
 6199W        W23723   2.935   2.557   6.163 -0.0592  0.1443 -0.0950
 6200W        W23724  15.712  16.994  11.477  0.0807  0.2785 -0.1973
 6201W        W23725  17.523  10.984   2.383  0.2686 -0.0857  0.0344
 6202W        W23726   4.603  15.490  15.358  0.0437  0.0234  0.0488
 6203W        W23727  15.157  14.447  14.815 -0.0180  0.4187 -0.0967
 6204W        W23728  17.434  15.822  15.323 -0.0751 -0.0314 -0.0619
 6205W        W23729   7.167   6.392  14.673  0.1267  0.0432  0.2435
 6206W        W23730   5.583   3.125  13.813 -0.1572  0.0175 -0.1228
 6207W        W23731  11.234  14.700   4.114 -0.5282  0.3781 -0.0785
 6208W        W23732  11.598  17.493   0.931  0.1156  0.0130  0.0988
 6209W        W23733  10.476  15.394  14.093  0.1815 -0.0138  0.0818
 6210W        W23734   0.075  14.917   3.726 -0.0824 -0.2121 -0.3485
 6211W        W23735   2.559   0.420  11.968 -0.0707  0.1476  0.2539
 6212W        W23736   4.465   5.594   3.568  0.1008 -0.0639 -0.1013
 6213W        W23737  15.419   3.435  14.647  0.2080 -0.1669  0.1573
 6214W        W23738  13.196   2.314  12.440  0.2424  0.1007  0.1811
 6215W        W23739   1.448   1.682   6.142 -0.0530 -0.0380 -0.0794
 6216W        W23740   6.080  14.192   4.257 -0.2762 -0.0555 -0.1285
 6217W        W23741  16.711   8.343  10.337  0.2130  0.2894 -0.3767
 6218W        W23742  14.297   0.944   1.106 -0.0025  0.2289  0.0305
 6219W        W23743  15.979   8.689   3.504  0.0636  0.0010  0.0946
 6220W        W23744  14.958   8.186  15.022 -0.1282 -0.1745  0.3089
 6221W        W23745   4.037  10.564   1.094  0.0245  0.0604 -0.1310
 6222W        W23746   9.688  17.863   0.085  0.0334  0.0232  0.0528
 6223W        W23747  12.512   9.272   0.882 -0.2059  0.1551 -0.2398
 6224W        W23748  13.901  11.343   3.356 -0.0531  0.1645 -0.1480
 6225W        W23749  17.085  16.121   2.503  0.0234 -0.4663  0.0639
 6226W        W23750  14.062  10.517  13.504  0.1255 -0.2714  0.0444
 6227W        W23751   3.200  17.649  11.140 -0.0120 -0.0585 -0.1872
 6228W        W23752  10.514  12.212   4.044  0.0918 -0.0983 -0.1798
 6229W        W23753   9.810  14.699  11.728 -0.1433  0.1117  0.3341
 6230W        W23754  17.019  15.945   1.937 -0.2384  0.1635 -0.2455
 6231W        W23755  16.700   3.491   0.633  0.3357  0.1300  0.1303
 6232W        W23756   4.519   1.926   2.758 -0.2485 -0.4758  0.0756
 6233W        W23757   6.656   6.869   1.331  0.2100 -0.0126 -0.0781
 6234W        W23758  11.598  15.131   3.947 -0.0082  0.0520  0.0427
 6235W        W23759  15.745   6.122  12.816 -0.2293 -0.0629  0.0517
 6236W        W23760  11.713  11.859  12.095 -0.1056  0.0279  0.1564
 6237W        W23761  10.381   4.903   0.280 -0.3386 -0.3242  0.0843
 6238W        W23762   1.686   3.227  13.835 -0.0404  0.2742 -0.0960
 6239W        W23763  16.791   8.882  14.823 -0.2847 -0.0196  0.3470
 6240W        W23764  15.170  10.732   3.360 -0.2715  0.0066 -0.1204
 6241W        W23765  13.491   6.469   3.216 -0.0828  0.0165  0.1668
 6242W        W23766   4.071   4.469   4.729 -0.0571 -0.2534  0.2823
 6243W        W23767   7.024   9.673  15.511 -0.2027 -0.2114 -0.0425
 6244W        W23768  11.474  12.989  12.768 -0.0903 -0.1342  0.0898
 6245W        W23769   4.806   0.459  12.912 -0.0073  0.0945  0.0741
 6246W        W23770  14.458   6.091  12.348  0.2795 -0.0341 -0.1816
 6247W        W23771   1.159   5.208  13.684  0.1690  0.0530 -0.2521
 6248W        W23772   4.385  11.159  15.396  0.0633  0.0775 -0.0009
 6249W        W23773  15.326   3.828   1.482  0.1663  0.2111  0.1541
 6250W        W23774  17.870   6.227  13.874 -0.1929 -0.0652 -0.0118
 6251W        W23775  13.411   9.766   0.517  0.0280 -0.1640  0.4881
 6252W        W23776   0.860   9.403  13.442 -0.1722 -0.0964  0.0111
 6253W        W23777   2.767   2.492  14.158 -0.1059 -0.0010 -0.0356
 6254W        W23778   7.655   2.233  12.502 -0.1054 -0.2238 -0.0852
 6255W        W23779  14.144   0.089  15.217  0.0348 -0.1970  0.2646
 6256W        W23780  16.705  13.718  15.655 -0.0880 -0.1937  0.4162
 6257W        W23781  10.257  17.312  12.939 -0.1474 -0.1755 -0.0157
 6258W        W23782  12.529   3.828  11.908  0.0610 -0.1954 -0.0492
 6259W        W23783  10.544  13.568  15.042  0.0695  0.1365  0.2423
 6260W        W23784   8.905   3.785  16.185  0.1939  0.2811 -0.0558
 6261W        W23785  12.460  17.883  15.912  0.0912 -0.0700  0.1931
 6262W        W23786   2.838   6.878   3.200 -0.2160  0.1521  0.2858
 6263W        W23787   7.443   3.204   1.011 -0.0855  0.0351  0.0241
 6264W        W23788  11.152   6.333   2.392  0.1441 -0.3499  0.1050
 6265W        W23789   4.211  11.877  12.747 -0.3046  0.1433 -0.2569
 6266W        W23790  16.921   5.746   1.233 -0.1239  0.2068  0.5110
 6267W        W23791  11.961  10.704   5.627 -0.0618 -0.0661 -0.2544
 6268W        W23792  16.401  11.077  14.188 -0.3462  0.1160  0.3568
 6269W        W23793   5.406  15.574   3.428 -0.0400  0.3873 -0.1226
 6270W        W23794  13.930   6.244  14.252 -0.0863  0.2464  0.0032
 6271W        W23795   3.831   7.650  15.135 -0.2025 -0.0855 -0.1262
 6272W        W23796   9.678   4.893  14.437 -0.1475 -0.0480 -0.0035
 6273W        W23797   9.917   3.645  13.105  0.1553 -0.2133  0.1046
 6274W        W23798  11.046   8.155   3.878  0.1144 -0.2412 -0.0755
 6275W        W23799  12.184  15.689  16.054 -0.0094 -0.5169  0.3275
 6276W        W23800   9.424   0.895  15.532  0.0371  0.0321  0.0723
 6277W        W23801  17.089   1.086   2.765 -0.0120 -0.1050  0.0370
 6278W        W23802  10.142  17.698  16.185 -0.4150 -0.3173  0.0834
 6279W        W23803  12.643  11.405  13.091  0.0724 -0.0429  0.1599
 6280W        W23804   4.593  17.869   1.340 -0.0909 -0.0133  0.3130
 6281W        W23805   5.496   0.849  12.529  0.4202  0.1082  0.2140
 6282W        W23806   9.394   2.419   4.609 -0.0530 -0.0586  0.0812
 6283W        W23807   6.540   0.796   1.655  0.3045  0.0631 -0.1622
 6284W        W23808  17.532  14.531   2.333  0.1595  0.0334 -0.4945
 6285W        W23809  16.068   6.580  11.411  0.1300  0.0931 -0.0711
 6286W        W23810   7.450   8.087   0.410  0.1350 -0.1517 -0.2183
 6287W        W23811  15.497  10.497   1.449  0.1402 -0.0573 -0.1112
 6288W        W23812   3.218   3.191   2.560  0.1480  0.1319  0.1019
 6289W        W23813  14.214   2.607   2.057  0.0118 -0.0157 -0.3036
 6290W        W23814  15.155   9.184   0.071  0.0265  0.0447 -0.0408
 6291W        W23815  17.692   0.695   2.628  0.2376  0.0191  0.2033
 6292W        W23816  12.506  13.685   3.039 -0.0176 -0.2472 -0.0811
 6293W        W23817  17.123   7.338   0.380  0.0547  0.0332  0.0228
 6294W        W23818   2.197   9.793  13.309 -0.3490  0.1780  0.0256
 6295W        W23819  17.290   1.330   1.383  0.0015  0.0306  0.0926
 6296W        W23820   4.172  16.867   2.482  0.0110  0.2025  0.1872
 6297W        W23821   0.435   7.571   4.164 -0.0980 -0.0531 -0.3136
 6298W        W23822   1.849   1.792  15.870  0.0752  0.1397 -0.3065
 6299W        W23823  15.453  10.563  12.175 -0.2244 -0.0191  0.0559
 6300W        W23824  15.421   6.475  13.215 -0.1853 -0.0283  0.0872
 6301W        W23825   7.554  10.968  12.023  0.1440  0.2014 -0.0628
 6302W        W23826   1.412   1.292  15.108  0.1774 -0.0926  0.1754
 6303W        W23827   7.855   8.437   2.240  0.0605  0.1340 -0.2048
 6304W        W23828   6.825  16.149   1.323 -0.0619  0.0866  0.3558
 6305W        W23829   4.319   4.588  12.527  0.3218 -0.0434  0.2295
 6306W        W23830   8.587  11.820   0.459 -0.0054  0.0097  0.2796
 6307W        W23831   5.028   3.758   0.044  0.0648 -0.4361 -0.2419
 6308W        W23832   8.769  14.059  15.972  0.0556 -0.1375 -0.1057
 6309W        W23833   2.261  16.265  15.861 -0.0463  0.3202  0.1850
 6310W        W23834  13.002   6.286  12.213  0.0545  0.0617  0.0735
 6311W        W23835   1.907  14.379   0.470  0.1140  0.1576  0.1868
 6312W        W23836   0.140   5.789   0.648 -0.0575 -0.3272  0.1750
 6313W        W23837  15.909  11.638  16.094  0.1407  0.2513  0.2159
 6314W        W23838  10.946  15.000  14.099  0.1902  0.0762 -0.3142
 6315W        W23839  10.407  17.243   4.678 -0.0223  0.0215 -0.1112
 6316W        W23840   9.940   6.930   0.977  0.1247 -0.2251  0.0066
 6317W        W23841  13.814   3.299  13.449  0.1969 -0.0459 -0.0834
 6318W        W23842   5.001   3.105   3.579  0.0941 -0.1018 -0.0168
 6319W        W23843   6.104  14.445   3.584  0.1334  0.0894  0.2495
 6320W        W23844  12.937   1.039  15.056 -0.0463  0.1345  0.0164
 6321W        W23845  10.235  16.309  15.702  0.1329  0.3378 -0.2770
 6322W        W23846   7.268  10.060   0.630  0.3414 -0.2570  0.1859
 6323W        W23847  10.921   7.501  13.700 -0.0968 -0.0185  0.2178
 6324W        W23848   8.254   4.402   2.192  0.0481 -0.0023  0.1223
 6325W        W23849  11.228   4.282  12.442  0.0679  0.1621  0.2159
 6326W        W23850   2.901  15.840   1.205 -0.1681  0.0247 -0.0064
 6327W        W23851  16.016   7.559   0.105 -0.0700  0.1355 -0.2223
 6328W        W23852   1.243   8.087   1.885 -0.2907  0.2987 -0.2677
 6329W        W23853   4.996   8.142   3.217  0.3116 -0.2905 -0.0864
 6330W        W23854   9.320  10.875  14.217 -0.0886  0.1466 -0.2349
 6331W        W23855  15.637   8.852   4.832  0.2596 -0.2354  0.3628
 6332W        W23856  16.189  14.224  14.629 -0.0674  0.0884 -0.0783
 6333W        W23857  14.511   0.147  12.467  0.0340 -0.2498  0.0675
 6334W        W23858   3.502   5.514  12.939 -0.0368  0.2444 -0.0771
 6335W        W23859  11.148   7.324  16.056  0.2922 -0.1735 -0.1712
 6336W        W23860   5.440  15.011   2.877  0.4374 -0.1828  0.2398
 6337W        W23861   9.708   9.952   2.612  0.2451  0.0712 -0.1547
 6338W        W23862   7.007  14.257  14.040  0.3439 -0.1231 -0.0899
 6339W        W23863   9.254  10.870  13.293 -0.3121  0.2888  0.1165
 6340W        W23864   9.440   9.825  13.998 -0.1033 -0.0483 -0.0095
 6341W        W23865  15.079   5.165  15.119 -0.0869  0.3633  0.3892
 6342W        W23866   9.947  14.696  13.040 -0.2238 -0.1367 -0.0404
 6343W        W23867  13.593   7.498   3.482  0.0618 -0.0252 -0.2011
 6344W        W23868  13.661  10.321   1.288  0.1276 -0.2111 -0.2592
 6345W        W23869   6.356  13.162   0.633  0.0826  0.0332 -0.0536
 6346W        W23870   7.801  15.519   1.350  0.1762 -0.2108  0.1127
 6347W        W23871   8.655   5.453   0.201  0.0044 -0.0361  0.0393
 6348W        W23872   5.581  11.371   3.344  0.1128  0.0170 -0.0290
 6349W        W23873   7.709  10.294  12.196  0.1903  0.1706  0.1747
 6350W        W23874   6.555   7.766   1.216 -0.2559 -0.3088 -0.0538
 6351W        W23875   0.087   1.118  11.053 -0.2120 -0.3266  0.0331
 6352W        W23876   4.772  14.990   0.240 -0.0464 -0.0760  0.2869
 6353W        W23877   0.453  10.348   1.367 -0.1890 -0.0674  0.1109
 6354W        W23878   9.711  15.254  15.509 -0.0116  0.0673  0.1692
 6355W        W23879  17.828  15.588  14.636  0.3586 -0.3558 -0.0265
 6356W        W23880   2.148   8.556   3.688 -0.0321  0.0265  0.1667
 6357W        W23881  13.981  12.803   4.171  0.0838  0.1563 -0.1421
 6358W        W23882   9.570  16.287  15.276 -0.1724 -0.2812  0.2193
 6359W        W23883  16.978   7.944   1.012  0.0844  0.1702  0.0497
 6360W        W23884   7.680   7.644   0.719  0.1679 -0.2370 -0.0612
 6361W        W23885  11.282  12.838   4.878  0.0482  0.1671 -0.1803
 6362W        W23886   0.276   6.349  15.084  0.1114 -0.0352  0.0247
 6363W        W23887   8.977  12.346  16.209 -0.1522 -0.0195  0.0293
 6364W        W23888  13.236  16.280  14.689  0.1291 -0.0718  0.2765
 6365W        W23889   8.963   0.096  11.484  0.2131 -0.1088 -0.1027
 6366W        W23890  13.667   8.445   0.153  0.0985 -0.0289  0.3259
 6367W        W23891   3.400  11.304   3.794 -0.3116  0.1577  0.0816
 6368W        W23892   1.053   0.235   2.683 -0.4298 -0.0098  0.3219
 6369W        W23893   5.004   5.332   4.387  0.1179 -0.0484 -0.0328
 6370W        W23894  17.548  13.181  15.612  0.0999 -0.3805 -0.3195
 6371W        W23895   8.565   6.238   0.216  0.2565 -0.2582 -0.2734
 6372W        W23896   5.442  13.638   2.212  0.2113  0.0547  0.1778
 6373W        W23897   4.707  15.278   3.595 -0.0415 -0.1175  0.2738
 6374W        W23898   6.118  15.653  11.399  0.3900  0.2764  0.1225
 6375W        W23899  12.026   8.437   3.116  0.0088  0.0200  0.2801
 6376W        W23900  17.748  11.806  15.484 -0.0050 -0.0096 -0.0547
 6377W        W23901   4.880   3.435  15.961  0.2619  0.1484  0.3464
 6378W        W23902  11.750  15.686   4.140  0.2725  0.4358  0.0065
 6379W        W23903   3.701   0.978  13.470 -0.2853 -0.1018 -0.0246
 6380W        W23904   5.294  10.480  14.312 -0.2744 -0.0770  0.0788
 6381W        W23905  14.098  14.850   4.537 -0.1464 -0.0687  0.0345
 6382W        W23906   7.083  14.995   4.583  0.0493 -0.0473 -0.0917
 6383W        W23907   9.686   6.348  14.326 -0.0591 -0.0535  0.3118
 6384W        W23908  14.129   9.052   3.267 -0.2012  0.0968  0.0431
 6385W        W23909   3.378   7.315   0.929 -0.1375  0.1535 -0.0441
 6386W        W23910   1.887   6.502  14.131  0.1614  0.0441 -0.1378
 6387W        W23911  15.223   6.997   3.484  0.0738  0.0519  0.0771
 6388W        W23912   8.231   3.504  14.429 -0.1730  0.1688  0.1455
 6389W        W23913   0.302   8.385  10.974 -0.0498  0.0044  0.0051
 6390W        W23914  13.282   2.167   2.000 -0.1403  0.1684 -0.1289
 6391W        W23915  15.281   2.642  15.978  0.3996  0.0460  0.1515
 6392W        W23916  15.808   8.061  14.133  0.1190 -0.1475  0.1488
 6393W        W23917  15.196  16.827   0.757 -0.2020 -0.1533 -0.0676
 6394W        W23918  10.974  14.431   1.551 -0.0177  0.1075  0.0277
 6395W        W23919   2.748   5.758   4.985  0.1329 -0.0068  0.1460
 6396W        W23920  16.747   7.524   1.199 -0.0397 -0.2502 -0.2477
 6397W        W23921   1.964  16.619   5.480  0.1064 -0.0210 -0.0632
 6398W        W23922  11.181   3.053  14.331  0.4525 -0.1163 -0.1383
 6399W        W23923   6.710   5.487   2.995 -0.0305 -0.0613 -0.1499
 6400W        W23924   9.629  12.239  13.803  0.1620 -0.0006  0.2209
 6401W        W23925   2.150  14.594  12.769 -0.2546 -0.3050 -0.3193
 6402W        W23926  15.980   3.159   3.448  0.1612  0.2776 -0.0812
 6403W        W23927   3.330   4.277  13.371  0.1850 -0.2144  0.1626
 6404W        W23928  16.669   7.968   3.870  0.0884 -0.0825  0.0560
 6405W        W23929  16.706   3.459   3.180  0.2183  0.0419 -0.2758
 6406W        W23930   4.489  11.255  12.258 -0.1785 -0.1030 -0.2117
 6407W        W23931   4.467   0.878   0.826 -0.1647  0.2084 -0.2356
 6408W        W23932  14.570  14.547  12.225 -0.0942 -0.3389  0.2063
 6409W        W23933   8.936   8.985   0.221 -0.1669 -0.1009  0.0755
 6410W        W23934   9.485  12.661   3.735  0.1041  0.2186  0.0529
 6411W        W23935   1.258   5.562   2.893 -0.0868  0.4537 -0.3094
 6412W        W23936   8.030   6.596   2.225 -0.3195 -0.0262  0.0387
 6413W        W23937  13.303  12.956   0.092  0.1048  0.2816 -0.1128
 6414W        W23938  17.580   7.647  11.515  0.0979 -0.2922 -0.1680
 6415W        W23939  15.483   3.748  15.888 -0.1370  0.0498  0.0568
 6416W        W23940   9.515   3.049   2.921  0.0468  0.3080 -0.0847
 6417W        W23941  13.521   3.602  11.729 -0.0847 -0.0426 -0.0439
 6418W        W23942   4.988  17.044   0.429 -0.0058  0.0422 -0.2009
 6419W        W23943   8.618  11.332  12.617 -0.3989 -0.2449 -0.0239
 6420W        W23944  11.404  15.404   2.222 -0.1114  0.2067 -0.0870
 6421W        W23945  14.360   2.174   2.768  0.2651  0.0248  0.1453
 6422W        W23946   8.812   2.776  11.512 -0.2411 -0.4403  0.1141
 6423W        W23947   2.235   6.110   0.932 -0.0392  0.0773  0.0029
 6424W        W23948  11.396   0.243  14.748 -0.0576 -0.1548 -0.0909
 6425W        W23949   5.181  16.691  12.477  0.4185  0.0933 -0.2334
 6426W        W23950  11.581   5.731   4.098 -0.2083 -0.0043  0.0239
 6427W        W23951   1.686   3.408   5.497 -0.0951  0.0977  0.2227
 6428W        W23952   4.137   1.379   4.200 -0.0714 -0.0788 -0.2522
 6429W        W23953   5.891  13.191   4.357  0.0697 -0.1416 -0.0341
 6430W        W23954  16.231   7.366   1.887 -0.2596 -0.2543 -0.1552
 6431W        W23955  14.901   7.938   0.082  0.1058  0.0840  0.0461
 6432W        W23956  17.743   3.597  11.930  0.0510 -0.0045  0.2504
 6433W        W23957   3.018   0.362  15.248  0.0048  0.1269  0.0549
 6434W        W23958  12.503  13.285   3.384  0.0942  0.0479 -0.1337
 6435W        W23959  13.389   0.333   4.043  0.0086 -0.1723  0.2632
 6436W        W23960   2.545  10.558   5.658  0.0867  0.0018  0.2681
 6437W        W23961   0.995   2.588  11.455  0.1516 -0.0439  0.0859
 6438W        W23962   0.831  12.234  13.299  0.2143  0.0814 -0.0710
 6439W        W23963  13.474   9.134   1.975 -0.3917 -0.1751 -0.3223
 6440W        W23964   5.835  17.176   1.633  0.0401 -0.1245 -0.0647
 6441W        W23965  15.684   3.798   2.881 -0.1629 -0.1923 -0.0190
 6442W        W23966  17.677  14.538  10.673 -0.0165  0.0924  0.0549
 6443W        W23967   2.726   6.121   0.696  0.3916 -0.3342  0.3641
 6444W        W23968   7.731  16.519   2.765  0.3058 -0.2328  0.1951
 6445W        W23969  15.846  11.034  13.868 -0.2963  0.0201  0.0617
 6446W        W23970   5.735  13.755   0.693 -0.1833  0.2022  0.2286
 6447W        W23971  15.326   9.257  12.921  0.3286 -0.0902 -0.0381
 6448W        W23972   5.389   8.592   3.263  0.0772 -0.0218  0.1357
 6449W        W23973  15.520   6.409  15.506  0.1443 -0.0515 -0.0263
 6450W        W23974  11.326  14.182   1.956 -0.1750 -0.1972  0.1972
 6451W        W23975   0.042  11.341  14.218  0.0539 -0.1094 -0.0872
 6452W        W23976  10.617  14.358  14.806  0.3357  0.0424 -0.2443
 6453W        W23977  11.954   7.247   3.375 -0.1542 -0.3144  0.3032
 6454W        W23978  16.331   9.542  12.901  0.0488 -0.1471 -0.1043
 6455W        W23979  14.081  11.902  16.170  0.1169  0.3758 -0.2429
 6456W        W23980   4.320   7.770  11.621  0.2294  0.0544 -0.0352
 6457W        W23981  11.111   5.381  13.445 -0.0564  0.1162 -0.0551
 6458W        W23982  12.586  10.666   4.239  0.1220 -0.1117 -0.0760
 6459W        W23983  15.145   9.395  13.328  0.2471 -0.0841 -0.0571
 6460W        W23984   9.729  13.050  15.438  0.1896 -0.0152 -0.0578
 6461W        W23985   8.035  17.532   2.188  0.0057 -0.1007  0.0268
 6462W        W23986   4.234  17.642  11.970 -0.3979  0.0129 -0.1301
 6463W        W23987  12.763   5.662  13.876 -0.2848 -0.0214 -0.1621
 6464W        W23988  14.203   4.268   3.405 -0.0369  0.0568  0.2822
 6465W        W23989   1.677   8.442  14.882  0.1373 -0.1903 -0.0541
 6466W        W23990  10.392  13.185   5.062 -0.2438  0.1359  0.2787
 6467W        W23991  17.315   4.423  14.226  0.1102 -0.1286  0.1569
 6468W        W23992   3.447  16.197  11.221  0.1098  0.0824  0.0987
 6469W        W23993   2.459  17.410   3.822  0.0920 -0.4826 -0.0990
 6470W        W23994  17.477  16.773  14.097  0.1490  0.0567 -0.2062
 6471W        W23995  11.460   5.257   3.257  0.4401 -0.0277 -0.1046
 6472W        W23996   9.073  13.471  11.448 -0.1475  0.2434  0.0989
 6473W        W23997   5.084   1.113  13.691  0.0059 -0.3204 -0.0340
 6474W        W23998  14.651   6.864  14.911  0.0064  0.4352  0.0375
 6475W        W23999   2.613   4.236  12.661  0.1036  0.0084  0.0538
 6476W        W24000   2.685   4.584  15.557 -0.1327 -0.3138  0.0506
 6477W        W24001  11.605  10.122  13.527  0.1813 -0.0035 -0.0893
 6478W        W24002   4.108  15.339   4.224 -0.1136  0.0438  0.0463
 6479W        W24003  10.125   1.904   2.883  0.0696  0.0503 -0.5004
 6480W        W24004  13.157  14.698  15.607  0.1743 -0.2279 -0.3162
 6481W        W24005   0.812   4.866   3.652  0.1264  0.0179 -0.0102
 6482W        W24006  14.894   1.383   2.578 -0.1745  0.0718 -0.1931
 6483W        W24007  15.937   6.439  13.225  0.0054  0.0276  0.1085
 6484W        W24008   7.593   9.356   2.190  0.1028 -0.2318 -0.1545
 6485W        W24009   2.001  13.349   0.757 -0.0368 -0.2987 -0.0701
 6486W        W24010   4.469   7.473   0.901 -0.0836  0.1326 -0.2450
 6487W        W24011   9.742  17.264   1.777 -0.3149 -0.0303  0.0118
 6488W        W24012  11.595  14.348  12.079  0.0776 -0.0443  0.3071
 6489W        W24013  12.166   2.178  16.244  0.1546  0.0861 -0.2707
 6490W        W24014  13.421   4.418  13.946 -0.2529 -0.0293 -0.0813
 6491W        W24015  16.997   6.013  15.797  0.5387  0.4098 -0.0741
 6492W        W24016  14.092  10.190   2.591  0.0660  0.3116  0.0949
 6493W        W24017   4.209  14.647  14.394  0.0789  0.2525 -0.1843
 6494W        W24018  11.297   6.549   4.335  0.0656  0.0997 -0.0028
 6495W        W24019   9.391  14.919   1.321 -0.1005  0.0636  0.1095
 6496W        W24020  12.962   4.856  14.126 -0.2447  0.3181 -0.0204
 6497W        W24021   1.690   5.199  13.383 -0.0066 -0.0075 -0.0603
 6498W        W24022  15.941  15.270  16.114 -0.2153 -0.1127 -0.1643
 6499W        W24023  17.050  11.260   4.602 -0.1706  0.1157 -0.0810
 6500W        W24024   2.319  11.347  14.010  0.1868  0.1572 -0.0382
 6501W        W24025   6.633  14.431  15.489  0.1050 -0.1383  0.4054
 6502W        W24026   6.773  15.728   4.133 -0.2563  0.1646  0.3056
 6503W        W24027   8.476   5.940   1.211  0.0383  0.2110  0.0306
 6504W        W24028   1.621   0.458  12.424 -0.1223 -0.0732 -0.0837
 6505W        W24029  10.705  11.338   3.060  0.3102 -0.0045 -0.0752
 6506W        W24030  11.178   6.587  14.102  0.0792  0.1843  0.0414
 6507W        W24031  14.734  12.034  13.357  0.3533  0.3254  0.0082
 6508W        W24032   0.397   6.324  13.991 -0.0246  0.1386 -0.0073
 6509W        W24033   2.060   8.649   4.207 -0.0095  0.0838 -0.1361
 6510W        W24034   6.394   3.716  11.324 -0.0593 -0.2373 -0.0900
 6511W        W24035   7.528  12.062  15.818  0.0405 -0.0580 -0.2573
 6512W        W24036   6.322   7.710  12.529 -0.1811  0.0377  0.0698
 6513W        W24037   7.857  14.664  13.730 -0.0061 -0.0343  0.0690
 6514W        W24038   1.777   8.641   0.814 -0.0275 -0.3289 -0.2431
 6515W        W24039   7.723   7.886  12.377  0.2558 -0.0384  0.1660
 6516W        W24040   1.552   7.197   0.723 -0.0014 -0.0573  0.2133
 6517W        W24041  15.935   7.050  14.425  0.1345  0.0536 -0.0157
 6518W        W24042   2.474   8.097   1.212  0.0737 -0.0203 -0.1322
 6519W        W24043  16.166   1.509   2.518  0.0911 -0.1639  0.0551
 6520W        W24044  12.587   5.733  12.055 -0.0109  0.0572  0.1460
 6521W        W24045   8.222  15.103   4.412  0.3460 -0.0032 -0.1603
 6522W        W24046   4.499   9.087   4.215  0.1035 -0.1402  0.0723
 6523W        W24047   7.246  17.340  13.595  0.0200  0.0348 -0.0299
 6524W        W24048  14.859   5.627  11.743 -0.1887 -0.0019  0.0626
 6525W        W24049  14.707   4.842  15.293  0.1793 -0.4489  0.0764
 6526W        W24050  15.633   6.146  14.976  0.1930  0.2797 -0.1114
 6527W        W24051   8.733   8.523  12.912  0.0234 -0.3201 -0.1790
 6528W        W24052   9.288   9.903   1.530  0.0884 -0.0213 -0.1464
 6529W        W24053   3.896  15.541  14.630 -0.0432 -0.2428 -0.0410
 6530W        W24054  17.367   5.660  16.047  0.2778  0.2443  0.3751
 6531W        W24055   7.398  17.727  13.847 -0.1183  0.2199 -0.1487
 6532W        W24056  16.994   6.482  12.326  0.2225 -0.0372  0.1814
 6533W        W24057   6.973   1.418  13.361 -0.0790 -0.1762 -0.0026
 6534W        W24058  13.627   7.163   2.933 -0.1905 -0.2215 -0.0610
 6535W        W24059   1.310  10.797   1.196 -0.0867 -0.0665 -0.0694
 6536W        W24060   1.244  12.920   2.827 -0.0427 -0.0635  0.1637
 6537W        W24061   4.947   4.453   2.559  0.3115  0.0237  0.0847
 6538W        W24062   5.097  12.444   2.756 -0.3513  0.1079 -0.2338
 6539W        W24063   1.421  12.599  15.803  0.2976 -0.0435 -0.2680
 6540W        W24064   9.887  11.526  13.149  0.0777 -0.0363  0.1306
 6541W        W24065  16.262   4.923   2.172 -0.1537  0.1971  0.0775
 6542W        W24066   9.291  17.860   3.246  0.1627 -0.3546  0.1944
 6543W        W24067  10.340  15.224   3.884 -0.1078  0.0123  0.0731
 6544W        W24068   4.231   4.361  12.109 -0.0040 -0.0270  0.0593
 6545W        W24069  16.181   5.257  12.365 -0.0305 -0.1919 -0.1917
 6546W        W24070  14.529   3.265  14.107 -0.1962  0.2040 -0.0257
 6547W        W24071   7.915   5.942  13.082  0.0170 -0.0233  0.1254
 6548W        W24072   5.042   3.182   0.316 -0.1438 -0.2708  0.0988
 6549W        W24073  15.684   5.202   4.171  0.2944 -0.1047  0.0493
 6550W        W24074   5.424   0.467  12.134 -0.2888 -0.2365  0.0471
 6551W        W24075   4.899   2.492   3.679 -0.2551  0.0319  0.0048
 6552W        W24076  11.099   8.131  15.901 -0.1398  0.0821  0.0428
 6553W        W24077   8.173  16.937  16.198 -0.1327 -0.0574  0.1691
 6554W        W24078   6.834  13.995   3.476  0.1210 -0.0235 -0.3781
 6555W        W24079  15.941   2.603   5.129 -0.3703 -0.2381 -0.0881
 6556W        W24080   5.354  14.150  14.379 -0.0327 -0.2036  0.0070
 6557W        W24081   8.327  13.725  14.252  0.1658  0.0986  0.0586
 6558W        W24082  11.162  15.541  15.854 -0.1978  0.1937 -0.2521
 6559W        W24083   8.153  11.611  15.303  0.1381  0.3361 -0.0658
 6560W        W24084  17.431   3.679   3.786 -0.0196 -0.3357 -0.1900
 6561W        W24085   9.202   5.024  15.012 -0.1226  0.1330 -0.3347
 6562W        W24086   8.196  16.373  12.924 -0.3446  0.0668  0.1236
 6563W        W24087  13.044  13.393   1.586 -0.0548 -0.0581 -0.2447
 6564W        W24088   7.709   0.121   1.800  0.3813  0.3002  0.3524
 6565W        W24089   3.217   6.394   3.822  0.2216 -0.4131 -0.1957
 6566W        W24090   7.858  13.062  14.340  0.1204  0.1010  0.1556
 6567W        W24091   3.789   8.855   3.296 -0.1582  0.2321 -0.3497
 6568W        W24092  13.209   9.005   3.660  0.2796 -0.0968 -0.1355
 6569W        W24093   8.723   0.021   1.009 -0.0388  0.0430 -0.0046
 6570W        W24094  16.005  13.075   4.948 -0.1980 -0.1337  0.1460
 6571W        W24095   9.701  10.861   4.267  0.0505 -0.1289 -0.2939
 6572W        W24096  10.667  12.301   0.750 -0.0916 -0.0783 -0.4731
 6573W        W24097   7.375   0.496  11.015 -0.0831 -0.0903  0.2517
 6574W        W24098   5.310   7.335  12.655 -0.0934 -0.1712  0.1708
 6575W        W24099   2.405   1.728  10.602  0.1211  0.1760 -0.1381
 6576W        W24100   1.608  12.764   3.150 -0.0762 -0.1297  0.2345
 6577W        W24101   4.212   9.018  16.185  0.2557  0.3373  0.0812
 6578W        W24102   5.082  16.624   5.912  0.1207  0.0041  0.0610
 6579W        W24103   9.184   5.749   4.547 -0.1176 -0.2177  0.2382
 6580W        W24104   1.547   3.948  15.843 -0.1741  0.2308  0.2170
 6581W        W24105   5.987  15.575  13.338  0.0621 -0.0491  0.0438
 6582W        W24106  11.229   0.873  15.256  0.0339 -0.2683  0.1207
 6583W        W24107   2.226  12.929  12.082 -0.0048  0.0222 -0.0259
 6584W        W24108  12.638   1.770  14.455  0.2627  0.2094  0.0372
 6585W        W24109  10.472   3.779  15.006 -0.2599  0.3936  0.4182
 6586W        W24110   5.209   9.434   0.644 -0.0422 -0.1028  0.1256
 6587W        W24111  16.306   9.048  10.926  0.0647 -0.2349  0.0123
 6588W        W24112   9.404  13.281  13.449 -0.1763 -0.3811 -0.0861
 6589W        W24113   8.323   1.323   1.740  0.1398  0.3430  0.4258
 6590W        W24114  15.766   0.460   4.713 -0.0620 -0.0456  0.0950
 6591W        W24115   2.355  11.954  13.046 -0.0654 -0.2126 -0.0993
 6592W        W24116  15.554   7.145   1.857  0.3281  0.4031  0.2663
 6593W        W24117   3.981   7.250  14.890 -0.0621  0.0659 -0.1340
 6594W        W24118   2.730   3.311   2.358 -0.3932  0.1531  0.0035
 6595W        W24119  13.152  15.387  14.576 -0.0288  0.0373  0.0027
 6596W        W24120  10.268  14.746   3.745 -0.2294 -0.0394 -0.1984
 6597W        W24121   4.949   1.905  11.688 -0.1255  0.0491 -0.1275
 6598W        W24122  10.776  14.782   1.207  0.1589 -0.0927  0.0432
 6599W        W24123  17.831  11.682   3.013 -0.3887 -0.1223  0.0203
 6600W        W24124   5.661   4.949  11.428 -0.0244 -0.0748 -0.0806
 6601W        W24125   3.658   7.546  14.585 -0.4389  0.0445 -0.1012
 6602W        W24126  13.744   9.038   1.121 -0.1022  0.1663  0.0811
 6603W        W24127   9.332   9.203   1.074 -0.1505  0.1122  0.2334
 6604W        W24128  16.568   7.549   2.241  0.1827 -0.1699 -0.0333
 6605W        W24129  17.949   0.651   0.012 -0.1718 -0.1243  0.3559
 6606W        W24130  13.431  17.020   1.937 -0.1537  0.3245  0.1589
 6607W        W24131   5.553   4.436  11.480  0.1351  0.0157  0.0747
 6608W        W24132  16.024  17.066   2.342 -0.0021 -0.1820  0.1499
 6609W        W24133  15.599   9.276  11.593 -0.0954 -0.2081  0.0491
 6610W        W24134   0.144  10.370  15.678  0.0316  0.1992  0.0498
 6611W        W24135  13.608  17.754   2.706 -0.1117  0.0716 -0.1745
 6612W        W24136   9.502   2.638   0.375 -0.3072  0.3023 -0.0202
 6613W        W24137  14.340   1.587   3.897  0.0084  0.2294 -0.0417
 6614W        W24138   4.967   5.520   1.848 -0.2419  0.1479  0.0597
 6615W        W24139   4.606  12.912  11.346  0.0727 -0.1069  0.1093
 6616W        W24140  13.245  13.469   2.579  0.4448  0.3219 -0.0852
 6617W        W24141  16.455   5.879   4.258 -0.2596 -0.4604  0.0160
 6618W        W24142   9.412   9.755   0.122 -0.2556  0.1286 -0.1286
 6619W        W24143   6.441   8.909   0.087 -0.0075  0.0210 -0.3021
 6620W        W24144   5.054   1.820  13.923 -0.3429  0.2599  0.2170
 6621W        W24145   1.784  10.670   1.096 -0.1944  0.1773 -0.0919
 6622W        W24146  11.419   9.447   2.592 -0.0598  0.0648 -0.1110
 6623W        W24147  17.235   3.112  15.123 -0.2397  0.0306  0.0331
 6624W        W24148   3.383   6.168   4.890  0.2052  0.2745  0.2120
 6625W        W24149  15.703   6.241  14.298  0.1859 -0.2122 -0.0748
 6626W        W24150   0.805  13.789   1.366  0.1783 -0.3199 -0.0484
 6627W        W24151  17.454  15.563   2.646  0.2922  0.0312 -0.1551
 6628W        W24152   4.450   3.722   1.539  0.3040 -0.1138 -0.0209
 6629W        W24153  17.899   1.600  15.344  0.0479 -0.1666 -0.5056
 6630W        W24154  13.128   3.312  11.637 -0.4094  0.0073 -0.0254
 6631W        W24155   5.810  15.365  14.876 -0.1581 -0.2169  0.0081
 6632W        W24156  13.013   8.929   0.570  0.0812 -0.2481  0.1671
 6633W        W24157  15.741   8.180   2.548 -0.0617 -0.2252  0.0663
 6634W        W24158  16.028  10.971   4.451  0.1630 -0.2595 -0.1423
 6635W        W24159   6.321   3.113   3.902  0.1285  0.0882  0.0657
 6636W        W24160   5.472  10.464   2.726 -0.3360 -0.1121  0.1024
 6637W        W24161   6.689  11.342  13.069  0.1589  0.2453  0.2681
 6638W        W24162  16.065   5.473   3.491 -0.2636  0.1825  0.2346
 6639W        W24163   8.433   4.481   1.048 -0.0099  0.1685 -0.1874
 6640W        W24164   3.085   6.066  13.434  0.1281 -0.0949 -0.1820
 6641W        W24165   5.564   5.916  15.792 -0.0790  0.0383 -0.0408
 6642W        W24166  15.880  16.590   1.027 -0.0696 -0.1417 -0.1498
 6643W        W24167  13.418  11.327  16.032 -0.3405 -0.1874 -0.0077
 6644W        W24168  15.830   7.937   2.989 -0.0540 -0.1063  0.1122
 6645W        W24169   4.551   2.828   1.250  0.4691  0.2779 -0.2077
 6646W        W24170  16.848  11.523  15.189  0.0256  0.1290  0.0777
 6647W        W24171  13.442   7.864   2.278  0.1656  0.0812 -0.0581
 6648W        W24172   1.349   3.242  14.736 -0.0997 -0.0063 -0.0679
 6649W        W24173   8.300   2.098  11.904  0.0082  0.0314  0.0292
 6650W        W24174   2.853  17.021  11.950  0.0508  0.2303  0.1459
 6651W        W24175  14.387   3.849   3.085  0.1993 -0.1665 -0.0438
 6652W        W24176  17.130  13.915  15.856 -0.0203  0.3354  0.0813
 6653W        W24177   3.979  13.873   4.091  0.1532 -0.2004  0.2884
 6654W        W24178   0.412   2.095  14.051  0.0217  0.1708  0.0250
 6655W        W24179   3.180   0.304  14.670  0.1811  0.1322  0.6684
 6656W        W24180   9.984  17.654   0.450  0.2235  0.1232  0.3069
 6657W        W24181  17.173   6.316   4.794  0.0912  0.2118  0.2780
 6658W        W24182   9.932   5.139  15.777  0.1077  0.1346  0.0559
 6659W        W24183   2.250  15.398   2.001  0.1432  0.1701 -0.1360
 6660W        W24184   9.240  15.983   0.456  0.2731  0.0867 -0.0757
 6661W        W24185   6.913   4.107   5.485  0.2028  0.0126 -0.2010
 6662W        W24186  14.716  15.501  11.889  0.1718 -0.1705 -0.3660
 6663W        W24187  17.568   4.642   1.694 -0.3206 -0.1046 -0.0641
 6664W        W24188  10.778  17.007  11.700  0.0351  0.0721  0.1007
 6665W        W24189  16.708   4.242   2.310  0.2090 -0.0825 -0.1254
 6666W        W24190  10.253   0.097   2.759 -0.1563  0.1124  0.2967
 6667W        W24191   9.079  10.895   3.803 -0.0548  0.0764  0.1476
 6668W        W24192   5.247  13.622  14.332  0.1482 -0.2550  0.0577
 6669W        W24193   6.734   7.663  15.459 -0.2745 -0.2053  0.0331
 6670W        W24194   6.425  17.300  13.054 -0.2591  0.1210  0.2037
 6671W        W24195  16.173  13.576  15.419 -0.1021  0.3249 -0.0510
 6672W        W24196   7.925   7.022   1.776  0.1532 -0.0824  0.2153
 6673W        W24197  12.925  12.578   3.970 -0.0013  0.1130  0.0109
 6674W        W24198   0.431   4.129  14.030 -0.2653  0.0907  0.1084
 6675W        W24199   9.649   9.166  12.159 -0.2337 -0.1951 -0.2862
 6676W        W24200   6.191  11.478   0.815 -0.1848  0.0583 -0.2533
 6677W        W24201  11.110  15.556  13.994 -0.1375  0.0584 -0.0039
 6678W        W24202   2.257   2.133   3.801  0.1070 -0.0409 -0.0629
 6679W        W24203   3.885  12.817   4.250  0.0558 -0.0557  0.0353
 6680W        W24204  14.709  12.191  14.097  0.0344  0.1042 -0.3347
 6681W        W24205  13.336   3.222   3.929  0.0171 -0.1733 -0.0316
 6682W        W24206  16.832   7.194  11.300  0.3771  0.0531  0.0424
 6683W        W24207  13.472  17.096   5.353 -0.0258 -0.1290  0.1316
 6684W        W24208   2.247   1.162   2.223 -0.4159  0.2182  0.0246
 6685W        W24209  17.526   2.049  14.214 -0.0246 -0.0541 -0.1493
 6686W        W24210   4.000   1.050   3.384 -0.3744 -0.1892  0.4664
 6687W        W24211  14.241  14.088  13.569  0.1186 -0.0100  0.3835
 6688W        W24212   3.272  16.032  15.033  0.1539 -0.0672  0.2345
 6689W        W24213  11.021  13.412  15.007  0.0428 -0.3005  0.3068
 6690W        W24214   1.012   5.316   3.449 -0.1437 -0.0942 -0.0917
 6691W        W24215   0.182  16.697   0.264 -0.0920  0.0636 -0.1562
 6692W        W24216   5.197   5.282  14.494  0.0703 -0.2075 -0.0132
 6693W        W24217   5.171  11.352  13.581  0.1068  0.0992  0.3193
 6694W        W24218  17.636   0.918   4.318  0.1431  0.3085  0.0236
 6695W        W24219   8.791   4.881   2.618  0.3781  0.0870  0.1377
 6696W        W24220  13.137  17.113   4.483 -0.2637 -0.2074  0.1424
 6697W        W24221   6.694   0.751  12.639 -0.2639  0.1279 -0.1846
 6698W        W24222   1.083   7.731  15.673  0.4545 -0.3015 -0.3696
 6699W        W24223   2.322   9.136  10.538  0.0243  0.0376 -0.0888
 6700W        W24224   1.345   4.406  14.298  0.2066  0.0094 -0.3030
 6701W        W24225   4.566   9.291   1.263  0.0694 -0.0256 -0.2437
 6702W        W24226  15.179   6.650   2.525 -0.2463 -0.0114  0.1491
 6703W        W24227   5.981  15.910  15.403 -0.1338 -0.2967  0.0528
 6704W        W24228  13.552  12.109  15.283  0.1598 -0.2287 -0.1838
 6705W        W24229   4.556  16.907   1.202  0.3278  0.0798  0.0072
 6706W        W24230  10.170   8.801   0.252 -0.0726 -0.1345 -0.1485
 6707W        W24231  14.873   5.478   4.285 -0.1879 -0.1220  0.1994
 6708W        W24232  10.167   2.402   4.240 -0.0874 -0.0535 -0.3324
 6709W        W24233   5.276   4.436   4.461 -0.0843 -0.0990  0.1225
 6710W        W24234   2.073  11.660  14.338 -0.1294 -0.0920  0.1537
 6711W        W24235   6.657  13.718  13.638  0.1933 -0.1666  0.1450
 6712W        W24236   1.206   7.467   2.485  0.1533  0.1529 -0.2776
 6713W        W24237  10.648  15.647  13.626  0.1835  0.0662  0.0277
 6714W        W24238  11.410  12.950  15.751  0.1069 -0.1493 -0.1826
 6715W        W24239  12.033  13.808   2.213  0.4784  0.1916 -0.1222
 6716W        W24240   7.737   0.590   2.053  0.1206  0.1154 -0.2906
 6717W        W24241  13.198  11.572  13.729 -0.1539  0.0754 -0.1207
 6718W        W24242   5.997  12.183   3.382 -0.0348  0.1305 -0.0501
 6719W        W24243   2.915  14.790   4.528 -0.1857 -0.1146  0.4100
 6720W        W24244   4.042  12.913   3.379 -0.0533 -0.2549 -0.1130
 6721W        W24245   5.932  11.323  16.098 -0.1387 -0.0257  0.0224
 6722W        W24246  12.038  14.276  11.854  0.2067  0.0823  0.1205
 6723W        W24247  11.651  15.692  16.070  0.2944 -0.0361  0.2828
 6724W        W24248   8.984   0.689   2.184  0.0426 -0.1016 -0.0200
 6725W        W24249   1.971   3.546  12.772 -0.2292  0.3044 -0.1973
 6726W        W24250   8.930   9.880  13.229 -0.0144 -0.0170 -0.2412
 6727W        W24251  15.199  11.781  14.802  0.2190  0.1488 -0.0007
 6728W        W24252  11.469  13.676  10.701  0.1530  0.3620  0.2657
 6729W        W24253   6.758   4.806  15.720  0.3205 -0.0982  0.1242
 6730W        W24254   9.350   6.268  15.774  0.2426 -0.0009  0.2963
 6731W        W24255  13.116   5.496  12.826 -0.2397  0.1345  0.0049
 6732W        W24256  15.654  10.040  14.160  0.0389 -0.0287  0.1207
 6733W        W24257   8.380   9.611   2.601 -0.2431 -0.1255 -0.3425
 6734W        W24258   6.377   6.086  12.729 -0.1133  0.0876  0.3279
 6735W        W24259   6.192  13.797   1.837 -0.0829 -0.0131  0.1069
 6736W        W24260  17.318  15.438  12.199  0.2239 -0.0166 -0.1279
 6737W        W24261   5.145  16.092  11.275  0.2241  0.0549 -0.1418
 6738W        W24262   1.524   8.613   4.164  0.4229 -0.0758  0.0814
 6739W        W24263   2.961  10.590  14.282  0.1090  0.1632  0.3049
 6740W        W24264   1.084   5.977   3.202 -0.1035  0.2170 -0.1008
 6741W        W24265  13.978  10.759   5.241 -0.3032  0.0877  0.2363
 6742W        W24266   6.687  15.186   1.801  0.3213 -0.4025 -0.0186
 6743W        W24267   3.449   8.491  11.515 -0.1632 -0.2551  0.1989
 6744W        W24268   5.659   5.630   3.724  0.0602 -0.1306 -0.1989
 6745W        W24269   2.633   3.540  12.116  0.2179  0.0110 -0.2315
 6746W        W24270   7.057  17.638  12.663  0.1908  0.1467 -0.0186
 6747W        W24271   9.114  11.076   5.101 -0.2656  0.3308 -0.0156
 6748W        W24272   2.801   5.472  14.147  0.1341  0.3479 -0.2722
 6749W        W24273  16.475  17.278   0.461  0.0980 -0.1505  0.2105
 6750W        W24274   9.611  12.071  12.852 -0.0080  0.1777 -0.3222
 6751W        W24275   2.408   4.201   0.018  0.1035 -0.0702 -0.0817
 6752W        W24276  10.637  12.013   4.511  0.2357 -0.1680 -0.0913
 6753W        W24277   2.834  12.933  11.857  0.2562 -0.5671  0.4770
 6754W        W24278   8.917  14.869  14.808  0.1941  0.0913  0.1789
 6755W        W24279   0.435   0.397  15.547 -0.0671 -0.1045  0.1111
 6756W        W24280   6.345  15.962  13.450 -0.1234 -0.0337 -0.0999
 6757W        W24281  13.038   8.364  12.076  0.2698 -0.1431  0.3508
 6758W        W24282   0.772   9.911   2.029  0.1223 -0.0552  0.1042
 6759W        W24283   8.289  11.906   3.005  0.0438  0.1497  0.0420
 6760W        W24284   5.926  14.079  16.110  0.0562  0.2074 -0.1402
 6761W        W24285  14.925  14.941   4.823  0.0515  0.2250 -0.3363
 6762W        W24286  16.567   2.616   3.954 -0.1264 -0.2731 -0.1075
 6763W        W24287   2.004  11.392   5.555  0.0113 -0.0848  0.0186
 6764W        W24288   2.268   3.033   0.183 -0.1813  0.0213  0.0578
 6765W        W24289   1.386  16.872   2.518 -0.4224 -0.3285 -0.1689
 6766W        W24290  16.839   8.391   1.750 -0.0232 -0.0123  0.0347
 6767W        W24291   2.924   7.404   2.379  0.1206  0.1484  0.0330
 6768W        W24292  17.393   9.784   3.216  0.1574 -0.1167  0.2649
 6769W        W24293  14.609   7.486  13.627 -0.0863 -0.3431 -0.3332
 6770W        W24294   2.782   8.074   2.963 -0.0774 -0.3104  0.1375
 6771W        W24295   8.121  13.004  12.600  0.3112 -0.3222 -0.0370
 6772W        W24296  16.888   6.764   5.707 -0.0526  0.0241  0.3502
 6773W        W24297   8.545   3.502  12.770 -0.0815 -0.1245  0.3179
 6774W        W24298   0.583  12.132   2.833  0.1589 -0.0751  0.0201
 6775W        W24299  15.805   4.622   0.942 -0.2840  0.0985 -0.0183
 6776W        W24300  15.333   5.340   5.519 -0.0060  0.1067 -0.1476
 6777W        W24301   5.743  15.319  15.404  0.2903  0.0093  0.1116
 6778W        W24302   0.072   1.320   1.163 -0.2100  0.0089  0.1177
 6779W        W24303  15.435  16.810  11.852  0.0872  0.1527  0.3237
 6780W        W24304  13.958  11.681   3.783  0.2119 -0.1627 -0.0368
 6781W        W24305   4.769   8.620   5.478 -0.0468  0.0781  0.2334
 6782W        W24306   1.001  14.723   1.750  0.0685  0.3658 -0.0930
 6783W        W24307  17.159   4.166   3.064  0.0355  0.2469 -0.0641
 6784W        W24308   1.193   9.432  12.618  0.2541  0.0897 -0.0599
 6785W        W24309   9.872  11.649   2.895 -0.1443  0.1328  0.3095
 6786W        W24310  12.780   2.021   2.332 -0.1404 -0.1310 -0.1967
 6787W        W24311  16.691  11.089  10.987  0.1058  0.1245 -0.0274
 6788W        W24312  11.197  16.533  15.417  0.1271  0.3865  0.2040
 6789W        W24313   0.322   0.457   1.489 -0.1602 -0.0242 -0.0787
 6790W        W24314   0.911  16.669  13.001  0.0207  0.0138 -0.0704
 6791W        W24315  11.918   4.032   3.256  0.0680 -0.0866 -0.0531
 6792W        W24316   4.508   8.977   0.390  0.2375 -0.3254  0.1099
 6793W        W24317   6.738  12.794  15.037 -0.0356  0.0264 -0.3467
 6794W        W24318  11.193   4.548  15.647 -0.0922  0.3915 -0.2377
 6795W        W24319   0.799  14.313   0.062 -0.0142 -0.2632 -0.3426
 6796W        W24320  17.449  13.591  13.342 -0.0882 -0.4527 -0.1595
 6797W        W24321   0.561   5.806   4.955 -0.3287  0.3294  0.1433
 6798W        W24322   4.529   3.841  13.653 -0.0444  0.1235 -0.1444
 6799W        W24323  16.260   5.326   0.697  0.2863  0.1807  0.2231
 6800W        W24324  14.526   7.953   4.498  0.0003  0.0152  0.3196
 6801W        W24325  13.642  10.030  12.276 -0.3529  0.1384 -0.1379
 6802W        W24326   6.515   4.394   5.383  0.0550  0.1265  0.1585
 6803W        W24327  17.036  13.129   0.209  0.1221 -0.1475 -0.2895
 6804W        W24328  12.896  15.153   4.516  0.2564  0.0374  0.0751
 6805W        W24329   2.121   8.798  12.040 -0.0120 -0.3059 -0.4259
 6806W        W24330   9.607  10.499   4.612  0.4345 -0.1335 -0.0370
 6807W        W24331   4.972  14.808   1.138 -0.4249  0.1783 -0.0911
 6808W        W24332  13.754   8.802   3.520 -0.2295 -0.0389  0.0531
 6809W        W24333   1.311   4.054  13.393 -0.0496 -0.1650 -0.0951
 6810W        W24334  13.436  16.620   2.348  0.2370  0.1097  0.2587
 6811W        W24335   3.624   5.716   3.589 -0.0495  0.2823 -0.0517
 6812W        W24336  13.836   2.323  12.152  0.2453 -0.2205  0.1680
 6813W        W24337   1.903   8.931   6.436  0.1235  0.0983 -0.1342
 6814W        W24338  15.473   7.641  14.015 -0.0684  0.0130 -0.2188
 6815W        W24339   9.683   1.308  11.478 -0.0002  0.2216 -0.0370
 6816W        W24340   9.453  16.942  13.311  0.4322 -0.4127  0.1760
 6817W        W24341   9.002  16.742  13.393 -0.2359 -0.1434  0.1681
 6818W        W24342   8.139  16.692   3.097  0.0846  0.0559 -0.2200
 6819W        W24343   6.965   8.702   1.106  0.0181 -0.0305  0.1328
 6820W        W24344  15.790   1.524  12.927  0.0899 -0.1459  0.0315
 6821W        W24345  12.513  13.209   1.686  0.0412 -0.1886 -0.1044
 6822W        W24346   7.762  11.369   1.517  0.1414  0.1764 -0.3417
 6823W        W24347   0.063   3.035   1.868  0.0038  0.1460  0.1119
 6824W        W24348  11.117  16.174   4.219 -0.1814  0.3594 -0.0457
 6825W        W24349   2.039  12.472   2.224  0.0405 -0.0511 -0.1379
 6826W        W24350   2.643   7.608   5.074 -0.0356 -0.0711 -0.3444
 6827W        W24351   1.160   4.309   1.173 -0.0674 -0.0343 -0.5400
 6828W        W24352   6.865  13.972   1.361  0.1280 -0.1918  0.2014
 6829W        W24353   8.535   0.705  15.804 -0.2153 -0.0083  0.0958
 6830W        W24354   7.015  12.098  15.779  0.0297  0.2552  0.0174
 6831W        W24355   3.622  13.202   4.139  0.1484  0.0707  0.0370
 6832W        W24356   0.767  16.208  12.977 -0.0117  0.0833  0.0063
 6833W        W24357   1.108  16.007  16.200  0.1851 -0.0902 -0.1211
 6834W        W24358   8.272   4.263   3.475 -0.2073 -0.0082 -0.1196
 6835W        W24359  17.012  17.928   2.671  0.2772  0.2900  0.2095
 6836W        W24360   2.600  13.878  14.998  0.0509 -0.2507  0.2393
 6837W        W24361  16.450   3.979  15.762 -0.1799 -0.1296  0.0740
 6838W        W24362   4.253   5.382  14.286 -0.3225 -0.2117  0.0392
 6839W        W24363   6.061   2.948   3.019 -0.0415 -0.0128  0.3130
 6840W        W24364   9.835   4.031  13.623 -0.2593 -0.1488  0.0739
 6841W        W24365   7.249   3.739   2.683  0.0670 -0.0870  0.2739
 6842W        W24366   5.575   4.561   2.991  0.1413 -0.0097  0.0331
 6843W        W24367   0.995  16.453   0.172 -0.0288 -0.0294  0.0010
 6844W        W24368   9.063   2.417   1.354  0.0155  0.0756  0.0012
 6845W        W24369  12.433   8.490  16.133  0.0463 -0.0158  0.2478
 6846W        W24370  12.592   0.135  11.628  0.1530  0.1522  0.1591
 6847W        W24371   2.923  11.750   4.428 -0.2915 -0.1518  0.0702
 6848W        W24372  13.789   3.955  15.205 -0.0560  0.0587  0.0951
 6849W        W24373   1.860   2.215  13.068  0.1895 -0.2538 -0.1271
 6850W        W24374   5.958  17.816  15.999 -0.0623  0.0221  0.2410
 6851W        W24375   9.803   4.971  13.362 -0.3410  0.1140 -0.1462
 6852W        W24376  16.781   1.355   3.758 -0.1325 -0.2146 -0.0632
 6853W        W24377   6.923   9.784  11.857  0.0428 -0.0528  0.0036
 6854W        W24378  16.880  11.765   2.444  0.1803  0.1873 -0.2518
 6855W        W24379  11.014   2.886  11.170  0.1329 -0.0444  0.0331
 6856W        W24380  15.021  12.792  13.316 -0.2044  0.4685  0.0411
 6857W        W24381   6.979  12.247   5.167  0.1999  0.1671 -0.0188
 6858W        W24382   0.049  17.601  13.325 -0.0101  0.0246  0.1284
 6859W        W24383  13.876  15.468  12.353  0.2107  0.3453 -0.0111
 6860W        W24384   8.201   7.882  13.751  0.1665 -0.1355  0.0253
 6861W        W24385  13.658   9.020   3.052 -0.1897 -0.3819  0.1985
 6862W        W24386   1.585  14.517   4.998  0.4191 -0.0126 -0.2098
 6863W        W24387   3.044  14.654   5.929 -0.2874 -0.0413 -0.0778
 6864W        W24388  16.643   8.142  15.290  0.1307  0.1163  0.1048
 6865W        W24389   2.792   7.214  13.351  0.1626 -0.1394  0.2022
 6866W        W24390   7.929   4.609   3.764  0.2500 -0.0226 -0.0390
 6867W        W24391   6.593   5.742  13.546  0.1586 -0.0123  0.2997
 6868W        W24392   0.748   5.914  15.323  0.0903 -0.1440 -0.1477
 6869W        W24393   1.600   6.770  14.493  0.0548  0.0479 -0.0264
 6870W        W24394   6.791   5.157  12.354 -0.1505 -0.0761 -0.0816
 6871W        W24395   8.813   5.295   3.229  0.0815 -0.1625 -0.1287
 6872W        W24396   0.660  17.549   5.734 -0.2530  0.3155 -0.0625
 6873W        W24397   8.720   2.026   1.601 -0.2442  0.3319 -0.2513
 6874W        W24398  17.822   9.875  14.353  0.2353  0.0417  0.0611
 6875W        W24399   9.313   3.580  12.040  0.1593  0.2219  0.0230
 6876W        W24400   0.643   6.765   1.523 -0.2441 -0.2366 -0.0440
 6877W        W24401  12.780  14.432  13.074 -0.4049 -0.1076 -0.1694
 6878W        W24402   8.231   4.098  15.487  0.0874  0.0524  0.1484
 6879W        W24403   1.210  10.418   4.901 -0.0205  0.2729 -0.0177
 6880W        W24404   4.154  16.911  11.753 -0.1066 -0.1379 -0.2234
 6881W        W24405  15.310   0.534   0.281 -0.1575 -0.0838  0.3073
 6882W        W24406   4.327   0.180  13.710  0.0708  0.0861 -0.1416
 6883W        W24407  15.062   1.489   4.648 -0.2456  0.0211  0.3448
 6884W        W24408   4.847  15.343  14.470 -0.1272  0.0261 -0.3180
 6885W        W24409   5.165   6.051  12.087 -0.2809 -0.2697 -0.0044
 6886W        W24410  14.775  11.568  12.600 -0.0685 -0.2220 -0.0029
 6887W        W24411   2.266   7.459  14.879 -0.0524  0.0167  0.0067
 6888W        W24412  14.839   6.058   1.351  0.0044 -0.1672  0.1624
 6889W        W24413  16.691  16.225   2.232  0.3515  0.0961 -0.0139
 6890W        W24414   9.340   3.621   2.368 -0.1141  0.1809 -0.1773
 6891W        W24415  10.996   7.467   4.391 -0.0733  0.0270 -0.1761
 6892W        W24416  15.168  13.035  11.441 -0.4184 -0.4328 -0.0945
 6893W        W24417   8.608   7.953   1.013 -0.0207 -0.1269  0.1844
 6894W        W24418   8.746   5.820   3.980 -0.0418 -0.1670 -0.2342
 6895W        W24419   3.124   3.498  12.969  0.0986  0.0375 -0.0113
 6896W        W24420   0.788  10.281   2.389  0.1705 -0.0465 -0.1878
 6897W        W24421   6.593  17.720  12.851 -0.0596 -0.3249  0.3440
 6898W        W24422   5.044   9.035   0.307 -0.1666  0.0179 -0.0651
 6899W        W24423   8.307   4.349  12.668  0.0930 -0.0083 -0.0313
 6900W        W24424  13.737  11.123  11.587 -0.2366 -0.0887  0.0922
 6901W        W24425  13.700  14.144   2.598  0.1250 -0.0062  0.0918
 6902W        W24426   1.438   4.795  13.475  0.1847 -0.3986  0.1011
 6903W        W24427   6.778   3.442   2.898  0.0415 -0.1177 -0.1636
 6904W        W24428   2.205   7.209  16.237 -0.1692  0.0729  0.1472
 6905W        W24429  16.082  12.071   0.006 -0.2838 -0.0397 -0.2073
 6906W        W24430   8.026   6.314  13.692 -0.0629 -0.1572  0.0056
 6907W        W24431   1.439   4.419  15.589  0.0904 -0.0368  0.0780
 6908W        W24432   0.881   2.509  12.282  0.0792 -0.1471 -0.1586
 6909W        W24433  10.186   3.029   2.865  0.3051  0.2625  0.0498
 6910W        W24434  13.984  15.955  16.073 -0.0472 -0.2236  0.2347
 6911W        W24435   9.849   6.196  12.255  0.1985  0.0557 -0.1560
 6912W        W24436  15.735  15.763   1.561  0.0865 -0.0576 -0.0464
 6913W        W24437  12.952  14.447   3.155  0.3221  0.2219 -0.2248
 6914W        W24438   3.077  10.343   2.824  0.1204  0.0457  0.2142
 6915W        W24439   5.186   8.348  16.213  0.0656  0.1014 -0.1361
 6916W        W24440   3.886   0.919  14.101  0.1569 -0.2342  0.0133
 6917W        W24441  10.206   3.200   5.353  0.0019  0.3324 -0.3132
 6918W        W24442   6.677  11.284   2.635 -0.0215  0.0005  0.0811
 6919W        W24443  11.091  13.482  11.463  0.1540 -0.1403  0.2084
 6920W        W24444  10.306   1.776   3.932 -0.1637  0.0457 -0.0978
 6921W        W24445   1.629   6.816   3.983 -0.2949 -0.1020  0.1953
 6922W        W24446   3.658  13.259   3.310 -0.1134  0.1099 -0.0055
 6923W        W24447   9.906   5.824  15.114 -0.0209  0.2467  0.1585
 6924W        W24448   0.583   6.672   2.351  0.0189 -0.2169  0.0277
 6925W        W24449  13.660   2.185  13.112 -0.0149 -0.0579 -0.0438
 6926W        W24450  12.584  11.710   0.071  0.0066  0.2658  0.3041
 6927W        W24451  13.790  11.345   1.264 -0.1601  0.1984  0.2319
 6928W        W24452  17.463  11.954   1.649  0.2503 -0.1000 -0.1168
 6929W        W24453  11.494   3.615   4.009  0.1477 -0.2569 -0.0779
 6930W        W24454   6.790  13.867   2.510  0.3913 -0.0122  0.0777
 6931W        W24455   1.392   5.150   4.470  0.0723  0.0794 -0.1010
 6932W        W24456   3.038   5.653   0.228  0.0813 -0.2642 -0.1251
 6933W        W24457   5.323   7.796  13.858  0.3731  0.1299 -0.0969
 6934W        W24458  11.291   6.839  13.659  0.0059 -0.0377  0.0265
 6935W        W24459   6.116   4.583  15.256  0.0665  0.2418  0.2290
 6936W        W24460  14.951   1.743  10.581  0.1800 -0.0544  0.0033
 6937W        W24461   7.027   7.134  11.699 -0.1937  0.2642  0.1972
 6938W        W24462  15.374  17.649  14.732 -0.0574  0.1997  0.4871
 6939W        W24463  16.928   2.624  15.282  0.0326  0.0044  0.1972
 6940W        W24464   4.555  17.665  14.057  0.0171 -0.1131 -0.2874
 6941W        W24465   1.205   9.887   1.817 -0.1706 -0.1697 -0.1544
 6942W        W24466   8.126   7.414  13.395 -0.1090 -0.1741  0.3817
 6943W        W24467  12.230   6.413  12.917 -0.0411 -0.0664  0.0101
 6944W        W24468   7.326   0.796  11.385  0.0305 -0.2293 -0.0733
 6945W        W24469  17.200   7.474  16.143  0.0353  0.1444 -0.1130
 6946W        W24470   9.834   6.788   2.811  0.1660 -0.0846 -0.2803
 6947W        W24471   0.836  13.469  14.230 -0.0660  0.4381  0.0556
 6948W        W24472  11.816  13.469   0.273 -0.2564 -0.0009  0.1845
 6949W        W24473   6.652  13.688   3.849 -0.0118  0.2011  0.0924
 6950W        W24474  11.841   9.614   2.242  0.1062  0.1553  0.1909
 6951W        W24475  11.240   9.890  12.721  0.2114  0.1165  0.1702
 6952W        W24476  17.465  14.380   0.440  0.0609 -0.0208 -0.1902
 6953W        W24477   4.097   0.816  10.948  0.0352 -0.0070  0.0169
 6954W        W24478   0.927  12.463  15.044  0.3484 -0.1525  0.0906
 6955W        W24479  13.070   1.934   0.119  0.0271  0.1303 -0.2884
 6956W        W24480   7.595  17.509  12.538  0.1037  0.0034 -0.3796
 6957W        W24481   4.628   6.226  12.268  0.0634  0.0569 -0.0558
 6958W        W24482  17.601   7.506  14.260 -0.0585 -0.2210 -0.0925
 6959W        W24483  17.656   0.609   1.511  0.0371 -0.2196 -0.0343
 6960W        W24484   8.319  12.864  13.953  0.0678  0.2332 -0.0168
 6961W        W24485   4.134  14.656  15.275 -0.0713  0.0674 -0.4698
 6962W        W24486  13.652  10.346   3.499  0.0031 -0.0077 -0.0215
 6963W        W24487   8.173   1.365  14.618  0.0715 -0.1066 -0.1181
 6964W        W24488   3.691   5.608   1.630 -0.2238 -0.3269 -0.2414
 6965W        W24489   5.381  10.853   4.295 -0.3972 -0.2340  0.1832
 6966W        W24490  17.715   9.610  12.428 -0.0155 -0.2017  0.3981
 6967W        W24491   8.692   5.776  12.198  0.0007  0.0003 -0.2434
 6968W        W24492   7.916  13.232  13.863 -0.3114 -0.0169  0.0328
 6969W        W24493   7.531  13.291   1.322 -0.1153 -0.0885 -0.2287
 6970W        W24494  16.636   3.123  15.192  0.0173  0.0083 -0.0873
 6971W        W24495   3.672   1.970  12.002  0.1975 -0.1660 -0.0430
 6972W        W24496   5.147  11.363  12.221 -0.1258 -0.2972 -0.0433
 6973W        W24497   3.027   8.244  14.135  0.1457 -0.1019  0.2614
 6974W        W24498  17.416   9.948   4.902  0.0601  0.0001 -0.0366
 6975W        W24499   2.524  15.930   2.897  0.1177  0.0766 -0.1493
 6976W        W24500   2.523   3.333   3.363 -0.1208  0.1775 -0.1559
 6977W        W24501  10.447   7.171   0.152 -0.3141  0.0907  0.0541
 6978W        W24502   5.379  12.232   0.834 -0.1793 -0.2168  0.0789
 6979W        W24503  10.453   9.554   4.755 -0.0383  0.2677 -0.0035
 6980W        W24504  11.411   6.806  12.276  0.0455 -0.0871 -0.0145
 6981W        W24505  10.198  10.009   1.784 -0.1902 -0.4069  0.0200
 6982W        W24506  17.004  14.481   0.516 -0.1629 -0.1617 -0.0535
 6983W        W24507  14.370   5.960  15.899  0.0158 -0.2378  0.2113
 6984W        W24508   3.936  13.136   3.777 -0.0866  0.0513 -0.2090
 6985W        W24509   5.926  10.719   0.300  0.2056 -0.1287  0.0252
 6986W        W24510  14.425  16.192   1.094  0.1863 -0.1759  0.0513
 6987W        W24511   0.612   5.747  11.680  0.0084 -0.1568  0.0733
 6988W        W24512  17.797  11.303  15.285  0.1749 -0.1743 -0.1378
 6989W        W24513   8.888  15.442  16.118 -0.3276 -0.1083  0.0698
 6990W        W24514   9.474   7.632   5.038 -0.2967 -0.1596  0.1708
 6991W        W24515   6.330  15.259  12.951  0.1252 -0.2274  0.0064
 6992W        W24516   0.894   6.503   3.289 -0.2042  0.1483 -0.2058
 6993W        W24517  17.654  10.236  14.905 -0.3168  0.1047  0.2175
 6994W        W24518  14.685  17.796   1.751 -0.0025 -0.2302 -0.0209
 6995W        W24519  17.888   5.251   3.213  0.1517 -0.0569 -0.0918
 6996W        W24520   7.628   2.753   4.505 -0.3843 -0.0876 -0.0599
 6997W        W24521  16.418   7.079   5.939 -0.0928 -0.1676  0.0921
 6998W        W24522   0.957   1.604  15.085  0.1502  0.0092 -0.0500
 6999W        W24523  14.766  17.634   0.507 -0.0679 -0.2667 -0.0407
 7000W        W24524   0.746   7.656  13.100  0.0225 -0.3500  0.3404
 7001W        W24525   6.760  14.198   5.169 -0.0703  0.0742 -0.0393
 7002W        W24526  17.022  14.857  11.121 -0.0083  0.1061 -0.0821
 7003W        W24527  14.812   0.510  15.917  0.0906 -0.1388  0.2818
 7004W        W24528  11.221  10.466   0.783  0.0819 -0.1323  0.1758
 7005W        W24529  12.705   1.324   0.288 -0.0236  0.1172 -0.1488
 7006W        W24530  17.479   5.784  12.197  0.3453 -0.1616  0.2240
 7007W        W24531   0.896   6.987  12.215 -0.2365  0.2430  0.0282
 7008W        W24532   9.043   6.134  12.145 -0.0193 -0.0943 -0.0036
 7009W        W24533   5.321   3.257  16.134 -0.2719 -0.1878 -0.1538
 7010W        W24534   4.174  13.849   1.231 -0.2833  0.0680  0.3199
 7011W        W24535   9.039  14.541   4.429  0.0589  0.0740  0.0971
 7012W        W24536   4.552  15.757  13.133 -0.2994  0.1720  0.1250
 7013W        W24537   5.159  12.090  15.655 -0.0373  0.1872 -0.2397
 7014W        W24538  13.447   7.000   3.356  0.2439  0.0926  0.4132
 7015W        W24539   9.689   1.808  14.230 -0.2732  0.0308 -0.0609
 7016W        W24540   2.735  14.099   3.843  0.0810 -0.2860  0.2483
 7017W        W24541   2.873  15.198  15.739  0.0971  0.0333  0.3970
 7018W        W24542   5.038   2.474   5.340  0.0516  0.3333  0.3978
 7019W        W24543   8.877   0.068   3.049 -0.0640  0.1594  0.0161
 7020W        W24544   8.792   4.605   5.022  0.0987  0.1128 -0.2052
 7021W        W24545   3.605  15.941  14.671  0.0233 -0.1406 -0.0817
 7022W        W24546  15.449   5.278   2.423  0.2152  0.1960 -0.0194
 7023W        W24547   7.147   5.783  15.912  0.1245  0.1443  0.1398
 7024W        W24548   1.331   2.305  12.154  0.2310  0.1298  0.0232
 7025W        W24549  12.230   0.269   3.847  0.0213  0.1140  0.1092
 7026W        W24550  11.109  16.420   4.653 -0.0569  0.0704  0.1821
 7027W        W24551  15.345   5.627  11.975  0.1367  0.2194  0.0270
 7028W        W24552   4.384   4.972   0.578 -0.0956 -0.2635  0.2498
 7029W        W24553  12.063   5.405   0.906 -0.0181 -0.0244 -0.1989
 7030W        W24554  11.287  11.613   1.248 -0.1365  0.0910  0.1586
 7031W        W24555   5.229  17.296  14.732 -0.1005  0.1571  0.0869
 7032W        W24556   7.763   5.917  11.258  0.2791  0.2035  0.2162
 7033W        W24557   0.982  14.937  13.786  0.2746  0.0204 -0.1734
 7034W        W24558  10.663  11.237  15.663 -0.0443  0.1504  0.0197
 7035W        W24559   6.719   3.848   2.618  0.2324  0.3804  0.1029
 7036W        W24560  13.361  10.108  14.080 -0.0232 -0.1594 -0.0457
 7037W        W24561   6.855  17.499  13.290  0.1827 -0.1257 -0.0135
 7038W        W24562   3.473   2.430  15.884 -0.0546 -0.0708 -0.0337
 7039W        W24563   1.376  11.101   0.406  0.2880  0.0742 -0.1148
 7040W        W24564  15.394   3.386  12.344  0.0745  0.0525 -0.2000
 7041W        W24565   3.162   9.008  12.894 -0.2662  0.2248  0.4741
 7042W        W24566   2.250  15.146  11.719  0.1748  0.0920  0.1277
 7043W        W24567   7.950   5.016  12.477  0.0216 -0.0552 -0.0373
 7044W        W24568  14.835   7.956   3.520  0.1471 -0.1701  0.0661
 7045W        W24569  10.634  13.677  15.998  0.0262  0.0288  0.2136
 7046W        W24570  14.798  16.546   1.691 -0.0695 -0.1908 -0.0315
 7047W        W24571   3.097  13.215   4.190  0.1064 -0.2356  0.0613
 7048W        W24572  14.666  13.646  12.689  0.1116 -0.0267  0.1013
 7049W        W24573  13.406   7.156  15.631  0.2487 -0.2272 -0.0168
 7050W        W24574  13.075  14.311  13.896  0.0029  0.2704 -0.0306
 7051W        W24575  12.802  15.435  11.703  0.0526 -0.0138  0.1387
 7052W        W24576   4.029   8.004   3.833 -0.0979  0.0075  0.1653
 7053W        W24577   5.338  10.105   2.458 -0.1603 -0.2805  0.2518
 7054W        W24578  11.193   9.717   1.368 -0.0224 -0.2285 -0.0684
 7055W        W24579   3.935  13.228  15.845 -0.0245  0.0836  0.2386
 7056W        W24580  14.563   0.730   2.849  0.0520  0.0863  0.2013
 7057W        W24581   2.176   4.169  12.897  0.0269 -0.1354 -0.0184
 7058W        W24582   3.874   1.055   6.105  0.0225  0.1581  0.1095
 7059W        W24583   4.607  14.052   2.124  0.1873 -0.1733 -0.0024
 7060W        W24584  15.656   8.952   3.179 -0.1526  0.2105 -0.0278
 7061W        W24585   6.689   3.570  11.838  0.1628  0.0425 -0.0014
 7062W        W24586  15.887   4.576  15.104 -0.0266  0.1674  0.1311
 7063W        W24587   1.781   1.530   4.267  0.2134  0.3197 -0.0011
 7064W        W24588   5.206   0.486   5.830 -0.2965  0.0778  0.1558
 7065W        W24589   1.543  16.807  13.577  0.1328  0.0220  0.0731
 7066W        W24590  12.629  10.877   3.713 -0.0712  0.2925 -0.2484
 7067W        W24591   9.716  15.299   4.320 -0.2309 -0.2013  0.0766
 7068W        W24592   0.763  16.961  11.389  0.0340 -0.1126 -0.0526
 7069W        W24593  17.952   4.658   1.387  0.2648  0.1014  0.0087
 7070W        W24594   7.630   9.826  14.559 -0.1873  0.0525 -0.1566
 7071W        W24595   9.511  15.980  11.740 -0.0377  0.0410 -0.0079
 7072W        W24596   6.614   0.722   2.250  0.2373  0.1930  0.0800
 7073W        W24597   0.153   6.761  14.666  0.0877 -0.1216 -0.1986
 7074W        W24598  12.688   9.455  13.946 -0.0272 -0.0351 -0.0287
 7075W        W24599  13.197   8.171  14.486 -0.3901  0.2349  0.0136
 7076W        W24600   0.358   1.819  15.171  0.4180 -0.0606 -0.0101
 7077W        W24601   2.628   7.927  15.526 -0.0711 -0.0912 -0.1412
 7078W        W24602   4.811   3.359  12.777  0.2761 -0.2030  0.2078
 7079W        W24603  17.397   4.542   5.218  0.2391  0.1512  0.0273
 7080W        W24604  10.908   3.477  13.291 -0.2518 -0.1341 -0.0603
 7081W        W24605   9.967  14.602  12.534  0.0132 -0.0799  0.2048
 7082W        W24606   9.944   4.921   0.431 -0.0902 -0.1405 -0.1115
 7083W        W24607   9.912  16.450   2.826 -0.0497  0.1163  0.1527
 7084W        W24608  11.961   5.278   1.798  0.1033  0.0257 -0.0023
 7085W        W24609  12.463  17.760   4.631  0.0435 -0.2374  0.3178
 7086W        W24610   6.819   8.019  14.447 -0.0683  0.1732 -0.1214
 7087W        W24611   5.456   9.849  13.130 -0.1135 -0.2388 -0.4378
 7088W        W24612  14.401   0.365   3.190  0.2031  0.0311 -0.0976
 7089W        W24613  10.311  13.327  13.333 -0.2295  0.0495  0.2509
 7090W        W24614   7.573   7.357  15.532  0.1367 -0.1939  0.3802
 7091W        W24615  13.659   9.020  14.807 -0.0082  0.0704  0.0530
 7092W        W24616  11.322  10.760  12.348  0.3224  0.1497  0.2224
 7093W        W24617   7.653  16.161   5.301 -0.0955 -0.0528 -0.0264
 7094W        W24618   9.992  16.900  13.372 -0.2049  0.1029  0.3208
 7095W        W24619  16.466   8.527   5.103  0.2876 -0.0246  0.1826
 7096W        W24620  16.507   0.345   4.072  0.2551 -0.0610 -0.3792
 7097W        W24621  12.589   4.722  15.693  0.1084  0.0396 -0.1245
 7098W        W24622  16.870   1.281   5.872 -0.0898 -0.2567  0.2842
 7099W        W24623  11.128  15.452   2.642 -0.0605  0.2107  0.1846
 7100W        W24624  14.064   4.597   1.359  0.1743 -0.2268  0.5078
 7101W        W24625   1.601   9.914   0.671 -0.1140  0.0595  0.3998
 7102W        W24626   1.666  11.355  11.462 -0.2326 -0.3511  0.1298
 7103W        W24627   6.959  13.465  13.928 -0.0327  0.1055  0.0585
 7104W        W24628  17.025   8.157  12.741  0.3034 -0.0129  0.0565
 7105W        W24629   6.002  14.456  12.587  0.2813 -0.0663  0.1269
 7106W        W24630   6.039   2.246  16.247 -0.3811 -0.0622 -0.2713
 7107W        W24631   6.756  17.712   4.036 -0.0645  0.0614 -0.1489
 7108W        W24632   2.521   0.940   0.176  0.0356  0.1097  0.1256
 7109W        W24633   5.900  12.554   1.775 -0.4575  0.0615  0.2349
 7110W        W24634   7.614   0.585  13.504 -0.0555 -0.1557 -0.1482
 7111W        W24635   4.384  15.107  14.433 -0.0684 -0.2350  0.1309
 7112W        W24636  10.644   1.812   2.482 -0.0976 -0.0791 -0.0313
 7113W        W24637   3.187   8.897   0.941  0.2361 -0.0363 -0.1478
 7114W        W24638  11.808   5.002  13.211 -0.0520  0.0798  0.0702
 7115W        W24639   5.823   3.730   2.396  0.2977  0.2346  0.1481
 7116W        W24640   6.270  10.675  14.164 -0.1470 -0.3071 -0.2327
 7117W        W24641  17.570   4.790   3.113 -0.3129  0.0950  0.0452
 7118W        W24642  17.922  12.856  15.514 -0.0639  0.2877  0.1311
 7119W        W24643   2.243   8.451  15.278 -0.1902  0.0555 -0.2438
 7120W        W24644  11.201  16.549   3.930  0.2330 -0.2842  0.1071
 7121W        W24645  15.264  12.278   0.296  0.1919 -0.3477 -0.0720
 7122W        W24646  13.282  10.792  11.333  0.0396  0.0829  0.0029
 7123W        W24647   9.707  17.274   0.617 -0.0533 -0.1250 -0.2772
 7124W        W24648   5.599  14.792  15.692 -0.2495 -0.2804  0.2520
 7125W        W24649  14.900   9.647  12.056  0.1555  0.2824 -0.3310
 7126W        W24650  10.289   3.647  12.323 -0.4741  0.1455  0.0429
 7127W        W24651  12.845  10.198  10.982 -0.0061 -0.0461  0.0115
 7128W        W24652  16.236   2.301  14.598  0.2543  0.0132  0.0563
 7129W        W24653  14.362  16.033  11.351  0.0796  0.1673 -0.4860
 7130W        W24654  15.119   9.095  10.578  0.0120  0.1718  0.0337
 7131W        W24655  11.220   8.775  11.590 -0.0874 -0.0276  0.1936
 7132W        W24656   3.074  15.848   2.106  0.5690 -0.1987  0.0729
 7133W        W24657   1.923   9.412  16.018  0.2515 -0.1188  0.0800
 7134W        W24658  12.521   1.719   3.962 -0.0564  0.0740 -0.2722
 7135W        W24659  15.738   3.910  11.759  0.1737 -0.0518  0.0561
 7136W        W24660  11.058  16.426  11.751  0.1853 -0.2020  0.1347
 7137W        W24661   1.511   7.534   4.386  0.2644 -0.1404  0.0078
 7138W        W24662  17.155  15.266   0.286  0.2604  0.0767  0.1985
 7139W        W24663  14.923  14.222  12.311 -0.1045 -0.3969 -0.0284
 7140W        W24664  10.008  14.408   0.711 -0.0537 -0.1430  0.1273
 7141W        W24665  11.443   5.739   0.520  0.1171 -0.2300  0.1349
 7142W        W24666   0.402   6.684   3.258 -0.3648  0.4007 -0.1695
 7143W        W24667  16.476   6.605  13.185  0.2758 -0.1472 -0.0782
 7144W        W24668   5.573  14.673  14.756 -0.0562  0.0560 -0.2421
 7145W        W24669  14.893   0.417  12.555 -0.0355  0.2958  0.3963
 7146W        W24670  10.282   8.733  15.977 -0.3202 -0.1801  0.2890
 7147W        W24671   1.157   6.766   3.701 -0.0370  0.0700 -0.2456
 7148W        W24672  17.602  10.081  13.960  0.1552  0.0251  0.0309
 7149W        W24673   4.919  15.656  11.500 -0.1374  0.2946  0.1224
 7150W        W24674   2.237  15.630   0.652 -0.1063 -0.3069  0.0220
 7151W        W24675  11.903   6.392  15.550  0.1606 -0.1613 -0.0331
 7152W        W24676   0.602   0.579   3.911 -0.0214 -0.1225 -0.2205
 7153W        W24677   5.603   2.502  11.737 -0.1141 -0.0179  0.2488
 7154W        W24678  15.377   8.626  13.635  0.1557 -0.0574  0.1553
 7155W        W24679   0.434   8.419   4.101  0.0230 -0.2217  0.2983
 7156W        W24680  10.737  12.888   2.889  0.1390  0.2904 -0.0190
 7157W        W24681  17.235   9.127  11.756  0.0068  0.0079  0.0928
 7158W        W24682  13.218   6.000  15.553 -0.5689  0.1690  0.0888
 7159W        W24683  14.415  17.239   5.309 -0.0954  0.1567 -0.4259
 7160W        W24684  16.501  15.827   2.039 -0.0736  0.2240 -0.2082
 7161W        W24685   7.066  11.519   0.847  0.2784 -0.3526  0.0210
 7162W        W24686   2.750   9.123   2.153 -0.1297  0.0605  0.1039
 7163W        W24687  12.415  16.480   2.138 -0.0482  0.0470 -0.1309
 7164W        W24688   8.633  14.894   0.371  0.1646 -0.0719  0.3334
 7165W        W24689  11.958   4.939   0.603  0.0648  0.1631 -0.0658
 7166W        W24690   5.936   4.609   2.529  0.4556  0.0905 -0.1888
 7167W        W24691   7.495   5.061   3.098  0.0332  0.1272 -0.3635
 7168W        W24692   4.677   4.392  15.017 -0.0767  0.2764  0.0588
 7169W        W24693  16.834  15.113  13.236 -0.0220 -0.2520  0.0478
 7170W        W24694  10.638   0.594   1.063  0.1254  0.1392 -0.1507
 7171W        W24695   8.149  10.964   2.271 -0.1885  0.2960 -0.0966
 7172W        W24696  17.244  11.835   0.554 -0.2161  0.1197 -0.2866
 7173W        W24697   3.186   8.502  13.030  0.4566 -0.0498 -0.0683
 7174W        W24698  16.396  12.814  16.091  0.0370 -0.4052 -0.1644
 7175W        W24699  13.230   2.459   3.672  0.1746 -0.0293 -0.0312
 7176W        W24700   9.157  10.027   2.748  0.2921  0.1126 -0.1227
 7177W        W24701   7.693   3.660  15.932  0.3487  0.2798  0.0165
 7178W        W24702  17.825   9.919  13.430  0.2280 -0.1458 -0.4637
 7179W        W24703   5.258  13.233  14.636  0.1534  0.0079  0.0381
 7180W        W24704   2.436  16.107  14.904 -0.1657  0.0346  0.0067
 7181W        W24705   3.552   3.777  14.610 -0.0245  0.0247  0.0332
 7182W        W24706   1.581   7.788  15.554 -0.0416 -0.2384 -0.1581
 7183W        W24707   0.302  14.739  11.072 -0.1562 -0.1604 -0.0105
 7184W        W24708  10.580   2.571   2.463 -0.2094  0.0967  0.1457
 7185W        W24709  10.033   7.569  11.393  0.0107  0.3125  0.1915
 7186W        W24710   0.574   4.304  15.386  0.1223 -0.0080 -0.0434
 7187W        W24711   1.940  14.209  15.326  0.0063  0.1169  0.2064
 7188W        W24712   7.735   3.952  15.465  0.2658 -0.1582 -0.0324
 7189W        W24713  11.593  17.440   2.998 -0.0260 -0.2394  0.2293
 7190W        W24714   7.518   7.578  14.308  0.1494  0.1211 -0.3824
 7191W        W24715   0.110  15.582  14.083  0.1434  0.0020  0.1970
 7192W        W24716  10.740   5.080  12.678 -0.5351  0.0283  0.1381
 7193W        W24717  17.076  16.143   3.936 -0.2137  0.1837 -0.2191
 7194W        W24718  16.093  10.933   5.320  0.0192  0.0572 -0.1075
 7195W        W24719  13.613  11.098   0.825 -0.1666  0.2229 -0.1720
 7196W        W24720   8.780  11.021   3.326 -0.1437 -0.1055 -0.0472
 7197W        W24721   7.582  15.606  11.784 -0.2813  0.1540  0.1097
 7198W        W24722  15.737  16.954   4.556 -0.2778 -0.3527  0.1569
 7199W        W24723   1.678  17.878   5.572 -0.5497 -0.1029 -0.0824
 7200W        W24724  13.387  10.504  15.673  0.1006 -0.0032 -0.1245
 7201W        W24725   2.131   9.370   0.237  0.2063 -0.0719  0.0570
 7202W        W24726  10.523   5.818  11.805 -0.0076 -0.1675 -0.1137
 7203W        W24727   6.233   9.682  15.262  0.1925  0.1300 -0.2174
 7204W        W24728   6.619  11.356   1.060  0.0012  0.0460  0.1162
 7205W        W24729   8.662   1.097  11.412  0.0608  0.0490 -0.1199
 7206W        W24730  16.325  10.981   4.067 -0.1451  0.1489 -0.5036
 7207W        W24731   3.727   8.513   0.440  0.0791 -0.2121 -0.1955
 7208W        W24732   8.046  17.564   3.153  0.1860 -0.0366 -0.1552
 7209W        W24733   6.768  10.811   2.478  0.0932 -0.1560 -0.2234
 7210W        W24734   1.608   6.015  14.154  0.1537 -0.0566  0.0937
 7211W        W24735   4.829   2.486   1.770  0.0469  0.0605 -0.0912
 7212W        W24736   5.677   4.131   0.063 -0.0568 -0.2195  0.0713
 7213W        W24737   3.967  15.239  10.544  0.4310  0.0086 -0.2055
 7214W        W24738   1.969   7.910   3.138  0.1281 -0.0427  0.0260
 7215W        W24739   7.395  17.057   1.636  0.1182 -0.1459  0.2794
 7216W        W24740   4.214  10.595  12.403 -0.1463  0.0628 -0.0017
 7217W        W24741   3.806  10.136   1.054  0.1552 -0.0643 -0.0456
 7218W        W24742   1.191   1.103   1.978  0.2113  0.1702  0.1027
 7219W        W24743  14.093  10.873   3.390 -0.0044 -0.0521 -0.1915
 7220W        W24744   4.886   7.648  14.987 -0.1627  0.2576  0.0152
 7221W        W24745   6.306   5.407   1.839  0.0133  0.1880 -0.4173
 7222W        W24746   4.952  13.193  13.632  0.0258  0.0676 -0.0006
 7223W        W24747   2.831  17.757   4.471 -0.2887  0.3504  0.0018
 7224W        W24748   8.316  14.396   3.065  0.2466 -0.3546 -0.3006
 7225W        W24749  17.944   5.895  14.870  0.2091  0.2261 -0.0623
 7226W        W24750  12.398  15.627   1.659  0.1589  0.1730  0.0459
 7227W        W24751   8.650   1.447  10.417 -0.0032 -0.0985  0.2015
 7228W        W24752   2.522  12.670  14.333  0.1775 -0.0665 -0.1622
 7229W        W24753  16.852  10.584  15.943  0.0575  0.1572 -0.2098
 7230W        W24754  13.282   6.246  11.575  0.0505  0.0527  0.1413
 7231W        W24755  17.606   1.382  11.199 -0.0108 -0.1109  0.0052
 7232W        W24756  14.096  15.822   4.809  0.2039 -0.4618  0.0751
 7233W        W24757   0.910  13.262   4.778  0.0409  0.2632 -0.1688
 7234W        W24758   5.558  10.764   5.162 -0.2848  0.0880  0.1674
 7235W        W24759   2.443   0.953   1.252  0.1618 -0.0954  0.2146
 7236W        W24760   0.086  12.616  13.624  0.0647 -0.1180  0.0821
 7237W        W24761  12.278  11.280  14.707 -0.0357  0.1304  0.0710
 7238W        W24762  11.031   7.737   3.562  0.1797 -0.0838  0.2185
 7239W        W24763  13.407   3.981  13.776  0.2644 -0.1903  0.2786
 7240W        W24764   2.031   9.466  12.265 -0.1143  0.0338  0.1174
 7241W        W24765  11.909  13.714  15.566  0.0648 -0.0358  0.1060
 7242W        W24766   1.784  14.877   0.730  0.0731  0.1080  0.1218
 7243W        W24767  10.769   0.432  15.866 -0.1788  0.0262 -0.2890
 7244W        W24768  15.508   6.538   1.793  0.1109 -0.1419 -0.1886
 7245W        W24769  11.803   3.339   0.253  0.1322 -0.1654 -0.0164
 7246W        W24770  10.343   1.465   0.665  0.3501 -0.2129 -0.1072
 7247W        W24771  13.311  10.176  11.888 -0.0025  0.1801 -0.0310
 7248W        W24772  15.295  10.221   1.100 -0.1046 -0.1070  0.0846
 7249W        W24773   0.144  16.976  12.701 -0.0593 -0.1891 -0.0880
 7250W        W24774  16.298   3.949  12.957 -0.2955 -0.1434 -0.1003
 7251W        W24775  12.212  16.053  15.230 -0.1598  0.0426  0.0744
 7252W        W24776   6.679   7.987   3.140 -0.1167 -0.1534 -0.0365
 7253W        W24777   7.855  17.121  12.854 -0.0366 -0.1447 -0.0267
 7254W        W24778  15.502   1.400   0.161 -0.2330 -0.1027  0.2191
 7255W        W24779  13.922  13.493  14.141  0.0850  0.0138 -0.0154
 7256W        W24780  11.286   1.328   3.608  0.0484  0.0600  0.0958
 7257W        W24781  17.761   4.080   3.901  0.0169 -0.2044 -0.0480
 7258W        W24782  11.027   1.354   3.111  0.1287 -0.0411  0.2052
 7259W        W24783   1.126   9.379  14.007 -0.1030 -0.0187 -0.3311
 7260W        W24784   3.290  17.852  16.109 -0.3722 -0.0123  0.0265
 7261W        W24785  16.824   0.920  13.171 -0.1644  0.0716  0.1582
 7262W        W24786  17.206   8.825   4.692 -0.1292  0.0739 -0.2643
 7263W        W24787  15.781  13.411  11.184 -0.0277 -0.1483 -0.0304
 7264W        W24788  15.121  10.662   1.731  0.0896 -0.2544  0.0301
 7265W        W24789   8.562  12.625   2.534 -0.0135 -0.1944 -0.1001
 7266W        W24790  15.736  13.922  14.052 -0.1036  0.0002 -0.4200
 7267W        W24791  17.007  16.554  12.029  0.1308 -0.0938 -0.2057
 7268W        W24792  16.569   5.733   5.184 -0.1439  0.2909 -0.0483
 7269W        W24793  13.463   6.114  14.233 -0.0033  0.1427 -0.1933
 7270W        W24794   7.556  11.001  13.866  0.0822  0.0057 -0.2032
 7271W        W24795   9.423   2.338  16.193  0.0445  0.2572 -0.1760
 7272W        W24796   2.141   5.547   3.324 -0.0528 -0.3788 -0.1427
 7273W        W24797   5.770  17.961   0.626 -0.0208  0.0904 -0.3154
 7274W        W24798   3.033   1.531  12.314 -0.0149  0.0157  0.2069
 7275W        W24799  14.139  13.041  15.022 -0.1223 -0.1842 -0.3735
 7276W        W24800   3.546   5.281   1.944 -0.1274  0.1227 -0.2756
 7277W        W24801   3.966   6.409   4.067  0.0438  0.0468 -0.1296
 7278W        W24802   6.508  12.039  15.671  0.0702  0.1446  0.0048
 7279W        W24803  14.888   8.729   1.746  0.4192  0.0430  0.0332
 7280W        W24804   9.926   1.242   1.587 -0.0342 -0.0314  0.0174
 7281W        W24805   0.399   6.513   6.115  0.0116  0.0666 -0.0603
 7282W        W24806  17.454   7.060   0.007 -0.0886  0.1628  0.0290
 7283W        W24807   9.793  15.360   3.196  0.0519 -0.0117 -0.0225
 7284W        W24808  12.257   8.398   2.656 -0.2510 -0.2140  0.0974
 7285W        W24809   7.281   2.184   1.419  0.0271  0.0570  0.1513
 7286W        W24810  11.210   9.768   3.457 -0.0779 -0.0550 -0.0033
 7287W        W24811   4.235  11.937  16.100  0.0595 -0.0602 -0.0583
 7288W        W24812  16.996   3.086  13.786  0.1390  0.0683 -0.0685
 7289W        W24813  17.235  16.534   1.422 -0.0008  0.0839 -0.1241
 7290W        W24814   1.554  13.448  11.709 -0.1070  0.1479  0.0050
 7291W        W24815  11.748   5.284   1.318 -0.0184 -0.0363  0.0273
 7292W        W24816  17.650   2.815  11.515  0.0423 -0.0714  0.1254
 7293W        W24817  11.743  12.888   4.096  0.3951 -0.0928 -0.1696
 7294W        W24818  11.293   2.232  14.664 -0.0880 -0.1268  0.0361
 7295W        W24819   0.864  13.791  15.334  0.0801 -0.0679 -0.0107
 7296W        W24820   6.803   5.693  12.859  0.3261  0.0277  0.2077
 7297W        W24821   8.965   4.343  14.253 -0.1475 -0.1530  0.0879
 7298W        W24822   2.828  15.837   3.321 -0.0944 -0.2361 -0.1754
 7299W        W24823  15.338   3.949   3.264 -0.0331 -0.0306 -0.2055
 7300W        W24824  13.839   8.787  11.490 -0.0574  0.5110  0.0913
 7301W        W24825  12.671  16.341   1.290 -0.1466 -0.2054 -0.5122
 7302W        W24826  10.900   2.738   3.895  0.1150  0.0395  0.2989
 7303W        W24827  17.794   1.036  11.527 -0.2104 -0.1000 -0.1228
 7304W        W24828  15.754   7.452   5.022 -0.0313  0.2978  0.2390
 7305W        W24829   0.492   4.889   0.949  0.0936 -0.0306 -0.3740
 7306W        W24830  15.902  13.808   0.386 -0.0225  0.1788  0.1079
 7307W        W24831   2.771   4.656   4.154  0.0161  0.0147 -0.2384
 7308W        W24832   5.111  16.401  12.048 -0.2130  0.1922  0.0145
 7309W        W24833   5.965   5.417  11.280 -0.2234 -0.0816  0.3343
 7310W        W24834  10.542   7.267   4.212 -0.0775 -0.1278  0.1360
 7311W        W24835  13.443   9.271   0.708  0.1573 -0.1039 -0.1732
 7312W        W24836   8.608  16.622   2.874 -0.0139 -0.0857  0.0780
 7313W        W24837   3.646  12.697   3.118  0.1805 -0.1020  0.1887
 7314W        W24838   4.463  13.618   0.321 -0.1059 -0.2866  0.0715
 7315W        W24839   1.529   4.866   2.326 -0.1863 -0.0966  0.0080
 7316W        W24840   0.069   1.305   4.326 -0.0070 -0.2233  0.1306
 7317W        W24841   6.782  10.196  13.757 -0.0759 -0.1307 -0.0490
 7318W        W24842   8.785   5.155  15.443  0.0863 -0.2103 -0.0206
 7319W        W24843  15.935   0.209  13.553 -0.1443  0.0225 -0.0094
 7320W        W24844  15.453  17.081  12.630  0.0366  0.2569 -0.0397
 7321W        W24845   4.399   1.196  10.812 -0.2858  0.1691 -0.2954
 7322W        W24846   4.218   3.191   5.098 -0.0178 -0.2425 -0.1512
 7323W        W24847   6.743   2.722   1.364  0.1639 -0.0377  0.0074
 7324W        W24848  14.620   9.614  13.259 -0.2129  0.0315 -0.0307
 7325W        W24849   8.236   3.069   6.005  0.1390 -0.3383 -0.1201
 7326W        W24850  17.582   1.544   1.038 -0.1058 -0.0155 -0.0342
 7327W        W24851   4.523   4.096   4.823 -0.4558  0.0779  0.2141
 7328W        W24852  16.627  15.435   0.869 -0.1591 -0.0602 -0.1741
 7329W        W24853   1.033   1.555  16.195 -0.0804 -0.1549  0.0014
 7330W        W24854   7.945  11.595   5.496 -0.1462 -0.0335  0.1249
 7331W        W24855   7.324   1.539   3.943  0.1634 -0.1206  0.0822
 7332W        W24856  14.275   8.282   2.722  0.0242  0.1196  0.0448
 7333W        W24857   2.452  16.704  13.675  0.1139 -0.1017  0.1339
 7334W        W24858  12.112   3.428  13.142 -0.0229 -0.1180  0.1417
 7335W        W24859   3.888   5.520  12.140 -0.0179 -0.2239  0.0412
 7336W        W24860  11.365  13.416   4.013 -0.0932 -0.1198 -0.2459
 7337W        W24861  15.494  13.976   5.592 -0.1319 -0.1320  0.1790
 7338W        W24862   4.712   3.134   4.922 -0.2566  0.0519  0.0536
 7339W        W24863   2.610  14.148   2.875  0.0416  0.2666 -0.0253
 7340W        W24864  10.985   4.376  15.153 -0.2930 -0.4104 -0.2504
 7341W        W24865   4.631  17.287   3.625  0.1184 -0.1542  0.0083
 7342W        W24866  15.513   0.302   2.986  0.0817 -0.0322  0.3340
 7343W        W24867   6.988  10.955   3.777 -0.1501  0.0794 -0.1792
 7344W        W24868   8.704   3.102  15.275 -0.1708  0.1934  0.2889
 7345W        W24869  10.014  12.479   2.726 -0.0737 -0.0505 -0.0992
 7346W        W24870  12.783   5.340  12.361  0.0049  0.0286 -0.1305
 7347W        W24871   8.875   6.051   1.904 -0.1480 -0.0625 -0.0194
 7348W        W24872   9.901   6.232  12.758  0.2297 -0.0482 -0.0155
 7349W        W24873  16.684   4.713   5.030 -0.3162  0.2477  0.0688
 7350W        W24874   1.419   8.712  15.233  0.2403  0.0382  0.4056
 7351W        W24875  12.007   3.166   2.851  0.3843  0.0463  0.0704
 7352W        W24876   3.504  15.376   3.114  0.1903  0.0979 -0.0442
 7353W        W24877   0.893   8.749  16.006 -0.1824  0.0637 -0.2881
 7354W        W24878   4.891   0.564  16.218  0.1615 -0.1122 -0.0418
 7355W        W24879  10.944  15.261   4.629  0.0957 -0.1629 -0.0349
 7356W        W24880  12.495  15.508   0.210 -0.1456 -0.0694 -0.2153
 7357W        W24881  13.769   9.849   3.586  0.0466 -0.1279 -0.0453
 7358W        W24882  13.744   0.077  14.846 -0.0856 -0.3960 -0.0766
 7359W        W24883   5.759  13.285  13.616  0.3202 -0.2456  0.0021
 7360W        W24884   9.100  16.027   3.308 -0.1577  0.0358 -0.4251
 7361W        W24885   8.466  13.810  13.780  0.1570  0.0302  0.0134
 7362W        W24886   2.583  15.636   4.076  0.0943 -0.0440  0.2148
 7363W        W24887  12.205   9.618   3.542 -0.0754  0.1615  0.1123
 7364W        W24888  14.541   4.640  11.764  0.1580  0.0882 -0.0444
 7365W        W24889  14.965   8.314  13.644  0.1407  0.0763 -0.0582
 7366W        W24890  14.861  11.290   4.456 -0.3487 -0.0248  0.1893
 7367W        W24891   7.834  10.744  12.352 -0.0786 -0.1683 -0.0093
 7368W        W24892   7.327   2.896   2.316  0.1359 -0.0757 -0.3756
 7369W        W24893  11.704  11.944   4.310 -0.1523  0.0136  0.1621
 7370W        W24894   0.735  12.970  12.667  0.1067 -0.0514 -0.0291
 7371W        W24895   1.143  11.540   1.140 -0.0477  0.0349  0.1869
 7372W        W24896  12.099   5.130  10.589 -0.1356  0.2629 -0.0726
 7373W        W24897  10.796   2.539  11.991 -0.0276  0.0841 -0.2462
 7374W        W24898  13.164  10.771  13.566 -0.3392  0.2866  0.0939
 7375W        W24899   2.377   6.528  15.002 -0.0040 -0.0144 -0.1532
 7376W        W24900   9.194   1.957   1.840  0.1870  0.0641  0.2316
 7377W        W24901  12.956  17.838  12.913  0.0971 -0.0474  0.1145
 7378W        W24902   2.115  16.523  14.891 -0.2681 -0.4916 -0.0706
 7379W        W24903   5.424   6.484   2.253 -0.2656 -0.3346  0.0364
 7380W        W24904   4.904   5.521  12.013 -0.0090  0.0396  0.0463
 7381W        W24905  11.300  10.976   0.125  0.1672  0.0191  0.0523
 7382W        W24906   6.094  16.278  12.253 -0.1260  0.1989  0.2570
 7383W        W24907  17.367   9.500  16.016  0.1858 -0.2142  0.0715
 7384W        W24908   9.746  14.959   3.604 -0.1892 -0.0962 -0.0636
 7385W        W24909  12.233  15.854   2.493  0.1730  0.2180  0.1732
 7386W        W24910   9.858  17.356  13.221  0.0354  0.0057 -0.1666
 7387W        W24911   7.233  10.383  14.107 -0.2586 -0.1786  0.2095
 7388W        W24912  13.629   9.000  12.304 -0.0404  0.2538 -0.4242
 7389W        W24913   7.238   3.145  13.647  0.0364  0.2397  0.0276
 7390W        W24914  17.030   9.838   2.759  0.0161  0.0889  0.0258
 7391W        W24915  17.703  13.579  10.315  0.1366  0.1617  0.1057
 7392W        W24916  16.448   3.997  15.198  0.1203 -0.2984 -0.0678
 7393W        W24917  14.633   4.469   0.901 -0.0572  0.2250 -0.1358
 7394W        W24918   2.999   5.533  12.890  0.0850 -0.2518  0.0079
 7395W        W24919   0.903  16.030  15.313 -0.0063 -0.1508  0.1083
 7396W        W24920  14.796  15.739   1.976 -0.0190 -0.1412  0.1386
 7397W        W24921   2.049  13.482  12.873 -0.0622 -0.0178 -0.0450
 7398W        W24922  16.811   1.259   5.343 -0.0784  0.2728 -0.2140
 7399W        W24923  17.229   1.816   3.262 -0.0611  0.1114 -0.3025
 7400W        W24924   3.330  10.994   5.311 -0.1457 -0.0317  0.1628
 7401W        W24925   2.794  15.786  14.065 -0.2184 -0.1626  0.2228
 7402W        W24926   6.548   1.172   4.508 -0.3756  0.0142 -0.1824
 7403W        W24927  10.401  11.110   1.318 -0.0145  0.1608 -0.1250
 7404W        W24928   5.588   8.374   0.221 -0.0832  0.3220 -0.2059
 7405W        W24929   8.696  16.875  16.220  0.0056 -0.2957 -0.0007
 7406W        W24930  11.359   8.911   5.465  0.1313 -0.0537  0.0392
 7407W        W24931  12.147  16.507   3.907  0.0109  0.1109 -0.2830
 7408W        W24932   5.985  17.331   3.587  0.1053 -0.0257 -0.0291
 7409W        W24933  16.052   9.286   2.524  0.0871  0.2205 -0.0966
 7410W        W24934   8.589  16.383  16.217  0.2302  0.0903 -0.2422
 7411W        W24935   5.528   5.235   2.168 -0.2245  0.0736 -0.0162
 7412W        W24936  14.922  13.836   5.629  0.1786 -0.1986 -0.2922
 7413W        W24937   8.716  12.672   0.682  0.2587  0.0193 -0.0261
 7414W        W24938  11.775  12.852  13.616 -0.1556  0.0297 -0.0186
 7415W        W24939   2.467   8.820   5.481  0.1493 -0.0569 -0.1275
 7416W        W24940  13.163  11.625  12.294  0.2070 -0.1992  0.0833
 7417W        W24941  17.527  16.371  15.324  0.0884  0.2636  0.0039
 7418W        W24942   9.664   2.638  13.824 -0.2454 -0.0375 -0.1670
 7419W        W24943   2.198   0.614   5.494 -0.1465 -0.1084  0.1074
 7420W        W24944   8.797   4.581   2.082  0.0544  0.2320  0.1752
 7421W        W24945   7.458   2.213  12.953 -0.0733 -0.2098 -0.1333
 7422W        W24946   7.758  15.715   5.052  0.3012 -0.0572 -0.2198
 7423W        W24947   3.948  13.141   1.114 -0.1186 -0.0549 -0.0599
 7424W        W24948  10.668  14.779  10.351  0.1353 -0.3022  0.3743
 7425W        W24949   0.191   4.385  15.029 -0.0375  0.1584 -0.2363
 7426W        W24950  13.169  14.890   0.749 -0.1983  0.0806  0.2112
 7427W        W24951  13.758   6.539   0.952 -0.3471  0.1456 -0.3678
 7428W        W24952   8.118   2.519   4.493  0.1180  0.2796  0.2599
 7429W        W24953  10.041  13.183  12.446 -0.1991 -0.1259  0.1419
 7430W        W24954   8.996  12.001   1.193 -0.0382  0.0382  0.2143
 7431W        W24955  12.970   0.056  14.221  0.0013  0.0894 -0.1239
 7432W        W24956   3.286  15.864  16.061  0.0760 -0.1565 -0.2852
 7433W        W24957  13.723   7.322  14.795 -0.3065  0.2915  0.0386
 7434W        W24958   9.617  14.572   0.458  0.1007 -0.1678  0.0119
 7435W        W24959   7.877   1.395  13.040  0.1079 -0.3020 -0.0961
 7436W        W24960   6.512  16.807   4.948 -0.1302  0.1390  0.2412
 7437W        W24961  10.878   8.740  13.296 -0.1838  0.0959 -0.1861
 7438W        W24962  14.157   0.707   4.428  0.2906  0.1582 -0.0682
 7439W        W24963   2.428  16.426   0.063  0.1135  0.0184  0.0901
 7440W        W24964   1.266   1.898   1.339 -0.0963  0.2766 -0.3055
 7441W        W24965  17.355   1.913  11.556 -0.1966 -0.1870 -0.3042
 7442W        W24966  10.987   7.900   0.468  0.0351 -0.1783 -0.4875
 7443W        W24967   2.024   4.189   3.359  0.1079 -0.1354  0.0908
 7444W        W24968   6.011  16.673   2.156  0.0294 -0.1856 -0.0512
 7445W        W24969   6.843   9.883   1.434 -0.3492  0.0211 -0.1056
 7446W        W24970  12.518   6.149   0.660  0.1925  0.2744 -0.0931
 7447W        W24971  11.232   1.969  15.073  0.0836 -0.1564  0.1842
 7448W        W24972   6.134  13.746  12.898  0.0452 -0.0251 -0.1475
 7449W        W24973   3.731  14.238  12.962 -0.0171 -0.0458 -0.0891
 7450W        W24974  17.131  13.547   0.616 -0.0532 -0.0375 -0.0955
 7451W        W24975   9.702   8.589   4.014 -0.3260 -0.1213  0.1754
 7452W        W24976   7.435   5.722  13.166 -0.0839 -0.1438  0.2955
 7453W        W24977  17.635   0.462  14.394 -0.2642 -0.0456 -0.1100
 7454W        W24978   2.945  17.486  13.406  0.2604  0.3279  0.0888
 7455W        W24979  13.418  16.897   3.225 -0.3533 -0.0887  0.1986
 7456W        W24980  12.513  12.599  15.975 -0.1465 -0.0533  0.1980
 7457W        W24981   7.668  14.463   1.130 -0.2066  0.1943 -0.4399
 7458W        W24982  17.831   8.856  11.594 -0.3339  0.2071 -0.1208
 7459W        W24983  16.868   7.081   4.323 -0.0416 -0.2194 -0.2109
 7460W        W24984   5.699   6.793   1.460 -0.0584 -0.1865  0.0817
 7461W        W24985   3.346  14.307   3.384 -0.1900 -0.1144 -0.3411
 7462W        W24986   7.494  16.448  13.897 -0.1979  0.0634 -0.0110
 7463W        W24987  12.280   7.790  12.608 -0.2226  0.0214  0.0580
 7464W        W24988   3.156  13.107  15.990 -0.2200  0.2762  0.3984
 7465W        W24989   1.807   6.905   3.051  0.1345 -0.1214  0.2277
 7466W        W24990  11.501   6.201   1.281  0.1039 -0.4011 -0.5253
 7467W        W24991  15.913   7.912   4.867  0.2389  0.1828 -0.3599
 7468W        W24992  13.692   3.551  14.669  0.1191  0.2941  0.1206
 7469W        W24993   9.476   4.178  13.332  0.1578 -0.2190  0.0634
 7470W        W24994   0.317   7.748  15.255  0.2387 -0.1646  0.0715
 7471W        W24995  12.121   4.918  15.824  0.0072  0.0265 -0.0035
 7472W        W24996  14.873   2.579  15.642 -0.1386  0.0934  0.3988
 7473W        W24997  10.862   4.907  15.916 -0.0495 -0.0838  0.3436
 7474W        W24998   8.072  17.811   4.161 -0.1551 -0.0187 -0.2149
 7475W        W24999  15.988  15.540   0.271 -0.3001  0.0442  0.1867
 7476W        W25000   1.937   2.378   3.569  0.0396 -0.1021 -0.0662
 7477W        W25001  14.923  17.629   3.254 -0.1241  0.0187  0.0979
 7478W        W25002   1.923   0.211   1.177 -0.2606  0.2000 -0.1627
 7479W        W25003   4.212   3.853  16.117  0.3639 -0.0171  0.3661
 7480W        W25004   4.035  14.648   0.764  0.1830  0.4067  0.0285
 7481W        W25005  13.101   7.063   1.533 -0.1933 -0.1097 -0.1151
 7482W        W25006   5.482   4.711  15.266 -0.2147 -0.2080 -0.3531
 7483W        W25007  16.578   9.063   4.024  0.3061 -0.0577 -0.0364
 7484W        W25008   3.239   3.791   4.390 -0.1746 -0.0371  0.1748
 7485W        W25009   6.352   8.579   4.963  0.1184 -0.0570 -0.0907
 7486W        W25010   0.131   0.061  15.264 -0.2383  0.0016  0.1019
 7487W        W25011   8.205   6.487   0.400 -0.2034 -0.1224 -0.2141
 7488W        W25012  13.207   3.258  14.533 -0.2842  0.0524  0.2753
 7489W        W25013   5.213   8.855   1.495 -0.0980 -0.0167  0.0817
 7490W        W25014   5.246  15.120   3.348  0.0138 -0.0744  0.1862
 7491W        W25015   5.921   2.094   5.375 -0.0840  0.0179  0.2130
 7492W        W25016   3.192  17.845  13.671  0.0928  0.0666 -0.3008
 7493W        W25017   3.476  10.711   0.227 -0.0603  0.0431 -0.1828
 7494W        W25018   2.558  13.324  12.074 -0.2513  0.3426 -0.0850
 7495W        W25019  14.104   7.732   1.372 -0.1617  0.3616 -0.1145
 7496W        W25020  13.521   9.183  14.160 -0.0312 -0.1428  0.1338
 7497W        W25021   4.048   1.806  13.025  0.1118 -0.0714  0.0475
 7498W        W25022  17.065   8.882   4.198  0.2108  0.1230 -0.0379
 7499W        W25023  12.620   7.443  12.307  0.2918 -0.0687 -0.1270
 7500W        W25024  11.170   1.764   1.218  0.2076  0.1336  0.0651
 7501W        W25025   9.981  15.598  14.056 -0.1295  0.1345  0.0711
 7502W        W25026  16.429   1.347  15.189 -0.2314  0.0076  0.1105
 7503W        W25027   3.942   3.292   0.907 -0.0019  0.1687  0.0067
 7504W        W25028   6.403  14.410   0.704  0.0131 -0.1099  0.0223
 7505W        W25029  17.532  15.428   0.607 -0.0866  0.0953 -0.0481
 7506W        W25030   9.180  11.349  13.911 -0.3593 -0.0556 -0.1065
 7507W        W25031   7.846  17.059  14.597  0.3033  0.0385  0.0459
 7508W        W25032   2.374   6.757  15.463  0.1525  0.3512  0.1398
 7509W        W25033  15.412  12.711  13.019 -0.1693  0.1318 -0.2046
 7510W        W25034   7.839   2.867  12.458  0.0750  0.0079  0.2123
 7511W        W25035  12.245   8.789   1.827 -0.2377 -0.1259 -0.1423
 7512W        W25036  15.133   7.052  16.182  0.0737 -0.2682  0.0333
 7513W        W25037  12.470   3.748   0.677 -0.1102  0.0271 -0.1756
 7514W        W25038  17.445   3.784   2.293  0.1979  0.3848 -0.0040
 7515W        W25039   1.287   8.240   3.683 -0.0209  0.0913 -0.2645
 7516W        W25040  16.120  14.145  15.452 -0.1684  0.1668  0.0969
 7517W        W25041   5.030  14.510   5.353 -0.0684 -0.0042 -0.1812
 7518W        W25042  12.016   6.495   2.241 -0.1391 -0.0727  0.1600
 7519W        W25043   7.789   1.845   2.032  0.1611  0.1164 -0.2021
 7520W        W25044   6.429  12.546   2.383  0.0618 -0.1438  0.0666
 7521W        W25045   2.957   8.398   6.122 -0.1990 -0.1799  0.0144
 7522W        W25046  15.867   1.931   1.338  0.1445 -0.2456 -0.3612
 7523W        W25047  16.687   9.033   3.102  0.4509 -0.0109 -0.1908
 7524W        W25048  13.556   2.305  13.743 -0.2620 -0.2770 -0.0331
 7525W        W25049  10.156  17.086  14.354 -0.2878 -0.1019 -0.0404
 7526W        W25050  10.573  15.251   0.974  0.2248 -0.0020 -0.1718
 7527W        W25051  13.693  17.038   4.125  0.0088 -0.2248 -0.1253
 7528W        W25052   0.385  15.614   2.270  0.0291  0.0405 -0.1456
 7529W        W25053  13.824  16.476  14.640  0.0996  0.0888  0.0722
 7530W        W25054   1.860   1.422  10.669  0.0346 -0.1498 -0.0385
 7531W        W25055  12.570   9.069  13.640  0.1793 -0.0320  0.0790
 7532W        W25056  10.992  15.759   3.955 -0.2752 -0.1391  0.0292
 7533W        W25057   7.182  11.924   1.109 -0.0978  0.4622 -0.0984
 7534W        W25058   4.253   0.655   3.494 -0.0318 -0.2125  0.0090
 7535W        W25059   4.628  14.853   2.495 -0.0328 -0.2928 -0.0991
 7536W        W25060   2.787  17.687  11.497 -0.0499 -0.0070 -0.1878
 7537W        W25061  12.586   8.032   2.898  0.1136  0.1493 -0.0228
 7538W        W25062   6.499   1.692   2.819 -0.1510  0.0075 -0.0924
 7539W        W25063   7.375   6.711   4.962  0.1864  0.0511 -0.0544
 7540W        W25064  12.395   2.692  11.093  0.0573  0.0189 -0.0068
 7541W        W25065   1.677   6.575   4.766  0.0661  0.1926 -0.3965
 7542W        W25066  13.006  10.820   3.998 -0.1720  0.0008 -0.2833
 7543W        W25067   0.757   9.177   3.423 -0.1771 -0.1709  0.1109
 7544W        W25068   3.823   9.197  15.907 -0.2420 -0.0368  0.0753
 7545W        W25069  17.444   9.380   3.610 -0.0617 -0.3604 -0.0716
 7546W        W25070   4.690   9.200   2.125 -0.0138  0.0449  0.1721
 7547W        W25071  14.798   9.127  13.124  0.4863  0.0496 -0.2221
 7548W        W25072   2.864   7.233   0.432 -0.0289 -0.1698 -0.1193
 7549W        W25073  12.863   1.517   4.245  0.0127  0.1501  0.0469
 7550W        W25074   7.686   8.705   4.918  0.1064  0.0515  0.0093
 7551W        W25075  15.042  13.914   0.244  0.0749 -0.0209  0.1454
 7552W        W25076   7.123   2.644  13.658 -0.2493 -0.2232  0.1292
 7553W        W25077  17.318   3.525   0.058 -0.0747  0.1101 -0.2059
 7554W        W25078   6.712  13.535   3.290 -0.1964  0.1973 -0.1373
 7555W        W25079  15.564  11.864   4.897  0.0070 -0.0113 -0.2001
 7556W        W25080  12.439  14.692   1.551  0.0134 -0.0643  0.0247
 7557W        W25081  17.158   5.938   0.575  0.1100 -0.0649 -0.2059
 7558W        W25082   0.650   3.473   0.601  0.1812  0.1939  0.0808
 7559W        W25083   0.867  11.964  13.710  0.0388 -0.2430 -0.0014
 7560W        W25084   6.755   9.134  11.394 -0.2631  0.2886  0.0953
 7561W        W25085   5.610   4.973   3.713 -0.1355  0.0524 -0.0138
 7562W        W25086  10.886   5.190   3.976  0.0869  0.2114 -0.0771
 7563W        W25087  11.651   5.469  13.014 -0.1555  0.0264  0.2230
 7564W        W25088   0.929  17.281  13.273 -0.1031 -0.2774  0.0108
 7565W        W25089   2.400   6.144   5.090  0.2463  0.2602  0.0066
 7566W        W25090   9.275  11.277  10.647  0.1927  0.1504  0.0004
 7567W        W25091   7.768   0.387   0.968  0.1108  0.0918 -0.0516
 7568W        W25092  13.217   4.212   2.319 -0.1082  0.2102 -0.0134
 7569W        W25093   2.386   9.413   0.721  0.1753  0.3575 -0.0095
 7570W        W25094  15.716  11.101   3.467  0.1411 -0.0776  0.2161
 7571W        W25095   0.943  11.177  16.163  0.0642  0.0395  0.0460
 7572W        W25096   7.654   5.925   4.913  0.2283 -0.0819  0.1114
 7573W        W25097   4.797  14.217   3.185  0.3659 -0.2237 -0.3531
 7574W        W25098   2.109   2.972   3.414 -0.0795 -0.2355  0.2792
 7575W        W25099   7.540   9.521  13.755 -0.1467 -0.1182  0.0306
 7576W        W25100   2.160   7.698  12.831  0.0795 -0.1799 -0.0639
 7577W        W25101   1.784  13.027   4.935  0.0082 -0.0649 -0.0879
 7578W        W25102   7.888   3.495   1.113  0.0477 -0.0746 -0.1837
 7579W        W25103   4.060  14.042  15.379  0.0571 -0.1053  0.1172
 7580W        W25104  10.286   4.455  11.965 -0.0752 -0.0237  0.2289
 7581W        W25105   0.964  17.233   1.202  0.0608 -0.3177 -0.3478
 7582W        W25106   1.640  12.226   1.425 -0.0093  0.2121  0.1294
 7583W        W25107   7.487  11.212   0.777  0.0842  0.2393 -0.0002
 7584W        W25108  11.814   2.363   1.754 -0.0986 -0.0751  0.1738
 7585W        W25109   7.699  11.272  10.823  0.2883  0.0056 -0.3216
 7586W        W25110   2.309   6.581  11.308  0.0407 -0.1272 -0.0754
 7587W        W25111  16.501  16.509  14.280  0.0266  0.0537 -0.0636
 7588W        W25112  10.988  16.484   2.095  0.3096 -0.2199 -0.1627
 7589W        W25113   6.287  13.602  13.912  0.0760 -0.1098 -0.0173
 7590W        W25114  15.688   9.735  12.449 -0.2187 -0.1410 -0.0617
 7591W        W25115   8.536  15.672   1.851  0.2087 -0.0133  0.1743
 7592W        W25116   4.616   6.730  12.462 -0.0607  0.2634 -0.0356
 7593W        W25117   0.368   7.412  16.098 -0.0343 -0.0060  0.0347
 7594W        W25118   0.299   7.400   1.866 -0.0526  0.1419 -0.0426
 7595W        W25119   6.422   0.109   0.598 -0.1085  0.1144  0.2031
 7596W        W25120   1.486   5.214   3.151  0.2115  0.1610  0.2466
 7597W        W25121  10.146   3.596  13.659 -0.2241 -0.0741  0.0921
 7598W        W25122  10.351   2.125   0.669 -0.1468  0.2854  0.1755
 7599W        W25123   5.956  15.801  12.382 -0.0423  0.0472  0.1672
 7600W        W25124   3.528   3.833  13.081  0.4212  0.2446  0.0538
 7601W        W25125  16.359   8.716  14.102 -0.3344  0.0372 -0.3832
 7602W        W25126  10.512   5.036  15.046  0.3207  0.2494  0.0004
 7603W        W25127  12.880  11.715   4.152 -0.3117 -0.0319 -0.1136
 7604W        W25128   4.305   5.931   4.026  0.1783 -0.0675  0.1178
 7605W        W25129   5.360   5.828   2.195 -0.0407 -0.1984 -0.0358
 7606W        W25130  10.811   9.700  15.477 -0.0033  0.2128 -0.2915
 7607W        W25131   1.211  17.294  12.424  0.1464 -0.1000  0.1131
 7608W        W25132  17.748   6.197  12.098 -0.0727 -0.2330  0.2339
 7609W        W25133  13.378   9.955  15.676 -0.2556 -0.3184 -0.2991
 7610W        W25134   8.729   4.346  12.906 -0.0573  0.0497  0.1330
 7611W        W25135  16.462   9.761  14.870  0.0008  0.1476 -0.0522
 7612W        W25136  13.597  13.429   0.121  0.0974  0.3481  0.1456
 7613W        W25137   2.464   9.454  16.102 -0.1206  0.0666  0.4466
 7614W        W25138   1.712  15.007   4.710 -0.0185  0.0925  0.0787
 7615W        W25139  11.696  15.006   2.062  0.2467  0.0859 -0.0483
 7616W        W25140  11.018   6.480  11.235 -0.1836  0.0219  0.0107
 7617W        W25141   0.766   1.905  10.939  0.0300 -0.0039 -0.0125
 7618W        W25142   3.935   8.620   1.989  0.0261 -0.0593 -0.0979
 7619W        W25143  11.500  11.993  13.773 -0.1853  0.0395 -0.1594
 7620W        W25144   4.145  11.029   2.573 -0.0593  0.3640 -0.1368
 7621W        W25145  17.195   0.150  16.039  0.0040 -0.0803  0.1379
 7622W        W25146  12.770   3.430   1.226  0.0538  0.1478 -0.0699
 7623W        W25147   1.655   1.331  12.643 -0.2193  0.0378  0.1912
 7624W        W25148  17.388   3.077   0.676 -0.1956 -0.3656 -0.2948
 7625W        W25149   6.431  12.193   4.512 -0.0343 -0.2000 -0.1744
 7626W        W25150  14.934  12.541  13.780 -0.1341  0.0646 -0.1385
 7627W        W25151  10.148   3.402  15.880  0.0308  0.0800 -0.1698
 7628W        W25152  12.223   6.055  16.012  0.2675 -0.3259  0.1636
 7629W        W25153  12.591   0.174   2.912  0.0126 -0.0141  0.4093
 7630W        W25154  11.470  16.681   0.639  0.0513 -0.2646 -0.2239
 7631W        W25155   4.550   5.748   1.200  0.0782  0.1070  0.1109
 7632W        W25156   6.976  17.231  15.027  0.0819 -0.1320  0.0758
 7633W        W25157  10.764   7.830  16.138 -0.1640 -0.3424  0.2521
 7634W        W25158  17.675   6.040   0.787  0.1520 -0.0044  0.1433
 7635W        W25159   0.438  14.316   3.831 -0.3375  0.0833  0.0391
 7636W        W25160   4.796   6.340   0.331  0.1709  0.1600 -0.3296
 7637W        W25161   2.117  14.217   2.643  0.0756  0.0591 -0.1518
 7638W        W25162  14.502  10.370  11.621  0.2853 -0.1479 -0.0245
 7639W        W25163   5.662   1.978  14.790 -0.1032 -0.3326 -0.0808
 7640W        W25164   2.690  15.306   4.534  0.3734 -0.1592 -0.0819
 7641W        W25165   4.587  12.510   2.807  0.1708 -0.3910 -0.0697
 7642W        W25166   5.079  15.992  15.343  0.0609  0.1276  0.1138
 7643W        W25167   9.490   2.382   1.896  0.5615 -0.1639 -0.1255
 7644W        W25168   8.616   2.156  13.069  0.0890  0.1367 -0.0178
 7645W        W25169   4.124   3.471   0.385 -0.0027  0.1142  0.0420
 7646W        W25170   3.950   4.031   2.720 -0.1465 -0.0811 -0.1106
 7647W        W25171  16.259  14.123   1.984 -0.1014  0.0731 -0.1515
 7648W        W25172  14.017  10.616  13.019  0.0766  0.3486 -0.4060
 7649W        W25173  16.248   7.626  10.763  0.3381  0.0303 -0.3556
 7650W        W25174   9.697   4.104   2.408 -0.0055 -0.1837  0.0923
 7651W        W25175   1.601  17.962   2.077  0.0119 -0.0301 -0.1727
 7652W        W25176  12.106   9.688   4.384 -0.0748 -0.1444 -0.1095
 7653W        W25177  13.992   3.044   4.067 -0.0688 -0.1852  0.1658
 7654W        W25178  11.534   0.565  15.888  0.2007  0.0773  0.1585
 7655W        W25179   4.852   8.905   4.584  0.4315  0.3031 -0.1540
 7656W        W25180   6.400   1.494  14.938 -0.0767 -0.2696  0.0350
 7657W        W25181   3.804  11.536   3.612 -0.0718  0.0456  0.0566
 7658W        W25182  14.271   6.560   0.681  0.2440 -0.2455 -0.2911
 7659W        W25183   4.100  11.916  15.594 -0.2547  0.1531 -0.1637
 7660W        W25184  16.232   5.134  14.542  0.1838 -0.1417  0.0877
 7661W        W25185  10.481  15.957  10.777  0.0430  0.2088  0.0750
 7662W        W25186  15.095  10.835   1.271 -0.1696  0.2421 -0.1982
 7663W        W25187  11.938   7.995  10.753  0.3867  0.2544  0.0497
 7664W        W25188  15.154   1.184   1.521  0.0096 -0.1944  0.0918
 7665W        W25189   1.589   0.100  15.580 -0.2869  0.1233 -0.1194
 7666W        W25190   0.282   9.962   1.761  0.1560  0.0068  0.0996
 7667W        W25191   5.452   4.465   2.484  0.1532 -0.0529  0.0482
 7668W        W25192  11.326   8.312  14.143 -0.1728  0.0308 -0.0805
 7669W        W25193  14.706  13.268   4.894  0.1751 -0.2224  0.0631
 7670W        W25194   5.940   6.435   0.296  0.0561 -0.2785  0.1530
 7671W        W25195  16.993  15.194  15.526  0.1292 -0.1817 -0.0707
 7672W        W25196  17.863   7.234   0.999  0.1789  0.0808  0.2531
 7673W        W25197   5.514   4.709   4.795  0.0621 -0.1355 -0.0099
 7674W        W25198   9.301   9.568   2.972 -0.0349  0.1047  0.1388
 7675W        W25199   0.071  16.448  15.208 -0.0030  0.1085 -0.0461
 7676W        W25200   5.909   0.740  14.170 -0.0903 -0.1071 -0.2038
 7677W        W25201   8.707  16.125   2.856 -0.2969  0.4167  0.0300
 7678W        W25202  13.691  11.643  10.829  0.1314  0.1959 -0.3094
 7679W        W25203  17.338  13.001  13.345 -0.0084 -0.2731 -0.1285
 7680W        W25204  12.066   5.876   1.133  0.1723  0.1530  0.2872
 7681W        W25205   4.531  13.303  15.029 -0.1495 -0.3880 -0.0533
 7682W        W25206  12.621  17.019  13.218 -0.0252  0.0041  0.1436
 7683W        W25207  11.068   8.222   4.735 -0.1662 -0.0447 -0.3513
 7684W        W25208   5.871   8.327  13.443 -0.0870 -0.1769  0.0302
 7685W        W25209   2.690  10.601  16.244  0.1833  0.1594 -0.2057
 7686W        W25210  14.081   8.325   1.768 -0.0181  0.1211 -0.1390
 7687W        W25211   9.416  15.969  12.412  0.2229  0.0077 -0.3112
 7688W        W25212   6.771   3.383   3.884  0.1675 -0.0834 -0.0656
 7689W        W25213  16.831   7.816  16.087  0.0678 -0.0082 -0.2836
 7690W        W25214   3.731   4.417  15.528  0.1833 -0.0689 -0.2960
 7691W        W25215  12.365   5.243   0.502 -0.0644 -0.4041  0.0567
 7692W        W25216   8.691   3.291   3.672 -0.1238 -0.0644  0.0291
 7693W        W25217   9.933   3.071  12.336 -0.1090  0.0200 -0.1250
 7694W        W25218  17.364  15.677   4.067 -0.0145  0.2349 -0.0256
 7695W        W25219   0.357  15.828   5.306 -0.0769  0.2163 -0.1504
 7696W        W25220  15.150  12.771   1.230  0.0774  0.0578 -0.2284
 7697W        W25221  12.433   8.981   0.070  0.2894 -0.0352  0.1556
 7698W        W25222   2.407   1.503   4.137 -0.1132 -0.5253  0.1749
 7699W        W25223   9.680   2.997   3.474  0.2289 -0.0127  0.2028
 7700W        W25224  14.633   8.343   3.170 -0.1187  0.2301  0.1262
 7701W        W25225   9.269  17.161  11.601  0.1740 -0.3183 -0.1373
 7702W        W25226   4.962  14.977   3.972  0.0131 -0.1403  0.0955
 7703W        W25227   2.966   3.587   3.444 -0.2205  0.3193 -0.1171
 7704W        W25228   3.317  10.157  15.481  0.0374 -0.0382  0.1039
 7705W        W25229   6.202  13.126   1.857 -0.1869 -0.0360 -0.0436
 7706W        W25230   2.998  11.999  13.817 -0.1174  0.0635  0.0574
 7707W        W25231   9.066  11.463   4.768 -0.0963 -0.2212  0.1048
 7708W        W25232   1.700  11.517  12.118 -0.0275  0.0994  0.1390
 7709W        W25233   8.743  10.145   5.282 -0.0792  0.3379 -0.2528
 7710W        W25234   0.732   5.578  12.810 -0.1813  0.0379 -0.2078
 7711W        W25235   8.800   3.559  13.204 -0.0588 -0.1923 -0.0615
 7712W        W25236  10.160   2.827  15.961 -0.1243  0.0518 -0.0351
 7713W        W25237   9.170  11.060   1.403 -0.0874 -0.0285  0.0659
 7714W        W25238  13.981  13.648   3.729 -0.1273 -0.0661  0.0299
 7715W        W25239   6.073   5.021  12.623 -0.0759  0.1998 -0.0141
 7716W        W25240  10.509   8.206  11.671 -0.2708 -0.0259 -0.1608
 7717W        W25241  14.560   7.456   1.237  0.0035 -0.1955 -0.0476
 7718W        W25242   2.986   4.211   4.216 -0.2285 -0.2576 -0.0617
 7719W        W25243  13.235  14.177  12.939 -0.1108  0.1314  0.1824
 7720W        W25244   3.415   3.354   4.503 -0.0309  0.3996  0.1534
 7721W        W25245  15.137   9.801   3.340  0.5400 -0.2307 -0.0897
 7722W        W25246  12.743   9.662  11.536  0.0930 -0.1387 -0.2911
 7723W        W25247   9.373   8.319   1.816 -0.0844 -0.0344  0.0219
 7724W        W25248   2.081  12.848  15.057  0.1555 -0.0942 -0.2672
 7725W        W25249   4.448   4.604   5.041  0.2281  0.2694 -0.0380
 7726W        W25250   4.931   6.094  15.056 -0.1333 -0.0654  0.0161
 7727W        W25251   1.911  14.246   1.006  0.2822  0.1695  0.0358
 7728W        W25252   5.096  12.305   5.094 -0.0908  0.0534  0.1488
 7729W        W25253   6.221  12.976   4.001 -0.1009 -0.3878  0.0671
 7730W        W25254   8.683  16.179   0.413  0.0604  0.2003 -0.1268
 7731W        W25255  15.408  12.567   2.264  0.2110  0.1344 -0.4653
 7732W        W25256  10.025   2.604  11.999 -0.1747  0.3377  0.2142
 7733W        W25257   4.574  13.843   2.633  0.1763  0.0573 -0.1002
 7734W        W25258   6.191   1.180   5.032  0.1707  0.0723  0.1122
 7735W        W25259   2.704   1.915   4.002 -0.0838 -0.2132 -0.0131
 7736W        W25260  13.932   4.676   3.674  0.0253 -0.0298  0.2337
 7737W        W25261   3.384  11.184   1.688  0.0379  0.5051 -0.0882
 7738W        W25262   6.749   3.254  12.888 -0.0729  0.0298 -0.1672
 7739W        W25263   1.795   4.522   1.729  0.1943  0.1748  0.1007
 7740W        W25264   5.646   4.206   0.697 -0.0865 -0.2163  0.1303
 7741W        W25265   3.267   7.853  14.394  0.1682 -0.3207 -0.1469
 7742W        W25266  12.344   8.287  12.457 -0.0576  0.1649  0.1680
 7743W        W25267  13.629   4.635   0.746 -0.1584  0.0763 -0.0170
 7744W        W25268   2.547  15.265   5.233 -0.0488 -0.0193 -0.2964
 7745W        W25269   8.615  12.748  14.442  0.3372 -0.1783 -0.1279
 7746W        W25270  14.674  17.511  14.003 -0.0252 -0.1721  0.0512
 7747W        W25271   5.181  11.003  14.433  0.0644 -0.0512 -0.1143
 7748W        W25272   8.541   5.817  16.148  0.0767 -0.1117  0.0064
 7749W        W25273   1.976   7.454  13.229 -0.0944 -0.0372  0.2505
 7750W        W25274  15.858  16.920  12.307  0.1853 -0.1897  0.0129
 7751W        W25275   1.638  17.030  12.250 -0.3822 -0.1169 -0.1257
 7752W        W25276  11.901   1.431   1.965  0.0020  0.1050 -0.0921
 7753W        W25277   7.752   6.157   2.983  0.0279 -0.2733  0.2619
 7754W        W25278   5.464   1.980  12.463 -0.3569 -0.1005 -0.2588
 7755W        W25279   2.188  13.060  10.540 -0.0699 -0.1341 -0.2077
 7756W        W25280   8.433   5.405  13.286  0.2174  0.0692  0.0404
 7757W        W25281  12.872   0.507   3.199  0.0883 -0.1162 -0.2393
 7758W        W25282   8.629   4.171   4.207 -0.2486 -0.0047  0.0534
 7759W        W25283  17.871  10.742  14.769 -0.0821 -0.0318 -0.1267
 7760W        W25284  11.298   6.199   0.749  0.1078 -0.0414  0.1662
 7761W        W25285  17.430   1.703   2.781 -0.0207  0.3000  0.0379
 7762W        W25286   4.539  12.738   3.323  0.0335 -0.0234 -0.0794
 7763W        W25287   3.102  16.819  14.887 -0.1131 -0.2374 -0.2132
 7764W        W25288   3.808   9.778   3.018 -0.1145 -0.2278 -0.2038
 7765W        W25289   6.118  12.327  11.711  0.0642 -0.0341  0.1680
 7766W        W25290   3.242   7.813  13.892 -0.0714 -0.1514  0.1011
 7767W        W25291   1.510  16.112   2.505  0.0903  0.0884  0.1315
 7768W        W25292   0.828  16.044   4.007 -0.1905 -0.2247 -0.0280
 7769W        W25293   0.594  14.642  13.671 -0.0278 -0.0163  0.3373
 7770W        W25294  11.789   6.551   2.692  0.1192 -0.0574  0.0736
 7771W        W25295  15.155  17.893  11.429 -0.0637 -0.0569  0.0534
 7772W        W25296  14.585  16.757  12.451  0.2195 -0.2064 -0.1365
 7773W        W25297   6.644  10.320   0.402 -0.1367  0.2980  0.0022
 7774W        W25298  16.115   0.751   2.728  0.1714  0.1114  0.0042
 7775W        W25299   8.906   5.462   1.091 -0.4047 -0.1764  0.0017
 7776W        W25300   6.327   1.120   2.081 -0.2797 -0.0061  0.0057
 7777W        W25301  16.455  11.168  11.439 -0.3512 -0.1532  0.0126
 7778W        W25302   8.256   2.116  16.138  0.3073  0.0398 -0.0966
 7779W        W25303  12.398   6.901  12.423  0.2223 -0.2119  0.0468
 7780W        W25304  16.498   3.702  13.429  0.2928 -0.0184  0.1201
 7781W        W25305  13.339   0.025   0.794 -0.1276 -0.1929  0.2148
 7782W        W25306   8.251   6.462  11.932  0.0844 -0.3776 -0.1069
 7783W        W25307  17.721  11.975   2.539 -0.0748  0.1470 -0.0101
 7784W        W25308  14.613  16.971  14.147  0.0688  0.0285 -0.0329
 7785W        W25309   7.356   4.574   4.442  0.0052 -0.1024 -0.1787
 7786W        W25310  11.748   1.590  15.370  0.1504 -0.0399  0.2836
 7787W        W25311   1.711   3.122  12.643 -0.1532  0.0846 -0.1558
 7788W        W25312  11.142   9.231   3.530  0.2983  0.0108  0.1515
 7789W        W25313  12.029   9.797  10.985 -0.0503  0.1568  0.0050
 7790W        W25314   9.288  15.624  14.655 -0.0137  0.1056  0.0676
 7791W        W25315  12.951  14.794   1.197  0.1283 -0.0156  0.0794
 7792W        W25316   7.813   8.557   3.694 -0.0072  0.2696  0.2990
 7793W        W25317   6.576  17.256   3.821  0.1751  0.1150 -0.0199
 7794W        W25318   9.829  12.034   0.255 -0.0194 -0.2803  0.0220
 7795W        W25319   9.577  11.181  11.032 -0.1998  0.0299 -0.3077
 7796W        W25320   5.478  13.582   4.472  0.2350 -0.0117  0.2854
 7797W        W25321  16.003   2.918   0.472 -0.1144 -0.2224  0.1379
 7798W        W25322   1.861  10.456  15.036 -0.0249 -0.2248  0.3019
 7799W        W25323   3.467  10.781   2.980  0.1877 -0.1374  0.0033
 7800W        W25324  12.513   5.152   4.810  0.1115  0.0236  0.2394
 7801W        W25325  15.905  12.962  16.199 -0.1867  0.2815 -0.1703
 7802W        W25326   4.930   8.713  13.365 -0.1980 -0.0796 -0.0407
 7803W        W25327  14.388   7.516  12.119 -0.0472  0.0462  0.0647
 7804W        W25328   0.551  16.535   1.552  0.0173 -0.2384  0.0121
 7805W        W25329   3.417   3.078  12.460 -0.1582  0.1031  0.0137
 7806W        W25330  15.692  10.582   0.463  0.1126 -0.0220 -0.2202
 7807W        W25331  11.126  10.089   1.904 -0.1082  0.0020  0.1346
 7808W        W25332   0.016  17.411   5.156  0.0336  0.0726  0.3744
 7809W        W25333  12.720   4.964   4.210 -0.0114 -0.0145  0.1178
 7810W        W25334  10.974   9.231  11.438  0.0030  0.0919  0.1021
 7811W        W25335  14.722   7.325   3.472  0.0522  0.2354 -0.0352
 7812W        W25336   9.748  12.254  14.949  0.1312  0.0655  0.1088
 7813W        W25337  16.351   4.573  12.535  0.2311  0.1699  0.2443
 7814W        W25338   6.525  17.258  15.592  0.2217 -0.2372 -0.1417
 7815W        W25339   0.358  10.390   3.352  0.0262 -0.1966  0.1368
 7816W        W25340  17.837  15.885   3.248  0.0412 -0.2781  0.2289
 7817W        W25341  10.177   8.378  14.784  0.2861  0.0090  0.1894
 7818W        W25342   6.668   7.442   4.752  0.0280  0.0430 -0.0890
 7819W        W25343   9.814   9.087   1.370  0.2870 -0.0307  0.0303
 7820W        W25344  10.288  15.673  14.478  0.2398  0.0898  0.2998
 7821W        W25345   9.708  12.814  11.634  0.0003 -0.0715  0.1708
 7822W        W25346   5.453  13.389  15.068 -0.0228  0.1213  0.0274
 7823W        W25347   4.971   7.656   5.404 -0.0139  0.0362  0.0266
 7824W        W25348   2.867  10.985  11.771 -0.1116 -0.1868  0.1750
 7825W        W25349   9.460  14.210   0.163 -0.0203  0.1783 -0.4312
 7826W        W25350  11.087  17.012  12.742  0.0203 -0.0092 -0.1342
 7827W        W25351   4.236  11.960  11.866 -0.2181  0.1114  0.2205
 7828W        W25352   9.662   4.778  14.919 -0.2056 -0.1055 -0.2433
 7829W        W25353   0.028   5.292  12.962  0.0662 -0.2888 -0.1622
 7830W        W25354  10.374   4.971   4.584 -0.2792 -0.0662 -0.1406
 7831W        W25355   0.568   1.690   5.061 -0.0755 -0.0563 -0.0183
 7832W        W25356   4.172  10.113  14.804 -0.2012  0.0436 -0.0498
 7833W        W25357   3.163   4.807  15.959 -0.0312 -0.1726  0.1295
 7834W        W25358  17.808  11.414  12.671 -0.1019  0.0390  0.1422
 7835W        W25359   7.217  10.267  13.427  0.1098  0.1039 -0.0408
 7836W        W25360  13.321  10.189  12.607  0.1795 -0.2181 -0.0224
 7837W        W25361  12.938   4.284  15.742 -0.0834  0.0077  0.1086
 7838W        W25362   1.895   0.642   4.286 -0.0795  0.1830  0.1136
 7839W        W25363   3.236  17.398   1.663  0.0138 -0.1297  0.0106
 7840W        W25364  15.440  11.760   3.234 -0.1293 -0.1776 -0.3514
 7841W        W25365   2.909   2.273   0.361  0.1117  0.1356 -0.0116
 7842W        W25366   2.030  16.026  11.333  0.1819 -0.0215  0.2104
 7843W        W25367   2.347  10.439  12.329 -0.1207 -0.0780 -0.3816
 7844W        W25368   5.670  11.999   0.555 -0.0791  0.0920  0.0393
 7845W        W25369   4.815   2.425   1.246 -0.0231  0.1853  0.1221
 7846W        W25370   5.004   0.914  12.817  0.1121  0.0747  0.0621
 7847W        W25371   7.944   5.904  11.711  0.0842 -0.0704 -0.2219
 7848W        W25372   7.643   9.948  13.531  0.1470 -0.1592  0.0881
 7849W        W25373   5.475   9.275   3.189  0.0069 -0.1578  0.2091
 7850W        W25374  10.527  15.059  13.726 -0.0573 -0.1115  0.0018
 7851W        W25375  15.391  15.023  15.438  0.0381  0.0271  0.3185
 7852W        W25376   4.536   3.489   0.746  0.0835  0.2433 -0.0224
 7853W        W25377   8.376  16.315  15.462  0.0272  0.0639  0.0977
 7854W        W25378   5.788   4.228  14.053 -0.1102 -0.2126  0.0131
 7855W        W25379  11.012   5.212   3.455  0.2540 -0.0574 -0.3220
 7856W        W25380   5.042   8.549  11.870 -0.0924  0.1670 -0.2032
 7857W        W25381  12.379  14.332  14.540 -0.1237 -0.0138 -0.4715
 7858W        W25382   7.557   6.099  15.053  0.0427 -0.1222 -0.1477
 7859W        W25383  13.733   0.561  11.898 -0.0754 -0.0070  0.0050
 7860W        W25384  12.409  17.774   0.479 -0.1797 -0.5150  0.1071
 7861W        W25385   0.086   9.417   1.151  0.0851 -0.3540 -0.1805
 7862W        W25386  15.815   0.686   3.219  0.0205 -0.0746 -0.1232
 7863W        W25387   7.971   2.341   1.853 -0.1450 -0.1040 -0.2349
 7864W        W25388  17.393  13.313  16.152  0.3417 -0.0389 -0.3353
 7865W        W25389  10.317   4.136  13.837 -0.0907  0.1049  0.3286
 7866W        W25390   1.831  12.703  15.472  0.1354  0.1775  0.0924
 7867W        W25391  12.752  13.872   5.175  0.2755 -0.1675  0.1380
 7868W        W25392   7.706   3.120   0.559 -0.1523  0.0515 -0.0263
 7869W        W25393  10.642  15.245   2.600  0.1361  0.0468  0.0496
 7870W        W25394   5.585   3.467   2.046  0.0449 -0.0056  0.3084
 7871W        W25395  13.907   2.832   0.867  0.0028 -0.1766  0.0209
 7872W        W25396  11.344   0.817  10.786 -0.1374  0.2800  0.1593
 7873W        W25397   3.311  17.731  11.656 -0.2149  0.1534  0.0530
 7874W        W25398   7.225  15.786  13.447 -0.1775 -0.1459 -0.1587
 7875W        W25399   8.097   0.589  16.242 -0.0201  0.0223 -0.1056
 7876W        W25400   7.621  15.204   0.290  0.0441  0.1183 -0.0479
 7877W        W25401  15.961   1.181   4.320  0.2077 -0.1275  0.1286
 7878W        W25402  13.949  12.367   3.925 -0.0212  0.3596  0.2909
 7879W        W25403   0.454  12.251  13.641  0.1567 -0.0680  0.0348
 7880W        W25404   4.002   4.188  15.143 -0.1541 -0.0280 -0.2139
 7881W        W25405   1.145  12.803  10.827  0.0024  0.1256  0.0313
 7882W        W25406  12.244  10.449  12.255 -0.2925 -0.0328 -0.3368
 7883W        W25407  17.712  10.275  11.212 -0.2891 -0.0697  0.2824
 7884W        W25408   7.176   2.984  14.164  0.1690 -0.3023 -0.0870
 7885W        W25409   4.552   8.510   4.369  0.1604  0.0932  0.1471
 7886W        W25410   7.391   8.313   5.018 -0.1372 -0.0428 -0.3419
 7887W        W25411  10.829   9.324   0.453  0.3365  0.3162  0.1733
 7888W        W25412   4.659  16.914   3.955 -0.0700  0.4250  0.0072
 7889W        W25413   0.099   6.567   3.647 -0.0493 -0.0276 -0.2157
 7890W        W25414   0.825   5.540  13.340 -0.2046  0.2142 -0.3948
 7891W        W25415   4.964   1.573  15.994 -0.1654 -0.0735  0.1567
 7892W        W25416  14.037   9.321   2.753  0.0525  0.1065 -0.1031
 7893W        W25417   7.446   2.145  15.698  0.1412  0.0623 -0.4487
 7894W        W25418  17.327   3.194  15.836 -0.3724  0.3503  0.1778
 7895W        W25419  15.697  17.749   5.017  0.0201  0.1133  0.1677
 7896W        W25420  10.790  16.909  13.891 -0.1119 -0.0347  0.0084
 7897W        W25421  11.101  17.494   1.356  0.1849 -0.1848  0.1674
 7898W        W25422   6.286   7.120  16.169  0.0519 -0.2011 -0.0568
 7899W        W25423   2.516   3.442   6.085  0.3588 -0.0186 -0.1744
 7900W        W25424  15.042   6.494  10.066  0.0927  0.0076  0.0195
 7901W        W25425  10.766   3.597  12.770  0.1213  0.0539  0.0586
 7902W        W25426   2.005  12.820  13.236 -0.1007  0.2731  0.0262
 7903W        W25427   3.316   3.821   2.977 -0.2228  0.0446 -0.1227
 7904W        W25428  11.804   5.890  13.382  0.0819 -0.0590 -0.2967
 7905W        W25429   6.338   0.869  12.165 -0.3739  0.1162  0.1371
 7906W        W25430  13.673   8.268  10.778  0.2264 -0.1515  0.1330
 7907W        W25431  10.560   0.314   4.451  0.1097 -0.2846  0.1293
 7908W        W25432   8.038  10.957   1.291  0.3020 -0.0051  0.1027
 7909W        W25433  15.272  16.271  12.043  0.0382 -0.2104  0.0588
 7910W        W25434   4.073  15.735   4.734  0.1990  0.0164  0.0846
 7911W        W25435  12.005  16.898   4.231  0.0866 -0.0056 -0.0466
 7912W        W25436   0.151   2.941  12.441 -0.0772 -0.2014 -0.0768
 7913W        W25437   7.227  10.051  11.509 -0.0883 -0.0968 -0.1499
 7914W        W25438   8.533   4.718  11.128 -0.1839  0.0808 -0.2006
 7915W        W25439   0.247   8.924   4.759  0.1497  0.1196  0.4225
 7916W        W25440   9.566  12.080   4.517  0.1324  0.2337  0.4160
 7917W        W25441   4.182   1.100   1.187  0.0918 -0.2463  0.1010
 7918W        W25442   5.829   5.308   0.856  0.3761 -0.2819 -0.2434
 7919W        W25443   2.060   7.790   0.239 -0.1345 -0.0727  0.2799
 7920W        W25444   5.469  14.414   4.441  0.2517 -0.1961  0.0230
 7921W        W25445   7.022   2.553   1.728 -0.1514  0.0634 -0.0919
 7922W        W25446  11.982  10.113   1.573 -0.1367 -0.1836  0.0800
 7923W        W25447  15.128   5.960  15.057 -0.0464  0.1240  0.1456
 7924W        W25448  14.368  11.261   1.861  0.4230 -0.1529  0.0689
 7925W        W25449   2.991   0.012  11.969  0.1958  0.0465  0.0793
 7926W        W25450  12.553  17.109  14.111 -0.0261 -0.2190 -0.0654
 7927W        W25451   1.769   3.021   1.466  0.1380 -0.0524  0.0145
 7928W        W25452  15.872  10.952   0.789 -0.0041  0.1097  0.2177
 7929W        W25453  15.944  13.949  12.261  0.0494  0.1648  0.0560
 7930W        W25454   9.377  15.753  15.250  0.1255 -0.1143 -0.0935
 7931W        W25455  17.860  11.618  14.742 -0.0494  0.2647  0.3402
 7932W        W25456   8.921   4.864  14.207 -0.0876 -0.0295  0.2210
 7933W        W25457   4.403  17.028   4.422  0.2218 -0.1458  0.0485
 7934W        W25458  10.974   0.897  15.757  0.1482  0.1556  0.1064
 7935W        W25459   1.709   9.802  12.101 -0.4116  0.1025 -0.0867
 7936W        W25460  16.981   4.719  11.876  0.1073  0.1261 -0.1743
 7937W        W25461   4.654  12.025   2.400 -0.1590  0.4086 -0.1446
 7938W        W25462   9.060   1.919  12.499  0.4266  0.0552  0.2211
 7939W        W25463  17.832   7.265   3.371 -0.0667 -0.1385  0.2058
 7940W        W25464  11.045  12.266  13.751 -0.1945 -0.1060 -0.0848
 7941W        W25465  10.234  12.479  10.898 -0.0925  0.0686  0.0395
 7942W        W25466   2.288   5.556   4.219  0.2007  0.0771 -0.1835
 7943W        W25467   6.945  15.953   4.545 -0.0534  0.0652  0.0139
 7944W        W25468   2.688  13.337  16.123 -0.0954 -0.0517 -0.3653
 7945W        W25469  15.686   4.168   0.722  0.1191  0.1540 -0.1124
 7946W        W25470  11.982  13.272   3.442  0.2305 -0.1451 -0.1246
 7947W        W25471   8.363  10.023   3.130 -0.2681  0.1357 -0.1415
 7948W        W25472  12.979  11.922  14.552  0.1917  0.1378 -0.3536
 7949W        W25473   9.905   2.907   2.456 -0.1165  0.1435  0.1413
 7950W        W25474  10.221   8.699  13.752  0.1643  0.2227 -0.2543
 7951W        W25475   9.261   3.813   4.561 -0.2002 -0.2147 -0.3328
 7952W        W25476  15.204  15.737  11.918 -0.0537  0.0357 -0.2391
 7953W        W25477   2.970  14.697  12.515  0.0086  0.0714  0.4066
 7954W        W25478  12.805  10.638  12.200 -0.0916  0.3027  0.0245
 7955W        W25479  11.499  15.207  11.502  0.0958 -0.2945  0.0544
 7956W        W25480   6.058   5.844   2.516 -0.0225 -0.2063  0.0558
 7957W        W25481   3.751  10.743  12.622  0.2822 -0.0074 -0.0936
 7958W        W25482   5.291  15.586  11.989 -0.0695  0.0911 -0.1359
 7959W        W25483  16.867   0.147   0.508 -0.1659  0.0308  0.0894
 7960W        W25484   7.433   5.201  11.496  0.1278  0.3704  0.0084
 7961W        W25485  15.164  14.473   1.347 -0.0595 -0.0433 -0.3546
 7962W        W25486   9.216   8.561   0.853  0.3149  0.0490  0.2454
 7963W        W25487  12.593  16.783   1.713  0.0373 -0.0123  0.1416
 7964W        W25488  10.221   8.190   2.717 -0.0568 -0.1163  0.1010
 7965W        W25489  13.934  10.554   3.030 -0.0239 -0.3379  0.0688
 7966W        W25490   3.459   7.833   1.784  0.1605 -0.0548 -0.0929
 7967W        W25491  16.273   7.515   0.597  0.0675  0.0205  0.2239
 7968W        W25492   5.748  15.545   0.721 -0.1192  0.1272  0.0570
 7969W        W25493  12.759   2.443   1.234  0.1758  0.0094  0.1172
 7970W        W25494   1.062  15.816   2.382  0.1040 -0.0231 -0.2917
 7971W        W25495   4.007   8.773  12.530 -0.1563 -0.1688 -0.1347
 7972W        W25496  15.836   6.137   0.658  0.1750 -0.4515 -0.0127
 7973W        W25497   8.064  12.262   1.613  0.2163  0.1537 -0.0389
 7974W        W25498   8.761  10.507   3.530  0.1633  0.1354  0.3279
 7975W        W25499   0.980   0.123   2.193 -0.0060  0.0724  0.1017
 7976W        W25500  11.073   0.439  13.554  0.0196 -0.1410  0.0385
 7977W        W25501  16.464   6.756   2.659  0.2293 -0.1718  0.0707
 7978W        W25502   3.425   1.183  12.275  0.1049  0.3190 -0.0093
 7979W        W25503   2.645   4.809   2.374 -0.1285 -0.1337 -0.0263
 7980W        W25504  10.177  17.059   0.608  0.1824 -0.0892 -0.1023
 7981W        W25505   3.822  11.564  12.910 -0.0560  0.1518 -0.1211
 7982W        W25506   3.004  13.832   4.845  0.1043  0.1385  0.3839
 7983W        W25507   7.009  17.694  14.715  0.0372 -0.0268  0.0331
 7984W        W25508  16.084  13.909  15.002 -0.0323 -0.1504 -0.2029
 7985W        W25509  11.137   5.873   1.100  0.1196  0.0057  0.0266
 7986W        W25510   1.212  12.897  14.818 -0.1106 -0.4862 -0.1878
 7987W        W25511   7.392   1.788   1.704  0.1430 -0.0712 -0.1830
 7988W        W25512   8.184   2.952  14.499  0.1409 -0.1685  0.2011
 7989W        W25513   0.180   3.351   2.295  0.1274 -0.0612 -0.1214
 7990W        W25514   9.701   1.589   1.378  0.0348  0.1808 -0.0367
 7991W        W25515   0.514  13.972   0.990  0.0507  0.0031  0.2003
 7992W        W25516   3.130  14.272  13.226  0.1434 -0.2244 -0.1547
 7993W        W25517   9.796   0.778   2.839  0.1049 -0.1199 -0.0603
 7994W        W25518   5.714   9.732   3.271 -0.1292 -0.2377  0.4170
 7995W        W25519   5.006  11.378   4.848 -0.0757  0.0609 -0.0179
 7996W        W25520   5.384   6.986   1.827  0.0865 -0.1128  0.1430
 7997W        W25521  17.721   9.183   3.193 -0.0549 -0.1499 -0.2694
 7998W        W25522   7.681  14.110   5.730  0.1464 -0.1249 -0.1780
 7999W        W25523  11.454  10.165   3.630  0.0092 -0.3468 -0.2639
 8000W        W25524  10.260   8.626  11.440  0.1276  0.0553 -0.0728
 8001W        W25525  10.300   7.775   5.175 -0.1549  0.0675  0.1176
 8002W        W25526  12.552  12.972  11.213  0.0658 -0.1868  0.0326
 8003W        W25527   7.197  14.279  13.157  0.0721 -0.0539 -0.1462
 8004W        W25528   4.915   3.518   1.450  0.1767  0.0931  0.0320
 8005W        W25529  15.552   6.202   4.549  0.0010  0.2605  0.0335
 8006W        W25530   2.100   8.535   0.218  0.1479  0.0381 -0.1491
 8007W        W25531  14.789   2.838  14.000 -0.0881  0.4399 -0.3224
 8008W        W25532   5.137   9.350  15.476  0.0315 -0.0040 -0.1059
 8009W        W25533  15.725   7.694  16.022  0.0270 -0.3155 -0.0931
 8010W        W25534   0.256   1.755   1.337 -0.0993  0.1708 -0.0381
 8011W        W25535   9.664  16.200   3.155 -0.0863 -0.2486  0.3050
 8012W        W25536  13.292   2.913  13.608  0.5051 -0.1132  0.1183
 8013W        W25537  15.485  11.318  14.570  0.2079 -0.2516 -0.0337
 8014W        W25538  14.909  15.474  12.366  0.0254 -0.0961  0.0796
 8015W        W25539  17.909   3.015   0.443  0.0239 -0.0726  0.1363
 8016W        W25540   6.820  14.347  12.841  0.2062  0.2179 -0.1634
 8017W        W25541   8.557  13.211   4.968 -0.2205  0.2243 -0.1234
 8018W        W25542   7.349  13.905  14.155 -0.1093 -0.1236  0.0311
 8019W        W25543   7.091   1.923   0.999 -0.1605 -0.2158 -0.2677
 8020W        W25544  12.382   6.741  11.933  0.3227 -0.1326 -0.0723
 8021W        W25545  17.953   7.992  14.999  0.0344 -0.0001  0.3357
 8022W        W25546   8.964   6.504  13.817 -0.1734  0.0129 -0.0514
 8023W        W25547  15.242   8.838   4.293 -0.2710  0.4636 -0.2893
 8024W        W25548   9.270  15.129   5.253 -0.2115  0.3858 -0.2919
 8025W        W25549   1.863   1.072  11.882 -0.0827  0.2535  0.1660
 8026W        W25550  11.924  11.282   0.024  0.1760  0.0896  0.0549
 8027W        W25551   2.138  14.858   5.621  0.1363  0.0480 -0.1762
 8028W        W25552  16.351   4.484  16.004 -0.0633  0.0139 -0.0614
 8029W        W25553   3.171   9.965  15.066 -0.1926  0.4216  0.0230
 8030W        W25554  12.027  11.575   4.546  0.2382 -0.0380 -0.1817
 8031W        W25555   3.136   4.015   0.044  0.3415 -0.2351  0.0801
 8032W        W25556  12.658   8.855  14.103  0.0035  0.1033  0.1377
 8033W        W25557   0.094   2.979  11.086 -0.2969  0.0081  0.0397
 8034W        W25558   0.664  15.454  14.437  0.2192  0.0614 -0.0168
 8035W        W25559   2.768  11.897  14.836 -0.0700 -0.2359 -0.2759
 8036W        W25560  17.949   9.315   3.762  0.2698  0.0972  0.0612
 8037W        W25561  11.928  13.792   5.718 -0.0542  0.1950 -0.1103
 8038W        W25562   5.797  10.175   4.561 -0.0673  0.0424  0.0498
 8039W        W25563  15.981   5.744  15.118  0.1865  0.2675  0.2767
 8040W        W25564  12.994   8.048  15.563 -0.1617  0.1045  0.1105
 8041W        W25565   6.485  11.219   4.783 -0.0751  0.0764  0.2829
 8042W        W25566  12.049   1.966  12.660  0.1967  0.0471 -0.2308
 8043W        W25567  13.124   1.759  14.270  0.0908 -0.3750 -0.3741
 8044W        W25568  13.865   4.963   1.049 -0.1652 -0.0121 -0.1868
 8045W        W25569  10.058  17.215  15.694 -0.4393  0.0874  0.1679
 8046W        W25570  13.045   7.653  11.151  0.0568  0.2770  0.0872
 8047W        W25571   2.988  17.043  13.135 -0.0825 -0.0528 -0.0451
 8048W        W25572   2.627   9.376  13.752 -0.0980  0.0292 -0.3281
 8049W        W25573  12.363  15.014  13.791  0.2440 -0.0741  0.1345
 8050W        W25574   9.044  14.044  10.675  0.0052 -0.1097  0.0191
 8051W        W25575   8.179   6.852   2.608 -0.1891  0.0277 -0.1903
 8052W        W25576   0.623  12.431   2.347  0.0328  0.0730  0.2121
 8053W        W25577  14.803  10.175   3.352 -0.1630 -0.0045 -0.1978
 8054W        W25578  12.105  11.770   2.804 -0.2266  0.2430  0.1727
 8055W        W25579  10.837   1.503  13.349 -0.1833 -0.2955 -0.4727
 8056W        W25580  12.767  13.813  11.510 -0.0478 -0.0150  0.0651
 8057W        W25581   9.603  16.302   4.511 -0.2242  0.0146  0.1388
 8058W        W25582  14.062  14.166  14.104  0.2053 -0.0050  0.0356
 8059W        W25583   5.471  11.028   3.016  0.0585  0.1227 -0.2762
 8060W        W25584   8.253   7.646   4.973 -0.1306 -0.0498  0.2847
 8061W        W25585  12.921   5.696  15.863  0.1890  0.3715  0.1968
 8062W        W25586   8.002   0.254   2.749  0.0908 -0.2422 -0.0934
 8063W        W25587   3.829   8.189   1.640  0.2644 -0.0089  0.4059
 8064W        W25588  17.785  13.042  16.088  0.2478  0.0586 -0.2378
 8065W        W25589   9.771  11.230  14.028 -0.0575  0.0813  0.0721
 8066W        W25590   0.483   3.984   4.802 -0.2639  0.1393  0.1235
 8067W        W25591  16.831  12.149  13.469  0.0214 -0.0285 -0.2696
 8068W        W25592   5.294   2.302   3.427 -0.3200 -0.1963 -0.2559
 8069W        W25593  17.889   3.168  13.385  0.0883  0.2379  0.0602
 8070W        W25594  11.391   2.962   0.285  0.1532  0.0596  0.1662
 8071W        W25595   5.851   5.744  14.078 -0.1734 -0.3051  0.0178
 8072W        W25596   9.103   3.783   1.300  0.5459  0.1301  0.0984
 8073W        W25597  14.170  13.975   0.707  0.0734  0.0537 -0.0920
 8074W        W25598  13.889  14.633   1.865  0.0837 -0.0895  0.3150
 8075W        W25599  15.797  10.451   1.082 -0.0155 -0.1875  0.1797
 8076W        W25600   3.439   8.494   3.448  0.0459 -0.0312 -0.0241
 8077W        W25601   1.196   7.502  14.992 -0.0987 -0.0529 -0.1375
 8078W        W25602   7.511   9.801   5.167 -0.0742 -0.0872  0.3745
 8079W        W25603   1.378  11.401  15.971  0.0151  0.0568 -0.2415
 8080W        W25604  13.692   9.098  15.289 -0.2638 -0.0081 -0.1631
 8081W        W25605   6.040  14.930   4.285  0.2209 -0.1417 -0.0726
 8082W        W25606   2.856  15.851   2.566 -0.0938  0.3714  0.1473
 8083W        W25607   5.645  13.445   5.288 -0.1685 -0.0202 -0.1992
 8084W        W25608   0.921  10.888   2.971  0.0478 -0.1817 -0.2449
 8085W        W25609  15.212   6.077  12.841 -0.1093  0.1329 -0.1248
 8086W        W25610   5.674   7.927   2.844 -0.1898 -0.0059  0.1846
 8087W        W25611   3.146   9.216   3.891  0.1532  0.2109  0.0034
 8088W        W25612   9.069  13.753   2.434 -0.1743 -0.1616  0.1809
 8089W        W25613   1.268  11.291   2.048 -0.2496 -0.0938 -0.2195
 8090W        W25614   7.273  16.791  12.151 -0.1718  0.1573 -0.2990
 8091W        W25615  10.247   7.689   4.274 -0.0441  0.2401  0.2873
 8092W        W25616   9.496  16.669   2.935  0.1531  0.0367  0.1857
 8093W        W25617  16.238   8.260  10.536  0.2905  0.1641  0.0913
 8094W        W25618  11.671  10.268   0.818 -0.1500  0.0021  0.1331
 8095W        W25619  15.829  16.537  11.909 -0.0922 -0.0611  0.0130
 8096W        W25620   8.330   1.383  12.795 -0.1001  0.0941 -0.0556
 8097W        W25621  14.660   6.857  12.489 -0.0210 -0.0869 -0.1185
 8098W        W25622   3.351  11.815   5.520  0.2376  0.0650  0.1022
 8099W        W25623  16.299   8.161   4.729 -0.1866  0.0253  0.0622
 8100W        W25624  12.259  16.108   1.156  0.1611  0.1642 -0.0442
 8101W        W25625  12.278  16.355   1.630  0.1347  0.2698 -0.1712
 8102W        W25626   6.819  11.808  12.898  0.1017 -0.3208 -0.0722
 8103W        W25627  11.465   1.126   1.792  0.1313 -0.0499 -0.3002
 8104W        W25628   5.353  12.168   4.647 -0.1246  0.0137 -0.0285
 8105W        W25629  10.995   6.701   2.084 -0.3115 -0.2312  0.1294
 8106W        W25630   5.244   7.552   4.071 -0.1215 -0.1225  0.0696
 8107W        W25631   5.462   4.947  14.805  0.2203  0.0516 -0.0754
 8108W        W25632   3.493  15.052   0.179 -0.0612  0.1161 -0.2187
 8109W        W25633   6.819  16.435  15.140  0.1822 -0.2256 -0.2631
 8110W        W25634   0.767   1.210  11.662  0.5192 -0.0647  0.0639
 8111W        W25635  14.739  10.958   1.594 -0.0543 -0.1123 -0.1781
 8112W        W25636  15.531  12.280  15.851  0.0732  0.0888 -0.0739
 8113W        W25637  15.169   5.753   4.678  0.0630  0.0007  0.0147
 8114W        W25638  12.060  14.695  15.920  0.1073  0.1743 -0.0648
 8115W        W25639   6.404   4.760   1.123 -0.3016  0.0102  0.0730
 8116W        W25640   4.215  17.561  14.497 -0.1695 -0.0760 -0.0691
 8117W        W25641  14.981   4.461  12.938 -0.2507 -0.1090  0.0324
 8118W        W25642   6.966   7.225   3.833 -0.3213 -0.1462  0.1931
 8119W        W25643  10.852  13.031   1.863 -0.0500  0.0910 -0.2728
 8120W        W25644   5.161   7.798  13.389  0.1674  0.2373 -0.1640
 8121W        W25645  16.388  14.095   1.217 -0.2304  0.0699  0.1129
 8122W        W25646   6.088  15.614  14.179  0.1616 -0.0283  0.3357
 8123W        W25647   3.168  16.852   4.552  0.0861  0.1095  0.2096
 8124W        W25648   2.430  12.213  11.280 -0.0552  0.0154 -0.0335
 8125W        W25649  13.945  15.999  14.679 -0.0875  0.1891 -0.2107
 8126W        W25650   4.662   2.150  15.218 -0.1899 -0.1985 -0.3233
 8127W        W25651   4.020  15.002  12.534 -0.0045 -0.4282  0.1131
 8128W        W25652  10.011  13.972  15.912  0.3533 -0.1030 -0.0072
 8129W        W25653   2.197  13.981   2.144  0.1618  0.1937 -0.1317
 8130W        W25654  12.570  16.622  14.202  0.2735  0.2773 -0.0785
 8131W        W25655  13.298  13.892  13.645 -0.1468  0.0036  0.2137
 8132W        W25656   7.960  11.780   1.812  0.0852 -0.3186 -0.2738
 8133W        W25657   5.252   8.752  12.801  0.1610 -0.0999 -0.1329
 8134W        W25658   7.570   8.744   2.906  0.1184  0.2175  0.1393
 8135W        W25659   3.352   8.508   0.030 -0.3043 -0.0083 -0.2541
 8136W        W25660   3.758  16.742  12.023  0.1682  0.1403 -0.0845
 8137W        W25661   1.654   2.812   3.346 -0.0609  0.3040 -0.0631
 8138W        W25662  10.132   6.987   5.963 -0.1463 -0.0131  0.0367
 8139W        W25663   1.282   1.495  14.657 -0.1752  0.1388 -0.1599
 8140W        W25664  17.466  11.788  10.882 -0.4654 -0.0378  0.0236
 8141W        W25665  17.301   9.566  14.264  0.4261 -0.0179 -0.0327
 8142W        W25666  15.266   3.003   1.872 -0.1825  0.0645  0.0029
 8143W        W25667   2.234   3.813  15.333 -0.1754  0.2116 -0.1847
 8144W        W25668  12.352   8.148  13.404 -0.3192  0.1172 -0.2410
 8145W        W25669  11.340  12.100  15.774  0.1561  0.0157 -0.3586
 8146W        W25670   6.976  17.059  11.838 -0.1545 -0.1663  0.0044
 8147W        W25671  12.316   7.710  10.858 -0.3507  0.0180  0.2031
 8148W        W25672   7.843  13.375  14.712 -0.0650  0.1086 -0.2425
 8149W        W25673   8.489  10.559  15.157 -0.0280 -0.1092 -0.0130
 8150W        W25674   7.182   6.206   1.891  0.2927  0.0272  0.2539
 8151W        W25675   4.458  16.466   5.321 -0.1709  0.1091 -0.0400
 8152W        W25676  14.022  15.858  12.802 -0.1590  0.0153 -0.3315
 8153W        W25677  14.258  11.391  14.322  0.0074 -0.0497  0.2104
 8154W        W25678  16.815   4.144   5.752  0.4403 -0.2186 -0.0873
 8155W        W25679   9.397   3.421  11.052 -0.0054  0.4513 -0.3052
 8156W        W25680   3.341  14.079   0.974 -0.0278  0.1285  0.0319
 8157W        W25681   2.254   4.098  14.476 -0.1363 -0.1947 -0.2541
 8158W        W25682   2.715   1.893  12.129  0.0387 -0.0179 -0.0361
 8159W        W25683   0.332  17.341   0.834 -0.0585  0.0697  0.0107
 8160W        W25684   7.584  12.453   1.532  0.0859  0.0100 -0.2957
 8161W        W25685   7.124  13.439   3.886 -0.2319 -0.0190 -0.0389
 8162W        W25686  15.191   3.902  12.464  0.1873  0.1036  0.0115
 8163W        W25687  13.444  13.229  14.559  0.1076  0.3643 -0.2205
 8164W        W25688  14.289  16.166   0.159 -0.1215  0.1645  0.0562
 8165W        W25689   5.491   7.383  14.443 -0.0648  0.3520  0.3336
 8166W        W25690   5.257   7.862   4.977  0.3765  0.2198  0.1075
 8167W        W25691   7.993  12.124  16.031 -0.0822 -0.2409  0.1163
 8168W        W25692  15.522   1.737  14.678 -0.0977 -0.3671 -0.1005
 8169W        W25693  14.698   2.799   1.657 -0.0998  0.3489  0.2159
 8170W        W25694   9.240  13.885  12.370 -0.0395 -0.3417  0.1622
 8171W        W25695  10.287   1.409  12.758  0.0141 -0.2572 -0.0481
 8172W        W25696  10.943  14.695  15.098 -0.0824 -0.0225  0.1841
 8173W        W25697  14.431   6.755  12.995  0.1326  0.4263 -0.0364
 8174W        W25698  14.677   1.387  15.193 -0.1047  0.1623  0.1760
 8175W        W25699   1.751   2.724   4.753 -0.0181 -0.1592 -0.0625
 8176W        W25700  17.568   9.364   1.215 -0.2095 -0.1977 -0.1681
 8177W        W25701   8.824  10.979   0.938 -0.1031 -0.2691 -0.0402
 8178W        W25702   7.141   9.958   4.772  0.1953 -0.0634 -0.0759
 8179W        W25703   7.822   6.116   4.134 -0.1174 -0.0989  0.1106
 8180W        W25704  16.792  16.637  10.265  0.0184  0.0148  0.0678
 8181W        W25705   0.908  17.732  13.547 -0.0404 -0.0496 -0.0477
 8182W        W25706   9.583  16.779   4.722 -0.2001  0.0494  0.1392
 8183W        W25707  15.434  17.480  13.427 -0.0021 -0.0125  0.0044
 8184W        W25708  13.152  13.756   0.879 -0.2119  0.0026 -0.0054
 8185W        W25709   0.130  13.652  14.913 -0.0976  0.1360 -0.1862
 8186W        W25710   0.039  10.951  12.676 -0.0079 -0.1964  0.1352
 8187W        W25711   3.332  17.807   2.467  0.0485 -0.1258  0.0195
 8188W        W25712   7.119  10.685  11.963  0.3083  0.1950 -0.0433
 8189W        W25713   4.556   0.981   2.651  0.2568 -0.0538  0.2901
 8190W        W25714   5.401   8.575  12.243  0.0201 -0.2823  0.3127
 8191W        W25715   5.415  13.534  11.604 -0.2458 -0.0185  0.0831
 8192W        W25716  12.996  16.755  15.217  0.0108 -0.3692 -0.1261
 8193W        W25717   3.889  15.714   1.696  0.0364 -0.0688  0.2724
 8194W        W25718   3.686  12.453   4.486  0.1302  0.1901 -0.0899
 8195W        W25719   0.032   2.562  16.054 -0.0140 -0.0235  0.2855
 8196W        W25720   6.960   3.809   4.170 -0.0830  0.1191  0.2628
 8197W        W25721   5.384   0.660  13.531  0.1194 -0.0128 -0.1048
 8198W        W25722  16.968   8.625  14.185  0.1197  0.0511  0.0236
 8199W        W25723   2.959  16.191  12.324 -0.0954 -0.0792 -0.0550
 8200W        W25724   2.909   6.439   3.389 -0.0261  0.0269 -0.0525
 8201W        W25725   1.872  13.283   3.309 -0.1630  0.1792 -0.0407
 8202W        W25726  14.679   8.854   5.091  0.1138 -0.2474 -0.2162
 8203W        W25727   8.616   9.717  11.535 -0.0632  0.0480  0.2397
 8204W        W25728   6.120   4.210   3.527  0.0765  0.1815 -0.0521
 8205W        W25729   0.526  13.186   4.407 -0.1559  0.0857 -0.1453
 8206W        W25730   9.471   1.309   2.411  0.3252 -0.2772 -0.0213
 8207W        W25731   5.353   6.524   1.104 -0.0675  0.2299 -0.0038
 8208W        W25732  12.849  12.140  16.225  0.0109 -0.0902  0.1820
 8209W        W25733   2.931   2.458   3.443  0.0893 -0.0504 -0.1083
 8210W        W25734   4.195   6.074   0.940  0.1321 -0.2747  0.2114
 8211W        W25735  11.433   2.870  13.399 -0.0186  0.2274 -0.0418
 8212W        W25736   2.861   0.942  13.964 -0.0845  0.2090  0.0107
 8213W        W25737  14.804  11.076   3.535  0.0437 -0.1321  0.2744
 8214W        W25738  11.931  10.199  14.035  0.1455 -0.0895  0.1169
 8215W        W25739  14.797  17.962  12.818 -0.4102  0.2430 -0.0676
 8216W        W25740  12.906  15.542   1.710  0.3746  0.1879  0.0434
 8217W        W25741   0.343  11.300   2.379  0.3401 -0.0810 -0.2954
 8218W        W25742   2.080  17.912  15.105  0.2207 -0.2104  0.0361
 8219W        W25743  14.885  16.989   4.775 -0.3362  0.0024  0.0443
 8220W        W25744   9.736   9.837   1.844 -0.0343 -0.1206 -0.2383
 8221W        W25745  17.478  14.281  12.544  0.1453  0.1486  0.0069
 8222W        W25746  13.808  12.899   2.349  0.0655 -0.4363 -0.3129
 8223W        W25747   6.421  17.007  11.907  0.1003  0.0135  0.1207
 8224W        W25748   2.543   5.213   2.699  0.2374  0.0722 -0.0743
 8225W        W25749  17.658  13.625  11.794  0.0161  0.0787 -0.2044
 8226W        W25750  13.282   5.783  10.700  0.0222  0.0413 -0.0252
 8227W        W25751   6.291  16.829  13.250  0.1832 -0.1013 -0.0114
 8228W        W25752  12.731   3.988  14.450  0.0274  0.1749 -0.0563
 8229W        W25753   8.191  10.420  11.115  0.3342  0.1316 -0.0096
 8230W        W25754   4.438   1.199   1.623  0.0785 -0.0158  0.1020
 8231W        W25755   3.648  11.161  12.315 -0.0528  0.1397 -0.1327
 8232W        W25756  17.329  15.692   3.209 -0.0738  0.1992  0.1628
 8233W        W25757   0.289  12.755   2.523 -0.0198 -0.2716 -0.3267
 8234W        W25758   6.325   7.334  15.707 -0.1644  0.0536 -0.0233
 8235W        W25759  16.895   6.035   5.454 -0.4370  0.2215 -0.0701
 8236W        W25760   0.221  12.870  11.873  0.2065  0.0540  0.1967
 8237W        W25761   0.774   3.336  12.794 -0.0533  0.2691 -0.1357
 8238W        W25762  13.524   3.172  15.482 -0.3683  0.1718  0.1382
 8239W        W25763  15.844   9.027   1.829 -0.0544 -0.3425  0.1650
 8240W        W25764   7.556  16.840   0.409  0.1863 -0.1795 -0.0294
 8241W        W25765  14.929  14.870  15.669 -0.0312  0.1267  0.0506
 8242W        W25766  11.438  11.581  14.092  0.0046  0.3052 -0.0253
 8243W        W25767   7.339   3.450   1.892  0.2882 -0.1833  0.0790
 8244W        W25768   2.257   6.556   2.723  0.0140 -0.0893  0.1090
 8245W        W25769  11.351  11.364   4.632 -0.1602 -0.1578  0.0990
 8246W        W25770  17.952  11.246   4.983 -0.2332  0.2745 -0.2061
 8247W        W25771   1.080  15.374  12.934  0.0276  0.1628  0.1630
 8248W        W25772   3.071   3.184  15.320  0.1217  0.1538  0.0952
 8249W        W25773  13.993   6.407  13.030  0.0130  0.1710 -0.2368
 8250W        W25774  15.157   2.597  15.034  0.3486 -0.3847 -0.1293
 8251W        W25775   4.476   0.977   4.371 -0.2429  0.0044  0.3755
 8252W        W25776   0.473  15.229   3.613  0.0165  0.1324  0.0931
 8253W        W25777  16.237  11.286  15.740  0.1037 -0.2576  0.1706
 8254W        W25778  13.639   9.347   1.520 -0.2011  0.0805 -0.1849
 8255W        W25779  14.107   6.619  14.548  0.1254  0.0246  0.1313
 8256W        W25780  11.527   6.854   0.376  0.2840  0.1083 -0.1239
 8257W        W25781   6.045  12.075   6.416 -0.1075 -0.2325 -0.0514
 8258W        W25782   5.669   0.942   1.872 -0.3035  0.0739  0.5255
 8259W        W25783   4.931  17.210  11.606  0.2862 -0.2367  0.0400
 8260W        W25784  15.460   1.122  14.878 -0.1358 -0.1546 -0.1835
 8261W        W25785   9.394   4.807   2.929  0.3112  0.1941 -0.0001
 8262W        W25786   8.564   9.470   0.204 -0.0567 -0.0123 -0.2520
 8263W        W25787   9.526   2.459  13.308  0.2309 -0.0240  0.1364
 8264W        W25788   6.580  14.258   0.050 -0.0103  0.1063  0.1903
 8265W        W25789  13.218   1.597   1.154  0.1022 -0.1013 -0.1029
 8266W        W25790   3.476   9.014   4.304 -0.1451  0.2620  0.1568
 8267W        W25791   1.554   8.389   2.197  0.2729  0.1250  0.1685
 8268W        W25792  14.021   0.161  11.605  0.0161  0.1431 -0.0123
 8269W        W25793   6.164  16.457   4.698  0.2859  0.1513 -0.0481
 8270W        W25794   7.603  13.043  15.687  0.0339  0.0756 -0.1032
 8271W        W25795   4.734   5.217   2.136  0.2376  0.0403 -0.4300
 8272W        W25796   1.235  10.587  13.291  0.2268  0.3652 -0.2598
 8273W        W25797   7.184  11.373   3.322  0.1130  0.5043  0.0412
 8274W        W25798   1.366  11.062   2.785  0.3237 -0.4085  0.1939
 8275W        W25799  15.181   3.605   2.327 -0.1342 -0.0029  0.2014
 8276W        W25800   6.853   8.806  16.039 -0.2690 -0.2022 -0.1430
 8277W        W25801  11.913  11.189   0.577  0.0780 -0.1678  0.2688
 8278W        W25802  10.251  15.458   3.384  0.0037 -0.2004 -0.0787
 8279W        W25803  10.171  10.533   2.053 -0.1511  0.3456  0.0003
 8280W        W25804  15.088   9.201   2.398 -0.1082 -0.2027 -0.0878
 8281W        W25805   4.113   6.894  13.354 -0.1814 -0.4164 -0.0945
 8282W        W25806  16.844  17.681  14.894  0.2896 -0.0720 -0.0712
 8283W        W25807  17.181  12.166   3.183  0.0442  0.3592  0.4619
 8284W        W25808   5.729  12.693  13.880 -0.0422  0.1261 -0.0405
 8285W        W25809   9.454  15.734  14.183 -0.4850 -0.0170 -0.1373
 8286W        W25810  11.999  17.415  13.308  0.2228  0.1292 -0.1254
 8287W        W25811  15.853  10.455  15.837 -0.0655 -0.0498 -0.0090
 8288W        W25812   0.538  10.705   4.226 -0.2830 -0.0773 -0.4292
 8289W        W25813  15.301   6.378   3.743 -0.1693 -0.2386  0.2130
 8290W        W25814  16.638   8.595   4.202 -0.1860  0.1617 -0.1195
 8291W        W25815  16.660   1.534  13.249  0.1854  0.2324  0.1486
 8292W        W25816  16.524  11.430   3.804  0.1846 -0.0543  0.0070
 8293W        W25817  11.773  16.259  14.804  0.1317  0.1429  0.0148
 8294W        W25818   6.373   3.253  13.272 -0.2120 -0.2507  0.0187
 8295W        W25819  12.052  14.338   4.776  0.3110  0.0893 -0.0770
 8296W        W25820   0.046  13.650   0.533 -0.0044  0.3082  0.0348
 8297W        W25821   5.988   1.354   4.591  0.1315 -0.1564  0.1171
 8298W        W25822   1.418  10.125  13.358  0.1834  0.0532  0.0880
 8299W        W25823  16.910   3.916  15.896  0.2796  0.2122  0.2844
 8300W        W25824   9.662   7.954  14.940 -0.0051  0.0711 -0.2284
 8301W        W25825  11.730   9.686  11.405  0.2795 -0.2770  0.0139
 8302W        W25826   3.515  16.357   2.306  0.0731 -0.1474 -0.0336
 8303W        W25827   9.908  13.907  10.379 -0.1798  0.0365  0.1278
 8304W        W25828   2.295   1.492   2.590 -0.2051  0.0303 -0.1896
 8305W        W25829   8.425   8.332   3.147  0.0209 -0.0788  0.0721
 8306W        W25830  12.266   8.891  15.831  0.2735 -0.0113  0.1415
 8307W        W25831   7.308  10.832  11.476  0.2726  0.0242  0.0250
 8308W        W25832   6.047  11.262  15.192 -0.1223 -0.0040  0.2128
 8309W        W25833   6.111   6.620  16.149  0.0707 -0.2693 -0.0368
 8310W        W25834  16.882  14.774   0.910 -0.0599 -0.2356 -0.0999
 8311W        W25835   6.960  15.785  11.117  0.1384  0.2941 -0.0773
 8312W        W25836   0.161   9.737   4.082  0.0779 -0.1219 -0.0149
 8313W        W25837  14.520  16.479  11.548  0.0572 -0.0286 -0.1388
 8314W        W25838  10.275   0.709  13.169  0.0595  0.1506 -0.1173
 8315W        W25839   2.667  12.311   1.331  0.3336 -0.1478 -0.0550
 8316W        W25840   3.316  10.359   1.997 -0.0826 -0.0013  0.1447
 8317W        W25841   7.583  13.945   4.143  0.2139 -0.0278 -0.2224
 8318W        W25842   1.609   1.874  11.384 -0.0232 -0.2051  0.1113
 8319W        W25843  10.687   6.839  11.467 -0.0678 -0.0931 -0.1645
 8320W        W25844   0.103   5.050  11.306  0.0941  0.2494 -0.0968
 8321W        W25845  11.430   9.889   0.100 -0.2677  0.2324  0.2413
 8322W        W25846   4.230   6.247  13.860  0.1022  0.1499 -0.0135
 8323W        W25847  11.156   5.606   3.148  0.0566 -0.1534 -0.1909
 8324W        W25848  13.395   2.030   3.482 -0.0336  0.2251  0.0582
 8325W        W25849   3.433  12.361   3.448  0.0312 -0.0538  0.1963
 8326W        W25850   2.954  13.658   5.368 -0.0395 -0.1886  0.0444
 8327W        W25851  12.538  15.512   0.726 -0.1729  0.0743 -0.1270
 8328W        W25852  15.824  17.910  14.645  0.0587  0.0346 -0.1132
 8329W        W25853   6.253  15.549  11.939 -0.0486 -0.2921  0.2224
 8330W        W25854   7.134  10.501  12.877  0.1051  0.0840 -0.0121
 8331W        W25855   1.148   8.762  11.615 -0.0349 -0.0281 -0.1585
 8332W        W25856   0.760   4.269   4.062  0.0561 -0.1358 -0.1123
 8333W        W25857   1.393   9.120   0.583 -0.4856 -0.1444 -0.1150
 8334W        W25858   3.273   3.363   0.894 -0.1195  0.0240 -0.0792
 8335W        W25859   0.278   9.854   1.289 -0.0915 -0.1709 -0.0179
 8336W        W25860  13.883   7.509   0.043  0.1000  0.2577 -0.1146
 8337W        W25861  13.406   2.519   1.358 -0.1697 -0.0028 -0.1315
 8338W        W25862  10.461   6.565   3.759 -0.0228 -0.0193 -0.4382
 8339W        W25863  15.805  14.218  12.680 -0.2426  0.1730  0.0235
 8340W        W25864   9.885  14.850   6.030  0.0394 -0.1141  0.0487
 8341W        W25865   3.586   1.842   3.027 -0.2509 -0.0589 -0.2394
 8342W        W25866  17.417  17.807  12.806  0.1436  0.0101  0.0972
 8343W        W25867   6.126   9.910   5.221  0.1638  0.1717 -0.0084
 8344W        W25868   5.402   7.284   3.611  0.0649 -0.2271  0.0602
 8345W        W25869   0.605   6.113   0.527 -0.0761 -0.2729 -0.0063
 8346W        W25870  13.885  12.851   4.636  0.0103  0.0224 -0.1023
 8347W        W25871  13.231  11.715   0.544  0.0858 -0.0052 -0.2747
 8348W        W25872  14.353  10.455   0.195  0.0548  0.0615  0.1747
 8349W        W25873   0.759  15.580  11.894  0.1194  0.0911  0.4263
 8350W        W25874   9.610   8.857   3.592 -0.0115  0.2557  0.0246
 8351W        W25875  12.419  10.479  14.211 -0.1211  0.1288  0.0210
 8352W        W25876   5.005   6.098  12.685  0.0795  0.1082  0.1516
 8353W        W25877   3.713   8.720  15.482  0.1327  0.0331  0.2663
 8354W        W25878  13.413  15.330  15.001  0.0816 -0.0531  0.1863
 8355W        W25879  11.411   1.555  14.936 -0.1305  0.1193  0.1585
 8356W        W25880   7.785   1.866  13.238  0.0366 -0.1033  0.3267
 8357W        W25881   1.713   9.870   1.754  0.2818 -0.0840 -0.1582
 8358W        W25882   0.456   9.471  15.707 -0.3528  0.1630 -0.2056
 8359W        W25883   9.544   8.812   4.455 -0.0901 -0.1812 -0.1071
 8360W        W25884   3.356  10.961   0.692 -0.1579 -0.0079 -0.1397
 8361W        W25885   0.359   3.614  16.058 -0.2581  0.3080  0.0123
 8362W        W25886  12.505  10.334  12.976 -0.0679 -0.2942 -0.0008
 8363W        W25887  10.302  14.794   0.917  0.1669 -0.1991  0.1237
 8364W        W25888   1.947   8.652  12.494  0.0039 -0.0840  0.0819
 8365W        W25889   0.826   1.282   5.273 -0.0352  0.0847  0.0001
 8366W        W25890   4.366  16.439   0.756  0.1674  0.0090  0.1094
 8367W        W25891   3.910   3.412  14.366 -0.0932 -0.1281  0.0670
 8368W        W25892   5.460  17.468  13.006  0.0844  0.2088 -0.0080
 8369W        W25893  17.302   6.604   0.129 -0.2633 -0.0399  0.2441
 8370W        W25894   5.913  15.409   4.094 -0.1402 -0.1331  0.1670
 8371W        W25895   8.635   6.393   3.569  0.2710 -0.1095  0.2551
 8372W        W25896  15.235   5.131   0.263  0.0047  0.1113 -0.2775
 8373W        W25897   2.754  11.338   2.657  0.0005  0.2065  0.2367
 8374W        W25898   0.067   1.282   3.462  0.1806 -0.1682 -0.1537
 8375W        W25899  14.802  12.673   3.746  0.3436  0.3901  0.0587
 8376W        W25900  11.794   8.599   2.645 -0.1095 -0.0002  0.4023
 8377W        W25901   4.315   9.694  14.129  0.0146  0.0443  0.0348
 8378W        W25902  13.022  15.882  14.474  0.2388  0.2410  0.1207
 8379W        W25903  13.866  12.196   2.907  0.0554 -0.1684 -0.1901
 8380W        W25904  11.976   8.587  12.473  0.1599 -0.0689  0.0388
 8381W        W25905   2.946  17.578   2.731  0.1708  0.1497  0.3432
 8382W        W25906  17.624   3.260  12.675  0.0149  0.0411 -0.2344
 8383W        W25907   6.642  17.628  15.159  0.0539 -0.0158  0.0564
 8384W        W25908  16.091   6.276  15.981 -0.0148 -0.2047  0.3263
 8385W        W25909   0.951  11.412   0.486  0.1537 -0.0459 -0.0063
 8386W        W25910   8.494  11.014   2.740 -0.0439  0.0997  0.3201
 8387W        W25911   6.640   7.192  15.235 -0.1427  0.0247  0.2008
 8388W        W25912   7.086  16.514  15.569 -0.0863  0.0231  0.1878
 8389W        W25913   9.027   9.627  12.816  0.0432  0.1337 -0.0942
 8390W        W25914   6.246  16.541   5.242  0.1443  0.1154  0.0611
 8391W        W25915   2.609  16.373   3.257  0.0271 -0.6104  0.0362
 8392W        W25916  16.439  14.685   0.614  0.0314  0.1387 -0.2848
 8393W        W25917   3.110  13.041   4.646  0.2005  0.1741  0.1460
 8394W        W25918  13.050  16.841   4.064 -0.0369 -0.2352 -0.3454
 8395W        W25919   6.700  17.339  14.607  0.1536  0.0318  0.1539
 8396W        W25920  12.178   4.348   4.966 -0.0705 -0.0125  0.0126
 8397W        W25921  16.409   5.217  15.400 -0.0569 -0.0446 -0.1585
 8398W        W25922   5.610   5.282  12.727  0.0644 -0.4005  0.2016
 8399W        W25923   1.710   1.228  13.881 -0.2083 -0.0187 -0.1522
 8400W        W25924   6.769   2.885  15.153  0.0225  0.1094 -0.0891
 8401W        W25925   2.692   8.003  11.756 -0.1043 -0.0110 -0.0669
 8402W        W25926  17.691   7.761  16.229 -0.0067  0.0432 -0.0777
 8403W        W25927  10.117  15.737   4.054 -0.0112  0.1045  0.1350
 8404W        W25928  17.382   8.643  11.460 -0.0651  0.0748  0.1731
 8405W        W25929  17.657  17.906   3.067 -0.0457  0.0400  0.1844
 8406W        W25930   2.380   4.618  12.021  0.3012  0.1707 -0.0952
 8407W        W25931   3.574  14.142   4.211  0.1752 -0.0600  0.1447
 8408W        W25932   2.870  10.424  12.474  0.1516 -0.1354 -0.1418
 8409W        W25933   2.826  15.789  14.754  0.0861  0.0322 -0.0696
 8410W        W25934   5.182   6.715  11.436  0.0665 -0.2805 -0.0144
 8411W        W25935   7.932   7.622  14.601 -0.0949 -0.0945 -0.0473
 8412W        W25936   3.985  11.184   5.022  0.0738  0.2072 -0.1460
 8413W        W25937   1.422   9.398  13.568 -0.2793  0.0746  0.2866
 8414W        W25938  14.648   2.472  11.693  0.0678 -0.0119  0.1553
 8415W        W25939   4.237   1.240  14.908 -0.1079  0.0775 -0.1407
 8416W        W25940   5.619   2.179  15.911  0.0153 -0.1077 -0.0541
 8417W        W25941   3.995  14.689  12.978  0.0326 -0.1558 -0.2434
 8418W        W25942   0.878  10.707   4.596  0.0216 -0.1635  0.0326
 8419W        W25943   0.322  11.792  13.967 -0.0345  0.2146  0.0050
 8420W        W25944  13.912  13.344  14.634 -0.0867  0.3064  0.0379
 8421W        W25945  16.143  16.786   2.773  0.1982  0.1347 -0.1468
 8422W        W25946  15.343   1.298  12.966  0.3525 -0.0834  0.0502
 8423W        W25947  11.441   5.656  11.618 -0.0806 -0.0366 -0.3222
 8424W        W25948   0.674   8.889   0.627  0.0863 -0.1070  0.1031
 8425W        W25949   6.592   6.692  16.108 -0.0050  0.1581 -0.2268
 8426W        W25950   3.738   2.955  12.106 -0.0391 -0.1594  0.1464
 8427W        W25951   5.258  11.637   3.823  0.1380  0.0168 -0.0432
 8428W        W25952   0.734   4.027  14.969  0.1338 -0.2779 -0.2093
 8429W        W25953  15.303   8.932   3.536 -0.0918  0.4453 -0.0176
 8430W        W25954  15.601   5.800   2.393 -0.2879 -0.1815 -0.2170
 8431W        W25955   0.968  11.242   4.501 -0.0524 -0.1075  0.1162
 8432W        W25956  16.658   1.913   1.129  0.0697  0.0569 -0.1470
 8433W        W25957   8.856  10.240   1.379  0.1538  0.1528  0.0828
 8434W        W25958  15.278   2.029  15.122  0.0791 -0.1769  0.0997
 8435W        W25959  16.214  16.320   2.856  0.1833  0.4129  0.3467
 8436W        W25960  16.554   4.331   4.702 -0.2547  0.0743 -0.1352
 8437W        W25961  13.822  12.371  16.029 -0.1316  0.2381  0.0892
 8438W        W25962   0.719   9.092  13.833 -0.1480 -0.0596 -0.0100
 8439W        W25963   8.427   4.500   5.405 -0.0731  0.1144 -0.0068
 8440W        W25964   5.373   4.489   3.962 -0.1483 -0.0703 -0.0913
 8441W        W25965  13.860   9.191  11.214 -0.2294  0.0141  0.1828
 8442W        W25966   4.523   1.536   1.236  0.2336 -0.0653  0.0239
 8443W        W25967   8.773  13.075   4.527  0.2576 -0.2883  0.0132
 8444W        W25968   2.523   9.587  12.240  0.2599 -0.2266 -0.0287
 8445W        W25969  12.343   4.284  14.351  0.0385  0.1188 -0.1400
 8446W        W25970   3.084  11.439  11.576  0.0354 -0.2129 -0.2386
 8447W        W25971  17.387   4.043  13.965  0.1045  0.4237  0.1534
 8448W        W25972   1.127  13.346  13.803 -0.1547  0.1122  0.0098
 8449W        W25973  13.673   2.791  12.385 -0.1009 -0.0253  0.1615
 8450W        W25974  11.792  16.334   1.273 -0.0705 -0.0822  0.1029
 8451W        W25975   2.214   2.601  16.182  0.1111  0.0423 -0.0261
 8452W        W25976  15.757  17.109   1.267  0.0780 -0.1542 -0.0613
 8453W        W25977   8.164   5.503   2.087  0.1920 -0.1527  0.1942
 8454W        W25978   1.853  17.587  15.691 -0.0309  0.1015 -0.0125
 8455W        W25979   3.078  11.740   3.966  0.1171 -0.1392 -0.1729
 8456W        W25980   3.667  13.332  14.924  0.0256  0.0419 -0.1452
 8457W        W25981   9.158  16.588   2.195 -0.1117  0.2328  0.0645
 8458W        W25982  11.053   9.760  14.141 -0.3366 -0.3739 -0.2119
 8459W        W25983   3.226   1.397   5.036  0.2370 -0.1944  0.3598
 8460W        W25984   1.263  14.888  11.450  0.2516  0.4157 -0.2229
 8461W        W25985  11.761   9.929   4.710 -0.0852  0.0905  0.2029
 8462W        W25986   0.054   9.848  14.858 -0.1606 -0.1629  0.0044
 8463W        W25987  16.928   1.295  13.577  0.1373  0.0385  0.1392
 8464W        W25988   6.379   3.012  12.656 -0.2436 -0.0943  0.2724
 8465W        W25989  16.179  11.700  14.997  0.2176  0.0480 -0.2469
 8466W        W25990   9.773   2.710  16.236  0.0771  0.3264  0.0821
 8467W        W25991  11.382  14.319  15.193 -0.0230 -0.1174 -0.3725
 8468W        W25992   3.529   3.561   1.679  0.3657 -0.2934  0.0436
 8469W        W25993  15.139  17.360  15.826 -0.0636 -0.1462  0.1024
 8470W        W25994   8.195   9.851   2.200 -0.1265  0.1908 -0.1833
 8471W        W25995   2.082  13.430  13.872 -0.0102 -0.2586 -0.0274
 8472W        W25996   6.318   9.761  12.452 -0.1666  0.2791  0.2475
 8473W        W25997   8.496  15.450  11.794  0.0034 -0.0267 -0.0468
 8474W        W25998  10.863  11.326   1.239  0.0153 -0.3337 -0.2848
 8475W        W25999   3.829  16.586  16.120 -0.1664 -0.0238 -0.0377
 8476W        W26000   1.701  17.396   3.276 -0.0409 -0.0842  0.1696
 8477W        W26001  17.496  15.894   3.637 -0.0415  0.0344  0.0300
 8478W        W26002   7.098   9.754   4.234  0.2782 -0.1261  0.2402
 8479W        W26003  16.543   5.503   1.556  0.2657  0.0221  0.1199
 8480W        W26004   8.659  11.352   5.012 -0.0927 -0.0972 -0.0685
 8481W        W26005  10.763  12.183  14.551  0.0228  0.0664 -0.0201
 8482W        W26006  13.413   1.778  13.842 -0.0214  0.2443  0.1861
 8483W        W26007   3.186   0.804  14.918 -0.2936  0.3741 -0.0366
 8484W        W26008  17.143   7.004  11.866 -0.2750 -0.3543 -0.0114
 8485W        W26009   8.957  14.126   1.688  0.0112  0.0060 -0.0422
 8486W        W26010  16.448   9.537   2.340  0.1427  0.1862  0.0908
 8487W        W26011  10.793   2.429  12.988 -0.2311 -0.0871 -0.1093
 8488W        W26012   3.197  15.214   4.638  0.0110 -0.1486 -0.0706
 8489W        W26013   6.336   8.376   3.327 -0.1504  0.1751 -0.1832
 8490W        W26014  13.834  17.278   0.503 -0.2029 -0.2832  0.0309
 8491W        W26015   6.373  16.993  14.558  0.0187 -0.1627  0.1678
 8492W        W26016  17.709  12.082  15.106 -0.2384  0.3200 -0.1212
 8493W        W26017  12.455   7.070  11.582  0.0798  0.0017  0.3089
 8494W        W26018  10.514   5.991  14.939 -0.2012  0.0624  0.0051
 8495W        W26019   2.802  11.827   3.439  0.2628  0.1604  0.0023
 8496W        W26020   2.899  15.571   0.764  0.1938  0.1565  0.2656
 8497W        W26021   0.598  17.719  14.869  0.1025  0.4259 -0.3615
 8498W        W26022   6.419   3.530  13.730 -0.0375  0.2266 -0.1844
 8499W        W26023   2.391   0.317   2.425  0.2688 -0.2952 -0.0314
 8500W        W26024   1.337   2.450   5.112  0.1417  0.2762  0.0731
 8501W        W26025   2.617  16.209   1.514  0.1950 -0.1990  0.1986
 8502W        W26026   6.256  16.765  15.422  0.1568  0.0588 -0.0255
 8503W        W26027   0.800   1.306   1.700 -0.1069  0.1124  0.1548
 8504W        W26028   9.252  15.958  12.924  0.1570  0.1442  0.1164
 8505W        W26029   9.453   1.200  13.116 -0.0830  0.1039 -0.0233
 8506W        W26030  13.677   0.072  15.989 -0.2909 -0.4492 -0.0602
 8507W        W26031   0.272   9.209  13.125  0.0153 -0.0773  0.1474
 8508W        W26032  13.501   8.963   4.602 -0.2029 -0.0274  0.4048
 8509W        W26033  15.842  13.808   1.739  0.0749 -0.1295  0.0849
 8510W        W26034  12.766   3.127  14.189  0.3007  0.2498 -0.1602
 8511W        W26035   1.939   0.001   2.661  0.0342 -0.1113 -0.0940
 8512W        W26036  13.056   6.428   4.546 -0.0102 -0.4329 -0.0369
 8513W        W26037   1.366  12.792  13.828  0.3081  0.4222 -0.3318
 8514W        W26038  15.102  13.889  11.902 -0.0468 -0.1082  0.1852
 8515W        W26039   1.892  14.958   4.264 -0.0138  0.3028 -0.1724
 8516W        W26040   6.510  16.543   2.259 -0.0309 -0.3424  0.0307
 8517W        W26041  10.771   4.040  13.161 -0.1143  0.0946 -0.0338
 8518W        W26042   1.634   1.690   5.164 -0.0186  0.0334 -0.0122
 8519W        W26043   5.407  17.898   1.001  0.2037 -0.0051 -0.0240
 8520W        W26044  13.909  15.249  11.266 -0.0829 -0.0431 -0.3544
 8521W        W26045   2.669   5.334   0.048 -0.2486 -0.3601  0.1179
 8522W        W26046   8.978  12.256   5.211 -0.2375  0.1181  0.1624
 8523W        W26047   2.095  12.256   4.542  0.4019  0.1926 -0.0932
 8524W        W26048  14.899  13.570   0.602  0.0820  0.0590  0.3079
 8525W        W26049   2.414  16.547   5.040  0.1519 -0.1635 -0.2059
 8526W        W26050   9.257  14.524   3.979  0.0335 -0.0594  0.0940
 8527W        W26051   1.957   0.697  14.247  0.1414 -0.2570 -0.1375
 8528W        W26052  14.672   0.944   2.304  0.0261 -0.2174 -0.0285
 8529W        W26053   0.965   3.919  14.152 -0.1097 -0.1777  0.0668
 8530W        W26054   3.810  13.628   3.718 -0.1426  0.1214 -0.0541
 8531W        W26055   7.045  13.846  15.464 -0.0761 -0.1868  0.0300
 8532W        W26056   6.860   7.280   4.295  0.1087 -0.1629 -0.0773
 8533W        W26057   7.854   3.041   2.607  0.1590 -0.1082  0.1654
 8534W        W26058   5.795  14.591  13.092 -0.0944  0.0706 -0.2077
 8535W        W26059  10.551   9.637   1.776 -0.1215  0.0713  0.2516
 8536W        W26060   0.448   5.327  14.216  0.1119  0.0575  0.3009
 8537W        W26061  14.137  10.854  13.866  0.1138  0.0504 -0.3387
 8538W        W26062  15.673   6.622  12.816  0.1720  0.1205 -0.1587
 8539W        W26063   8.982  10.616  15.276  0.3090 -0.1710  0.1762
 8540W        W26064  13.016   1.559   5.555 -0.0786  0.0269  0.0839
 8541W        W26065   9.761   5.530  13.801 -0.2250  0.1398  0.0676
 8542W        W26066   8.833  15.414   2.576 -0.1086  0.1609  0.0669
 8543W        W26067   0.337  17.478   6.100  0.2809  0.1173 -0.0651
 8544W        W26068   8.926  14.706   3.545 -0.1703 -0.1544 -0.3350
 8545W        W26069   3.103   3.857  14.379 -0.4041 -0.3512 -0.1514
 8546W        W26070   3.016  16.164   2.911  0.2571 -0.0457 -0.1249
 8547W        W26071   1.289  17.819   0.743  0.0307  0.0613 -0.0667
 8548W        W26072  12.631   9.782  12.573  0.0980  0.0631 -0.0182
 8549W        W26073   4.659  17.220   2.439 -0.2235 -0.1806 -0.4530
 8550W        W26074   3.578   3.087  15.186  0.1866 -0.0474 -0.1135
 8551W        W26075   3.755  12.185   1.347  0.0715 -0.0019 -0.1404
 8552W        W26076  16.387  16.451   3.794  0.0102  0.1369  0.0762
 8553W        W26077  13.880   9.721  15.850  0.4114 -0.1308  0.0394
 8554W        W26078  10.312  11.352   4.573 -0.2540  0.2838 -0.0781
 8555W        W26079  13.490   4.844   0.305 -0.0129 -0.0497 -0.0100
 8556W        W26080   2.555   3.729   3.759  0.1012  0.0060  0.0818
 8557W        W26081   1.501   7.673   2.818  0.0269  0.0199 -0.0895
 8558W        W26082  14.974   0.446   5.002  0.1353 -0.1279 -0.0643
 8559W        W26083   0.889  15.151  15.306  0.0104  0.2053 -0.0392
 8560W        W26084  16.776   8.221  15.812 -0.0550 -0.1365 -0.0558
 8561W        W26085   8.159   5.329  13.716 -0.2837 -0.2650  0.0164
 8562W        W26086  17.178   0.546   3.948  0.2121  0.0126 -0.0257
 8563W        W26087   7.375  16.974   3.407  0.0183 -0.1576 -0.1566
 8564W        W26088  16.036   1.094   1.844 -0.3505  0.0891 -0.0573
 8565W        W26089  14.544   0.353   4.710  0.1310 -0.0457  0.0190
 8566W        W26090   7.334   4.472   0.992  0.0173  0.1870 -0.0258
 8567W        W26091   0.023  10.353  13.592  0.1314  0.1224  0.1299
 8568W        W26092   3.372  16.986   3.009 -0.0614  0.2023  0.1403
 8569W        W26093  12.094   2.589  14.467  0.3051  0.1644  0.1162
 8570W        W26094   8.405   4.677   1.796  0.0516  0.2590  0.4660
 8571W        W26095   1.186   5.085   5.957 -0.1518  0.1941  0.0186
 8572W        W26096  13.407   1.867   2.467 -0.0213 -0.0729  0.0824
 8573W        W26097  17.108  12.803  14.928 -0.1156 -0.2902 -0.1955
 8574W        W26098   0.452   7.133   4.743  0.0993 -0.0870 -0.0799
 8575W        W26099   0.170   4.670  15.444  0.0555 -0.2753 -0.3376
 8576W        W26100   1.692   6.612  13.695 -0.0107  0.3326  0.0774
 8577W        W26101  14.768   1.035   3.951 -0.2129 -0.0178  0.0594
 8578W        W26102   8.133  13.251   3.122  0.1271 -0.4184  0.0067
 8579W        W26103   4.011   7.569  15.812  0.2135 -0.0413  0.0467
 8580W        W26104   3.003  14.145  14.232  0.1665  0.0653 -0.2107
 8581W        W26105   5.554  17.007   4.752 -0.1585  0.1784 -0.1936
 8582W        W26106  10.301   2.833  11.585  0.0720  0.0585  0.2762
 8583W        W26107   9.988   4.245   2.808  0.3740 -0.1723  0.0413
 8584W        W26108  11.682   7.313  12.010  0.1503 -0.1249  0.1948
 8585W        W26109   5.118  11.335   2.822 -0.1307  0.0258  0.0493
 8586W        W26110  16.514  12.680   0.913 -0.1190  0.0919  0.1012
 8587W        W26111  10.694   5.591  15.238 -0.1095 -0.0442  0.0884
 8588W        W26112  17.481  10.010   2.780 -0.0633  0.2480  0.0178
 8589W        W26113  10.937  11.894  15.993 -0.0035 -0.2568  0.0607
 8590W        W26114   9.021  14.577  13.035 -0.1478  0.1442  0.3028
 8591W        W26115   8.011  16.477   0.218 -0.0934  0.0990 -0.2834
 8592W        W26116   1.389  16.230   0.304 -0.0772  0.1907 -0.3063
 8593W        W26117  13.056  16.254   1.029  0.0300 -0.0940 -0.0413
 8594W        W26118  14.446   1.290   0.739  0.0453  0.1327  0.1877
 8595W        W26119   9.964  10.490   3.880 -0.0302 -0.3128 -0.1152
 8596W        W26120  13.294  17.737  11.495 -0.0004 -0.0134  0.1470
 8597W        W26121  14.541  16.335  10.947  0.1556 -0.2303  0.0172
 8598W        W26122  12.490   5.600  14.854 -0.0951  0.1215  0.3045
 8599W        W26123   4.230   9.653   2.822 -0.1165 -0.0834 -0.0002
 8600W        W26124  11.133   5.672  15.428  0.0507  0.0595 -0.0171
 8601W        W26125  14.286  16.996   1.061  0.3723 -0.0522 -0.1056
 8602W        W26126   1.064   6.891   2.758 -0.3488 -0.1495  0.0150
 8603W        W26127   6.427   0.039  15.491  0.0270  0.2461  0.4472
 8604W        W26128   1.005   3.607   2.417 -0.1687 -0.1434 -0.0977
 8605W        W26129  11.269   9.510   0.506  0.0783 -0.2103  0.2425
 8606W        W26130   9.992   0.085   0.756  0.0547  0.0340  0.0729
 8607W        W26131  17.722   4.337   4.381  0.0250  0.0553  0.4026
 8608W        W26132   7.852   9.091  11.523 -0.0505 -0.1770 -0.1187
 8609W        W26133   2.453  16.489  12.109  0.0334  0.3073  0.0066
 8610W        W26134   5.810  10.430   2.373  0.1390  0.0019 -0.1252
 8611W        W26135  10.044  11.818  15.566  0.2025 -0.1601  0.1223
 8612W        W26136   8.593  10.630   1.242 -0.2695 -0.0899  0.0881
 8613W        W26137   1.414   8.748   2.602  0.1233 -0.2907  0.0731
 8614W        W26138   8.054  12.839   1.708  0.1562 -0.0951 -0.1059
 8615W        W26139  12.811   9.984   1.114  0.0052  0.3680  0.0785
 8616W        W26140  13.121   6.242  14.582  0.0284 -0.1268 -0.1628
 8617W        W26141  13.344   0.557  13.442 -0.0577  0.0285 -0.0534
 8618W        W26142   2.754  10.062  13.128  0.0852  0.0328  0.1152
 8619W        W26143  10.751   7.645  14.165  0.2819 -0.1806 -0.1962
 8620W        W26144   4.606  11.871   1.594 -0.0330  0.0199  0.3086
 8621W        W26145  11.709  13.864   4.787 -0.2260  0.2691  0.2025
 8622W        W26146   4.248   1.732  13.612  0.0837  0.0255 -0.1774
 8623W        W26147   1.550  13.447  14.052 -0.1764  0.1478  0.0246
 8624W        W26148   4.739  16.290  11.700 -0.0121  0.1707  0.4018
 8625W        W26149   7.515   3.585   4.976  0.2049 -0.0715  0.0151
 8626W        W26150   0.904  10.992   5.091  0.2018 -0.0401  0.0047
 8627W        W26151   6.760  14.168   2.125 -0.1055  0.3408  0.0317
 8628W        W26152   1.026  13.985   5.197  0.4311 -0.1822  0.2638
 8629W        W26153   3.498   9.487  13.265 -0.1177 -0.0383  0.0049
 8630W        W26154  10.777   1.482   3.602  0.0942 -0.1060 -0.0649
 8631W        W26155   5.086   5.955  14.410 -0.3109  0.0927  0.2371
 8632W        W26156   4.048   7.401  13.805 -0.1065 -0.0422 -0.1153
 8633W        W26157  12.562  14.298  12.189  0.1408  0.2609  0.2806
 8634W        W26158  17.059   7.313   3.013 -0.1633 -0.0843 -0.0933
 8635W        W26159  14.471   1.848   1.952 -0.1336 -0.0050 -0.0694
 8636W        W26160   7.407   1.555   2.676 -0.0535 -0.1858  0.0366
 8637W        W26161  12.410   6.260   3.535  0.1358 -0.0833  0.0514
 8638W        W26162  15.911  12.715  11.920  0.1186  0.2128  0.0449
 8639W        W26163   6.166  15.023   3.325  0.0192  0.0804  0.3015
 8640W        W26164  12.809  12.600  10.915  0.0365 -0.1561 -0.2039
 8641W        W26165   5.155   7.806   2.864  0.2756 -0.0278  0.1151
 8642W        W26166   3.448   1.270  14.774 -0.0461 -0.3030 -0.3663
 8643W        W26167   1.515   6.725   0.527  0.4472  0.1032 -0.0242
 8644W        W26168   9.745   4.546  15.530  0.0737 -0.0577 -0.2668
 8645W        W26169   8.633   1.510   2.860  0.0852  0.1690  0.3132
 8646W        W26170  10.129   4.485   4.790  0.0845 -0.3872 -0.2578
 8647W        W26171  17.872  13.060   2.320 -0.3271 -0.1304 -0.1443
 8648W        W26172   2.151   1.203  14.246  0.0780  0.0443  0.2292
 8649W        W26173  13.227   8.710   1.904  0.3258  0.1961  0.0290
 8650W        W26174  13.493  17.014   4.887 -0.0197 -0.1579  0.0698
 8651W        W26175  13.674  17.112  13.140 -0.1026 -0.0168 -0.0017
 8652W        W26176   2.077   9.254  15.342  0.1136 -0.1976 -0.0536
 8653W        W26177  16.693   4.400  15.122  0.3473 -0.1956  0.3621
 8654W        W26178   8.843  17.521   2.908  0.1603 -0.0119  0.1134
 8655W        W26179   6.431   6.241   3.488  0.1278  0.0497 -0.0963
 8656W        W26180  15.719   2.480  13.891 -0.2148 -0.1088  0.3384
 8657W        W26181   8.818  16.321   3.666 -0.0695  0.2693 -0.4172
 8658W        W26182   7.410   1.018   2.727  0.0574  0.4048  0.0407
 8659W        W26183   7.160   7.177  15.034  0.1662 -0.1283  0.0176
 8660W        W26184   4.386  11.520  11.422  0.2395  0.0039  0.0581
 8661W        W26185   4.968  13.023  13.077 -0.0207 -0.1378 -0.1084
 8662W        W26186  12.729   2.884   0.239  0.1175 -0.0522 -0.1729
 8663W        W26187  10.892  16.697   1.272 -0.2122  0.1458 -0.4523
 8664W        W26188   9.568   6.374   3.111  0.1591  0.0640  0.0999
 8665W        W26189   9.613   1.212  14.235 -0.0609  0.2135  0.2093
 8666W        W26190   3.441  14.805  15.825 -0.4073 -0.1482  0.2498
 8667W        W26191   4.099  16.656  12.784  0.3062  0.3485 -0.1006
 8668W        W26192   4.789   4.977   0.960 -0.0184 -0.1125  0.0849
 8669W        W26193  14.879   2.017  12.084 -0.0522 -0.2363 -0.1310
 8670W        W26194  16.586   1.482   1.312 -0.2668  0.1320  0.1232
 8671W        W26195  10.962   5.679  14.793  0.1620  0.3981 -0.0001
 8672W        W26196  16.523   8.118   2.279 -0.3978  0.1899 -0.0576
 8673W        W26197  10.510  16.404   2.299 -0.0990 -0.0485  0.1129
 8674W        W26198   6.405   0.630   1.181 -0.2761  0.0088 -0.2613
 8675W        W26199  15.727   0.715  15.757 -0.2907  0.1429 -0.0940
 8676W        W26200   6.527  13.734  12.115  0.2584  0.1583 -0.2374
 8677W        W26201  15.815  14.982  13.059 -0.0130  0.0570  0.1067
 8678W        W26202   7.300  15.875   0.601  0.3839 -0.2849  0.3279
 8679W        W26203   0.611   0.009   4.018 -0.0385  0.0578  0.0820
 8680W        W26204   5.072   8.909   2.863  0.1262 -0.3461 -0.0046
 8681W        W26205  13.434  16.299  12.170 -0.0426 -0.1935 -0.0397
 8682W        W26206   6.309  11.721   1.295  0.0560  0.0030  0.0423
 8683W        W26207  14.220  17.661   1.989  0.3034 -0.1128  0.2868
 8684W        W26208  15.816  14.465  11.565 -0.1889  0.1037 -0.0377
 8685W        W26209  16.053  17.376  15.174  0.1698 -0.0497  0.0623
 8686W        W26210  13.794  10.087  12.751 -0.0825 -0.1875  0.0956
 8687W        W26211   3.018  10.266   4.161 -0.0837 -0.0454 -0.0485
 8688W        W26212   0.484   4.287  14.492 -0.0373 -0.0600  0.0695
 8689W        W26213   3.954   8.029   4.600 -0.1992  0.1398  0.3408
 8690W        W26214   8.783  13.763  14.976  0.1167  0.2646 -0.0516
 8691W        W26215   4.470   5.468  12.771 -0.2070  0.1012  0.0298
 8692W        W26216   6.723  11.323   4.237 -0.2416 -0.1049 -0.0300
 8693W        W26217   1.862   3.805   4.944 -0.0336  0.0428 -0.0760
 8694W        W26218   1.432  11.724  12.519  0.2373  0.2890  0.0632
 8695W        W26219  16.993  16.714  12.955  0.0648 -0.3239 -0.2201
 8696W        W26220   8.376   8.851   0.990  0.2038 -0.0981 -0.2771
 8697W        W26221   4.952  11.045  11.906  0.0795 -0.1014 -0.0195
 8698W        W26222  14.278   1.160   3.150 -0.1836  0.1307 -0.1771
 8699W        W26223   7.303   0.634   0.637 -0.0711 -0.0198  0.0171
 8700W        W26224   5.742  14.247  12.240  0.2673  0.2662  0.1148
 8701W        W26225  16.757  10.473  13.146 -0.1213  0.0708 -0.0879
 8702W        W26226   5.094   9.516  15.016 -0.1981 -0.3007  0.1364
 8703W        W26227   2.328  13.261   0.351  0.0960  0.1469 -0.1062
 8704W        W26228   1.537   9.907   2.201  0.1175  0.0636 -0.3338
 8705W        W26229   5.093   4.678  14.497  0.2405  0.0235 -0.1301
 8706W        W26230  16.884  14.287  14.954 -0.1007  0.0042  0.2348
 8707W        W26231  13.345  11.409   4.856  0.0079  0.0048  0.0368
 8708W        W26232   3.261   3.406  11.565  0.0806 -0.0171  0.2400
 8709W        W26233   9.946   0.296  16.174 -0.0155 -0.0777 -0.1618
 8710W        W26234  10.144   7.028  13.692  0.0672  0.0680  0.1095
 8711W        W26235   1.692   5.693  13.651 -0.3911 -0.0125  0.3105
 8712W        W26236  17.312  17.792   0.627  0.1949  0.0717  0.0898
 8713W        W26237   4.795   9.367  14.645 -0.1664 -0.2667 -0.0927
 8714W        W26238  10.111   1.007   0.439 -0.0132 -0.1635  0.0699
 8715W        W26239   8.291   0.011  14.603  0.1432  0.0721 -0.0129
 8716W        W26240  14.745   7.333   4.590  0.1781 -0.0670 -0.1727
 8717W        W26241   5.173  15.067   0.709  0.1645 -0.2364 -0.1397
 8718W        W26242   5.593   5.927  14.476  0.0323 -0.0663  0.1688
 8719W        W26243   8.481  16.588  11.598  0.1475 -0.2551  0.3970
 8720W        W26244   8.367   6.522  15.501 -0.0608  0.2120  0.1473
 8721W        W26245   2.037   7.795   1.003 -0.2990 -0.3490 -0.1376
 8722W        W26246   8.345   5.592  11.811 -0.1742 -0.0780  0.0423
 8723W        W26247   2.626   8.110  15.986  0.2996 -0.0430 -0.2180
 8724W        W26248   6.323  16.965   3.486  0.0629 -0.1416  0.1396
 8725W        W26249   1.150   1.564  12.589  0.1024 -0.4125 -0.2518
 8726W        W26250   8.486  10.504  11.479  0.1526  0.2067 -0.1779
 8727W        W26251   8.212  16.941   2.138 -0.0631  0.0492  0.1350
 8728W        W26252  10.722  17.163   0.887  0.1038  0.1849  0.1503
 8729W        W26253   6.788  15.285  14.480  0.2845  0.0286  0.0996
 8730W        W26254   1.382   6.416   1.070 -0.2609 -0.3372  0.0786
 8731W        W26255  11.139   0.028  11.296  0.2187  0.1717 -0.3294
 8732W        W26256   2.651   3.947   0.350  0.2977 -0.0319  0.3138
 8733W        W26257   6.626  11.010  13.948 -0.1016 -0.2100 -0.1256
 8734W        W26258   9.694   2.330  14.349 -0.1686 -0.2643 -0.0776
 8735W        W26259   6.787   0.837  11.185 -0.0835 -0.0607  0.1902
 8736W        W26260   0.124   5.528   0.198 -0.0738  0.0089  0.0855
 8737W        W26261   2.618  10.341  13.839 -0.1519 -0.1706 -0.0670
 8738W        W26262  12.637   4.617   3.333 -0.1140 -0.3755  0.1909
 8739W        W26263  16.601   0.568   0.501  0.0215  0.2628  0.0204
 8740W        W26264  14.435   6.876   3.387  0.0817 -0.1453  0.1302
 8741W        W26265   3.310  17.566  15.709 -0.1102 -0.1306  0.1045
 8742W        W26266   0.182  17.506   0.349 -0.1837 -0.2723 -0.3321
 8743W        W26267  12.850  11.136  13.540  0.0083 -0.2684  0.2366
 8744W        W26268   8.784   5.025   1.523 -0.1590 -0.2684  0.1966
 8745W        W26269   3.361  12.392  15.223  0.0898 -0.1159  0.1361
 8746W        W26270  16.891   3.981  15.407 -0.0908 -0.0190 -0.1290
 8747W        W26271   3.318  16.516  12.146  0.1058  0.2824 -0.1422
 8748W        W26272   5.579   3.785  13.248  0.0860 -0.1175  0.1976
 8749W        W26273   0.295   5.281  15.553  0.0904  0.1542 -0.0612
 8750W        W26274   9.632   7.381   3.399 -0.1128  0.0798 -0.2244
 8751W        W26275  11.586  12.207  13.013  0.1865  0.0992  0.0138
 8752W        W26276  10.241  10.013  14.206 -0.2936 -0.0762 -0.2086
 8753W        W26277   2.272  17.800   4.138  0.1108  0.0201 -0.0982
 8754W        W26278  14.063   3.323  16.177  0.2994  0.1106  0.0048
 8755W        W26279  10.033   7.351   2.728 -0.1602  0.0608 -0.0548
 8756W        W26280   5.710  16.648   1.712  0.2538  0.2288  0.2228
 8757W        W26281  10.197  15.342  16.065  0.2505 -0.0746  0.1066
 8758W        W26282  10.749   4.587  11.904 -0.2148 -0.0764  0.2594
 8759W        W26283  12.098   2.085  15.678 -0.1386  0.0240 -0.0157
 8760W        W26284   0.903  12.000  11.191 -0.2952 -0.1928 -0.0999
 8761W        W26285   5.461  10.958   0.049  0.0510  0.4028  0.1814
 8762W        W26286   6.452  12.163  13.220  0.0132  0.1278 -0.0795
 8763W        W26287   8.362  15.786  12.182  0.1124 -0.0937  0.1510
 8764W        W26288   4.542   2.978  13.577 -0.3014  0.1056  0.1085
 8765W        W26289  12.388   9.858  12.123  0.0748 -0.0523  0.0885
 8766W        W26290  11.149   0.701  14.543  0.0538 -0.1264 -0.2129
 8767W        W26291   2.905  13.441  11.651  0.3540  0.2530  0.4844
 8768W        W26292   2.679  13.905  11.269  0.1989 -0.0022 -0.0696
 8769W        W26293  16.236  13.569   3.449  0.1415  0.0071 -0.2347
 8770W        W26294   3.949   2.180   3.211 -0.0652  0.0786  0.1560
 8771W        W26295  13.308  11.402  14.750  0.1078  0.0058  0.0771
 8772W        W26296  13.361   5.786  14.662 -0.0808  0.0966 -0.0048
 8773W        W26297   4.905   4.651   4.097 -0.0406  0.0433  0.0280
 8774W        W26298   0.678   5.308  11.510  0.0276  0.1824 -0.1693
 8775W        W26299   4.192   1.978  15.990 -0.1211 -0.2486 -0.0079
 8776W        W26300  11.789  13.941  13.829 -0.0207  0.2600  0.0037
 8777W        W26301   7.104   2.618  15.440 -0.0588 -0.1228 -0.0549
 8778W        W26302   2.890   5.433   4.633  0.0387  0.2235 -0.2700
 8779W        W26303  15.698  17.709  15.162  0.0379  0.0664  0.0647
 8780W        W26304   9.209   6.652  16.036  0.0670  0.0065 -0.1004
 8781W        W26305   0.026   4.427  13.133  0.0938 -0.2231 -0.3748
 8782W        W26306   0.799   3.312  13.588 -0.0316  0.1412 -0.0486
 8783W        W26307   8.582   2.782   0.583  0.1574  0.0092  0.1257
 8784W        W26308   6.644   0.985   5.086  0.2203  0.0789 -0.1661
 8785W        W26309  17.052   2.946  16.173  0.3002  0.0942  0.2712
 8786W        W26310   8.312   9.373  14.828  0.0318  0.1483  0.2189
 8787W        W26311   6.198  16.006   1.378  0.0316 -0.0651  0.0123
 8788W        W26312   2.659   7.037  15.774  0.1685 -0.1341  0.0452
 8789W        W26313  17.156   3.550   2.815 -0.0387  0.1466 -0.2655
 8790W        W26314   5.050  15.746  13.384 -0.0049 -0.0039  0.0533
 8791W        W26315   9.943   2.140   3.821  0.0610  0.1160 -0.1268
 8792W        W26316   4.591  12.854  15.294 -0.1963 -0.2321  0.0273
 8793W        W26317   0.433  12.022  13.020  0.0908 -0.1157  0.0003
 8794W        W26318  10.700  12.432  14.077 -0.2067 -0.1530  0.0291
 8795W        W26319   1.673   0.034  12.089  0.0203 -0.2221 -0.1420
 8796W        W26320  15.518   0.337  12.717  0.1751 -0.1998  0.1345
 8797W        W26321  17.549   2.871  14.587  0.1053  0.0343 -0.3499
 8798W        W26322   4.948  14.163   4.232  0.1647 -0.0673 -0.1040
 8799W        W26323   0.736  12.625  14.515  0.0905  0.0550  0.0556
 8800W        W26324  17.925  16.855  11.831  0.0730  0.0662 -0.0803
 8801W        W26325  16.419  12.557  15.111 -0.0070 -0.2611 -0.2086
 8802W        W26326  15.655   9.565  13.341  0.4053 -0.1568 -0.2637
 8803W        W26327   5.593   8.832   2.187 -0.2523 -0.0696  0.0401
 8804W        W26328   8.486   8.971   5.194  0.1648  0.1058  0.0372
 8805W        W26329  16.492  10.124   3.226  0.4876 -0.1242 -0.3653
 8806W        W26330  14.905   5.584   3.541  0.1892 -0.2459  0.1097
 8807W        W26331   6.802   9.485   1.808 -0.1174  0.1529  0.0878
 8808W        W26332   1.016  12.418   4.553  0.0437  0.2053 -0.0133
 8809W        W26333   5.766   6.877   0.993 -0.0513  0.0754  0.1235
 8810W        W26334   7.281   3.212   2.724 -0.1095  0.2172 -0.2189
 8811W        W26335   7.377  14.219  16.052 -0.2921 -0.0175  0.0198
 8812W        W26336  17.101   3.653   4.140 -0.1709  0.1742 -0.0637
 8813W        W26337   2.651   4.172   3.563  0.2690  0.1279 -0.1499
 8814W        W26338  13.293   4.181  15.262  0.2217 -0.0489  0.2861
 8815W        W26339  10.380  11.714  15.896 -0.2582 -0.2073  0.1293
 8816W        W26340   1.648  13.537  15.464 -0.1244 -0.0055 -0.0844
 8817W        W26341   2.239  15.321   4.198  0.1923  0.2467  0.0404
 8818W        W26342   2.717  11.994  13.371  0.4614 -0.1311  0.0222
 8819W        W26343   5.125   4.202  15.199 -0.1597  0.1600 -0.2678
 8820W        W26344  13.714   5.584  13.611  0.2832  0.0020  0.0325
 8821W        W26345  15.603   8.669   2.745  0.3507 -0.3099  0.1430
 8822W        W26346   8.133   1.896   5.663 -0.0311 -0.0093  0.0305
 8823W        W26347  16.222  15.093   3.742  0.1393 -0.1595  0.0234
 8824W        W26348  10.335   4.919  11.750 -0.0892  0.1270  0.1235
 8825W        W26349   0.830  13.744  12.136 -0.1916 -0.3804  0.0852
 8826W        W26350   7.620  12.482   3.951 -0.0605  0.0514  0.0055
 8827W        W26351   0.097   7.517   4.643  0.0099  0.1625  0.3043
 8828W        W26352  16.341   2.930   4.950  0.2335 -0.0094  0.0189
 8829W        W26353  12.644   2.681  14.481  0.0161 -0.0582  0.0528
 8830W        W26354  10.735  17.198   1.507  0.0199 -0.1668 -0.0488
 8831W        W26355   4.918   5.697   4.721  0.0481  0.0596  0.1987
 8832W        W26356   5.817   3.107   3.920  0.2587  0.1023 -0.2481
 8833W        W26357   0.688   1.531   0.319  0.0643 -0.0450 -0.2278
 8834W        W26358  13.794  12.317   1.693 -0.0617  0.0762  0.1461
 8835W        W26359  10.277   3.270  14.156  0.1770  0.3199  0.2456
 8836W        W26360   7.588   0.318   4.532 -0.3528 -0.1128 -0.0750
 8837W        W26361   6.320  16.477  15.961  0.0110 -0.2392  0.3951
 8838W        W26362  12.038  17.301  12.010 -0.1032  0.0182  0.1645
 8839W        W26363   2.596  13.895   1.739 -0.1827  0.3579  0.0699
 8840W        W26364   5.289   9.337   3.694 -0.0366 -0.2784 -0.1975
 8841W        W26365   6.818  12.546   1.644  0.0015  0.2213  0.0745
 8842W        W26366  15.248  17.656  11.862 -0.3324 -0.3787 -0.1587
 8843W        W26367   6.899  16.029  15.638 -0.1561  0.4164 -0.0910
 8844W        W26368  10.032  14.499  15.847  0.0556 -0.2830  0.4575
 8845W        W26369  10.427  13.056   3.239 -0.2294  0.2428  0.3599
 8846W        W26370  16.324  13.179  12.004  0.0425  0.0956 -0.2580
 8847W        W26371  11.439   0.988   0.067  0.0334 -0.1044 -0.1687
 8848W        W26372   3.672  11.859  15.829  0.1643  0.1046  0.0339
 8849W        W26373  11.938   8.936   4.696  0.2871  0.1870 -0.1782
 8850W        W26374  12.560   9.960   2.758  0.1151  0.0247 -0.3199
 8851W        W26375  11.356   0.881  12.648  0.0746 -0.2076  0.2307
 8852W        W26376   0.565  15.898   2.810  0.5460  0.3246 -0.2236
 8853W        W26377   8.731  16.892   5.580  0.1161  0.0573 -0.0255
 8854W        W26378  11.431   1.627   1.825  0.0842  0.1838 -0.0201
 8855W        W26379   7.044  11.757   4.905  0.1510  0.0981 -0.0283
 8856W        W26380   1.595  15.191   1.092 -0.4212 -0.0499  0.1881
 8857W        W26381  16.520  16.385  16.097  0.2331 -0.2525  0.1599
 8858W        W26382  10.942   8.135  13.857  0.0391 -0.1548  0.0854
 8859W        W26383   9.074   0.322  13.749 -0.1751  0.0362  0.1956
 8860W        W26384  14.669   3.761   0.883  0.0783  0.1834  0.3855
 8861W        W26385   9.776  12.641   5.072  0.0786 -0.0536 -0.2363
 8862W        W26386  11.540   3.270  14.679 -0.0370  0.0883 -0.1878
 8863W        W26387  11.339   7.476   1.931 -0.1146  0.0683 -0.2192
 8864W        W26388  15.456   6.734  10.773 -0.0807  0.0352  0.0279
 8865W        W26389   5.252  16.928  11.840 -0.2477  0.3026  0.1049
 8866W        W26390   2.182  10.494  14.100 -0.0538 -0.4104  0.5015
 8867W        W26391   6.703   2.301   2.356  0.1390  0.0089 -0.0202
 8868W        W26392   4.008  14.588   3.040 -0.1464  0.0271  0.1223
 8869W        W26393   6.128   6.858   4.740  0.0534 -0.1389 -0.1210
 8870W        W26394   0.526   8.952   2.176 -0.0358 -0.0861  0.0467
 8871W        W26395  17.126  17.363   1.724  0.2330  0.2503  0.0918
 8872W        W26396   5.680   3.832  15.514  0.3275 -0.1248 -0.0421
 8873W        W26397  12.585  17.855  15.412 -0.0900  0.0869 -0.0319
 8874W        W26398   7.579   5.472  14.359 -0.1495 -0.1716  0.0856
 8875W        W26399   6.204   7.320   4.859 -0.0396 -0.0771 -0.1611
 8876W        W26400   5.164  14.942   5.092  0.3834 -0.1348  0.4104
 8877W        W26401  15.463  11.106   0.545  0.1177 -0.0706  0.2037
 8878W        W26402   1.865   7.446  11.743  0.0679 -0.0142 -0.0587
 8879W        W26403  11.123  13.209  11.952  0.1955 -0.0659 -0.0637
 8880W        W26404  12.212  13.919   2.728 -0.0083  0.0304  0.1887
 8881W        W26405  11.782  17.561   5.047  0.1082 -0.1403  0.2737
 8882W        W26406   3.817   7.776   0.149  0.3853 -0.1694 -0.0409
 8883W        W26407   9.605  11.718   4.843  0.0023 -0.0136  0.2909
 8884W        W26408  12.296  17.885   1.924 -0.0248  0.1215  0.2092
 8885W        W26409   4.798   0.632   3.376 -0.0992 -0.4324 -0.1337
 8886W        W26410   3.368  17.067   2.101  0.1749  0.2226 -0.0791
 8887W        W26411  12.171   5.240  11.172  0.1586  0.1190 -0.1956
 8888W        W26412   9.280  11.746   4.338 -0.2308 -0.0127 -0.1341
 8889W        W26413  10.888   5.459  12.043  0.0780 -0.3162  0.1590
 8890W        W26414   4.780   9.746  11.616 -0.1398  0.3893 -0.1642
 8891W        W26415   4.363   9.299  13.834 -0.0717 -0.0824  0.1237
 8892W        W26416   9.144  10.020   5.008  0.1655  0.0897  0.1384
 8893W        W26417   2.477   2.350   1.745 -0.0022 -0.0321 -0.1516
 8894W        W26418  15.940  10.005   4.401  0.0218  0.0627 -0.6343
 8895W        W26419   1.309  15.547   0.818 -0.2949 -0.0907  0.1043
 8896W        W26420  13.609  15.959  12.527 -0.2531 -0.2159  0.0343
 8897W        W26421  14.940   6.142   3.463  0.2302  0.0031 -0.1393
 8898W        W26422  11.508   0.653   2.046 -0.3548  0.0908 -0.0399
 8899W        W26423  11.760  15.919   2.231  0.1764  0.1588  0.0703
 8900W        W26424  17.022  10.630   1.113  0.2289 -0.0403  0.1075
 8901W        W26425  11.636  15.653  13.887 -0.2112  0.1434 -0.0520
 8902W        W26426   5.853  11.101  14.764  0.1199 -0.0851  0.0123
 8903W        W26427   8.058   5.662  14.437 -0.1379  0.1165 -0.1362
 8904W        W26428   8.256   3.183   3.476  0.0675 -0.2099  0.1726
 8905W        W26429   3.461  11.753  13.613 -0.2030  0.0357 -0.1411
 8906W        W26430  11.769   6.261  13.074  0.0166 -0.1452 -0.0352
 8907W        W26431   2.739  14.480   0.035 -0.0635 -0.1943  0.1937
 8908W        W26432   3.908   3.044   1.839  0.1044  0.3181 -0.0248
 8909W        W26433   8.642   9.698   0.677  0.1341 -0.0167  0.0378
 8910W        W26434  17.962   8.737   3.992 -0.2488  0.0571  0.3060
 8911W        W26435  10.889  12.876  14.135 -0.2070  0.2507 -0.2051
 8912W        W26436  12.292  10.915  11.975 -0.0925 -0.1442 -0.2079
 8913W        W26437  13.660  14.979  12.848  0.3982  0.0977  0.1040
 8914W        W26438   2.181   4.781  13.723 -0.2076  0.1450 -0.0166
 8915W        W26439   4.160   2.925  16.228  0.3941 -0.1459  0.0310
 8916W        W26440   4.970   6.108  13.938 -0.1946  0.3580  0.0021
 8917W        W26441   5.203   5.409   3.899 -0.0170  0.0461 -0.3038
 8918W        W26442   1.553  16.436   1.635 -0.0801 -0.0341 -0.0573
 8919W        W26443  17.014   4.204   1.345 -0.0284 -0.2259  0.2007
 8920W        W26444  15.012  10.859  11.092  0.2331  0.2682 -0.0128
 8921W        W26445  11.962  11.863   1.920 -0.0418  0.1550 -0.1807
 8922W        W26446   3.657   3.972   0.023  0.0086 -0.1962 -0.1283
 8923W        W26447  14.255   5.409   1.957  0.1962  0.0552  0.3595
 8924W        W26448  14.822   6.540   2.894 -0.0646 -0.0783 -0.4535
 8925W        W26449   9.706   7.901   3.605 -0.0011  0.2198  0.2194
 8926W        W26450  11.050  15.926  16.204 -0.0968 -0.0626 -0.0842
 8927W        W26451  11.024  15.192  13.599  0.1527 -0.0568 -0.2573
 8928W        W26452   8.691  12.282   0.341  0.0850 -0.0398  0.0170
 8929W        W26453   1.972  16.684  13.324  0.4513  0.0675 -0.2080
 8930W        W26454  16.530   6.920   3.820 -0.2875 -0.1135  0.3548
 8931W        W26455   4.333   5.350  12.294 -0.0884  0.0610 -0.2351
 8932W        W26456   2.145   5.392  12.483 -0.0451 -0.2062  0.0699
 8933W        W26457   1.489  17.205  13.194  0.0265 -0.1185 -0.3068
 8934W        W26458  17.466  13.396   2.455 -0.0158  0.0564 -0.1921
 8935W        W26459  10.013   9.385  12.463 -0.0172 -0.0458  0.3765
 8936W        W26460  12.699   0.164   1.464 -0.3038 -0.0386 -0.1573
 8937W        W26461   1.696   9.644  15.361 -0.1617 -0.0031 -0.0684
 8938W        W26462  12.054   6.382   0.402 -0.2449  0.1314 -0.1045
 8939W        W26463  12.948   4.879  14.637 -0.0904  0.2264  0.1671
 8940W        W26464  16.668   8.118   2.811  0.2802 -0.0555  0.0720
 8941W        W26465   9.035   7.842   4.299 -0.1199 -0.1629 -0.0273
 8942W        W26466   6.621   9.098  13.875 -0.4423 -0.0971 -0.0464
 8943W        W26467   4.307   9.011   0.863  0.1278 -0.2608 -0.2823
 8944W        W26468  10.274   3.002   4.391 -0.0546 -0.0436  0.0335
 8945W        W26469  13.164   9.296   1.667  0.0840  0.1394  0.0862
 8946W        W26470   1.411   8.925  12.082  0.1298  0.0791 -0.0090
 8947W        W26471  12.931  17.254  13.731 -0.4041  0.0559  0.0044
 8948W        W26472   1.251  16.314   3.765 -0.0630  0.1079 -0.1760
 8949W        W26473   0.976   7.203  12.938  0.1217 -0.2104 -0.0173
 8950W        W26474  17.920   7.003   0.553 -0.2352 -0.0787 -0.1025
 8951W        W26475   6.713  10.018  15.266  0.0235 -0.0534  0.0278
 8952W        W26476   5.464   3.059   2.346 -0.0948 -0.1754 -0.0995
 8953W        W26477  12.744   9.488  12.066 -0.1476 -0.0338 -0.1708
 8954W        W26478  15.863   4.686   1.919 -0.0628 -0.1000  0.0455
 8955W        W26479  11.088  10.977  15.788 -0.0056 -0.0474  0.0806
 8956W        W26480  16.084   9.454  11.288 -0.2021  0.0742  0.2714
 8957W        W26481  14.132   7.017  12.166  0.1542  0.0583  0.0550
 8958W        W26482  17.476   9.054  11.199  0.3329 -0.0267 -0.0440
 8959W        W26483  13.563  15.568   3.272  0.1150 -0.1461  0.0333
 8960W        W26484   8.500   4.106   0.015  0.2253 -0.1370  0.0104
 8961W        W26485  15.360  15.067   3.489  0.1335  0.0185  0.0236
 8962W        W26486   8.351  11.803  13.905  0.0652 -0.1668  0.0635
 8963W        W26487   9.881   6.528  11.158 -0.1540  0.1756 -0.1598
 8964W        W26488   6.331  11.197  12.279  0.0550  0.0906  0.1819
 8965W        W26489   1.228  15.784   4.264  0.2674  0.0599  0.1462
 8966W        W26490   2.446  12.442  12.887  0.3191 -0.1749  0.0479
 8967W        W26491   0.653  14.548   4.355 -0.0354  0.2183  0.1581
 8968W        W26492   5.684   3.526  12.812  0.0784  0.1982 -0.3911
 8969W        W26493  16.680   4.412  11.524  0.1790 -0.0586  0.0410
 8970W        W26494   5.625  17.213   2.842  0.1809  0.1406 -0.3039
 8971W        W26495  15.941  14.726   4.715  0.0551 -0.0019  0.0402
 8972W        W26496  13.533   9.500  15.602  0.0104 -0.1776  0.0309
 8973W        W26497  15.733   5.527   4.585  0.0063 -0.1447  0.0833
 8974W        W26498  10.117   0.529  14.651 -0.3219 -0.0274  0.0357
 8975W        W26499   8.526   0.138   4.704  0.0137 -0.2124  0.2018
 8976W        W26500   6.549  12.192   2.773  0.1598  0.0248  0.2082
 8977W        W26501   2.653  15.250  12.439 -0.3356 -0.2218 -0.4168
 8978W        W26502   4.069   7.459   2.308 -0.0106 -0.0556  0.1850
 8979W        W26503   9.387   3.407  15.824 -0.0967  0.2201  0.0023
 8980W        W26504  11.038  12.623   1.072  0.0759  0.2862  0.0330
 8981W        W26505  10.060  17.890  14.759 -0.1158 -0.3266  0.1965
 8982W        W26506   1.732  13.193  14.734 -0.2422 -0.1395 -0.1554
 8983W        W26507   1.020   3.430  12.357 -0.0095 -0.0412 -0.0256
 8984W        W26508   4.442   4.873   4.305  0.1303 -0.0368  0.0533
 8985W        W26509   2.132   3.102  15.911 -0.0233 -0.2119  0.0495
 8986W        W26510  10.879   4.323   1.867 -0.0535 -0.1049  0.0246
 8987W        W26511   4.082   2.581  12.365  0.1131  0.1119 -0.1304
 8988W        W26512  10.573  11.537   5.001  0.1849 -0.0386  0.0978
 8989W        W26513   7.532  10.506  11.765 -0.1803 -0.1317 -0.5281
 8990W        W26514  10.498   2.992  11.178  0.2532 -0.2084  0.1228
 8991W        W26515  11.194   5.614   3.718 -0.0850  0.1163 -0.2482
 8992W        W26516   9.212   7.471   2.186  0.2307  0.3390 -0.0030
 8993W        W26517   3.856   0.794   0.916  0.2727 -0.1660  0.0609
 8994W        W26518   8.050  12.488  11.812 -0.0055 -0.0441 -0.3228
 8995W        W26519   3.736   5.023   2.712 -0.1553 -0.0904 -0.1661
 8996W        W26520   1.597   8.844   4.877  0.2775  0.1233 -0.1344
 8997W        W26521   5.255   3.402  12.519  0.2073  0.0600 -0.2755
 8998W        W26522  16.031   3.053   2.471  0.1046 -0.2029  0.4139
 8999W        W26523   5.340  13.886   1.381  0.1702 -0.1709 -0.0206
 9000W        W26524  14.640   0.669   4.303  0.2020 -0.1500  0.1909
 9001W        W26525   8.034  10.095  13.101  0.1259  0.2615 -0.0838
 9002W        W26526  12.460   9.059   2.534  0.0070  0.1826 -0.1752
 9003W        W26527  14.723  15.764  15.215 -0.0285  0.2930 -0.1450
 9004W        W26528   2.216  16.216  11.745 -0.2595  0.0934 -0.0337
 9005W        W26529   7.336  15.964  11.421  0.0202 -0.0874 -0.1578
 9006W        W26530  17.351   7.376  15.115 -0.1730  0.0576  0.1343
 9007W        W26531  15.885   7.798  13.260 -0.1685 -0.0125 -0.0205
 9008W        W26532  17.029  14.257  12.288 -0.0167 -0.3196 -0.1452
 9009W        W26533   4.474  16.496   3.742 -0.1302 -0.0523 -0.3061
 9010W        W26534  10.707  14.850  14.625  0.2636 -0.0022  0.0542
 9011W        W26535   6.654  13.196  12.247 -0.1930  0.0147 -0.5570
 9012W        W26536   3.935   3.862   1.475  0.0092 -0.1911 -0.0121
 9013W        W26537  13.619   6.985   1.399 -0.0830  0.1286 -0.1412
 9014W        W26538   6.209  16.424  13.546  0.2696 -0.2845 -0.0469
 9015W        W26539  12.949   1.338   3.378  0.0689  0.3277  0.1081
 9016W        W26540  15.357  14.292  14.366  0.0111  0.0384  0.2137
 9017W        W26541  17.439   1.298  13.817  0.0239  0.0003 -0.1208
 9018W        W26542  10.984  11.546   2.249  0.3580 -0.1345  0.0322
 9019W        W26543  14.324   4.683  15.777 -0.0679 -0.0535  0.0853
 9020W        W26544   1.996  10.693  12.733 -0.1255 -0.4865  0.1083
 9021W        W26545  14.810   1.518   1.663  0.0359  0.2748  0.3377
 9022W        W26546  14.745  15.226  11.465  0.0461  0.1507  0.0014
 9023W        W26547   8.256  16.777   4.809  0.1064  0.0969  0.1128
 9024W        W26548   4.698   2.919  13.055 -0.1422 -0.2626  0.4368
 9025W        W26549   5.705   1.023   4.864 -0.1123  0.0609  0.1891
 9026W        W26550   5.576  11.903  12.769 -0.0471 -0.0387  0.0568
 9027W        W26551   1.367   4.210   1.854 -0.3095  0.0557  0.0444
 9028W        W26552  17.042  12.105  12.985 -0.2114 -0.0421 -0.2038
 9029W        W26553  16.020   0.342  13.052  0.0525  0.0275 -0.2221
 9030W        W26554  15.335   7.738   4.094  0.0185  0.0699 -0.1719
 9031W        W26555   3.298  10.555   5.097  0.0570  0.2410 -0.1662
 9032W        W26556  11.508  17.260   5.465 -0.1934  0.0399  0.4137
 9033W        W26557   3.464   8.022  12.996  0.2833 -0.0828  0.3146
 9034W        W26558  10.572  14.319   3.746 -0.1053 -0.0434  0.1141
 9035W        W26559   6.594   1.999   3.705 -0.2657 -0.3138 -0.1346
 9036W        W26560   6.905  11.500   1.818  0.3037  0.2129 -0.2506
 9037W        W26561   4.128  12.416   0.769  0.0625 -0.2015 -0.2965
 9038W        W26562  12.617   3.460   5.042 -0.1381  0.0714  0.1156
 9039W        W26563  10.254   5.081   4.061  0.0982 -0.1557 -0.1173
 9040W        W26564   0.022   0.815  15.253  0.2346 -0.2993  0.1160
 9041W        W26565  13.915   2.709  12.895  0.0399 -0.0739  0.2060
 9042W        W26566   2.723  16.794   4.197 -0.2486 -0.1641  0.0408
 9043W        W26567   4.236   4.237  13.620 -0.0836 -0.1569 -0.0530
 9044W        W26568   1.451  11.439  15.077 -0.0434  0.1570  0.0226
 9045W        W26569   1.578  15.895  14.457 -0.0096  0.2670 -0.3282
 9046W        W26570   2.786  16.691  14.485 -0.0421 -0.2232 -0.1234
 9047W        W26571   3.426   1.806  13.460 -0.1009  0.1091  0.0338
 9048W        W26572   6.174  17.124   5.832  0.1026  0.1858  0.1985
 9049W        W26573  17.340   7.074   3.376 -0.1602 -0.0434 -0.2475
 9050W        W26574  16.295   9.993  13.485  0.0858 -0.0284  0.0160
 9051W        W26575  12.594   8.571  13.169 -0.2403  0.0534  0.0417
 9052W        W26576  15.060  17.406   4.113 -0.0488 -0.3132 -0.2493
 9053W        W26577  16.069   2.178  12.074  0.0654 -0.1145  0.1874
 9054W        W26578   9.017   7.040  15.707  0.0772  0.0520 -0.0462
 9055W        W26579  17.345  14.925  11.793 -0.0875 -0.0545  0.0458
 9056W        W26580   2.717   1.853   0.117  0.0565  0.0262 -0.1214
 9057W        W26581  10.710  12.687  14.614 -0.0441  0.0211 -0.3662
 9058W        W26582   9.647  12.441   3.135 -0.2122 -0.1522 -0.1112
 9059W        W26583  13.864   6.990   0.913  0.0267 -0.2972  0.0290
 9060W        W26584  15.248  11.981   3.601 -0.0896 -0.2940 -0.0903
 9061W        W26585   5.851   7.846   2.148  0.0831 -0.0924 -0.1233
 9062W        W26586   8.813   1.575   1.888 -0.0910 -0.1364 -0.2010
 9063W        W26587   8.864   3.489  15.755  0.0296  0.2899 -0.1798
 9064W        W26588   4.474   5.280  14.738 -0.0808 -0.3515 -0.0383
 9065W        W26589  16.687   1.401   2.475  0.0002 -0.2528 -0.0728
 9066W        W26590   6.968  11.143  11.800  0.0839 -0.1633  0.1993
 9067W        W26591   5.997  16.632   3.699 -0.0750  0.0305  0.3203
 9068W        W26592   0.463   6.271  11.919  0.0754 -0.0541 -0.2425
 9069W        W26593   1.969  15.659  15.297 -0.1274  0.1604 -0.1214
 9070W        W26594   8.114  11.027  10.551 -0.2064  0.2966 -0.0568
 9071W        W26595  13.962   4.132   3.010  0.1628 -0.0058 -0.2238
 9072W        W26596  12.968   3.262  15.498 -0.2718  0.3065 -0.0766
 9073W        W26597  11.742  12.806  15.336 -0.2784 -0.2029  0.3312
 9074W        W26598   0.459   1.088  14.208 -0.1803 -0.1438  0.1986
 9075W        W26599  10.025   0.440  12.362  0.0025  0.3107  0.0606
 9076W        W26600  11.945   1.137  14.403 -0.2260  0.0850 -0.0424
 9077W        W26601  13.947  17.923   2.349 -0.0391  0.2480 -0.1136
 9078W        W26602  17.641   0.492   2.188 -0.3114 -0.3088  0.2293
 9079W        W26603   1.595   4.189   1.438  0.3402  0.2103 -0.0853
 9080W        W26604   8.806   3.165   3.186 -0.0873  0.1808  0.1191
 9081W        W26605   0.253  14.264   3.033 -0.1292 -0.0655 -0.4017
 9082W        W26606   9.759   0.069   4.922  0.0148 -0.0994 -0.0055
 9083W        W26607  10.544  12.654   1.915 -0.0767 -0.2770 -0.2246
 9084W        W26608  13.413   8.080  13.357 -0.2122  0.0765 -0.0795
 9085W        W26609  14.139   3.061  13.198  0.0192  0.0694 -0.3292
 9086W        W26610   8.063   6.950   0.410 -0.0384 -0.0203  0.3215
 9087W        W26611  10.185   4.561  11.416 -0.0128 -0.1766 -0.1333
 9088W        W26612   7.526  14.541   4.870 -0.0979 -0.1492 -0.2056
 9089W        W26613   2.100   0.905   4.679  0.0053  0.2319  0.1748
 9090W        W26614   1.533   3.055   2.825 -0.1965  0.0127 -0.1763
 9091W        W26615   9.353   0.376  15.806 -0.1148  0.1957  0.1517
 9092W        W26616   8.934   0.267  12.001  0.2288 -0.2204  0.0363
 9093W        W26617   1.904  14.585   4.571  0.0301  0.0412 -0.0325
 9094W        W26618   6.156   6.838  14.894  0.3436 -0.0245 -0.4059
 9095W        W26619  16.308   7.593  15.884 -0.2446  0.0859 -0.0516
 9096W        W26620   1.321   1.304   5.363  0.2010 -0.1440 -0.1815
 9097W        W26621   6.325  16.021  15.753 -0.1078 -0.0176  0.4074
 9098W        W26622   1.568  13.425  13.549  0.0238 -0.1410 -0.0975
 9099W        W26623  12.850   2.578  14.942  0.0201 -0.0034 -0.3033
 9100W        W26624  15.565  15.520  15.731 -0.0493 -0.0075 -0.0962
 9101W        W26625   9.916   3.178  13.855  0.0658 -0.1356  0.2048
 9102W        W26626   3.084  12.235   3.849 -0.0063 -0.1535  0.0640
 9103W        W26627   1.221  14.447   4.171 -0.0125 -0.2138  0.1661
 9104W        W26628   4.090  10.582  12.946  0.0023 -0.1460 -0.1733
 9105W        W26629  17.038  15.651   2.366 -0.1106  0.1278  0.0090
 9106W        W26630   6.401  13.616   4.736 -0.0816  0.0083 -0.0556
 9107W        W26631   7.731   0.689  14.922 -0.1465 -0.2208  0.0850
 9108W        W26632  10.704   4.454  15.693 -0.2553 -0.1397 -0.0663
 9109W        W26633   9.313   5.765   2.094  0.1932  0.1458 -0.0265
 9110W        W26634  10.308  16.824   5.239 -0.3011  0.0865 -0.1507
 9111W        W26635  13.613  16.035   4.072 -0.1515  0.5588 -0.0629
 9112W        W26636   0.886   1.452   0.810  0.0656  0.0754  0.3035
 9113W        W26637   4.638   0.978  13.569  0.1442  0.0174  0.0774
 9114W        W26638  16.483   5.213   3.470 -0.2980  0.1881  0.0561
 9115W        W26639   5.891  15.358   2.208  0.2025 -0.1660  0.0188
 9116W        W26640  13.488  11.000  12.578 -0.0858  0.0399 -0.0893
 9117W        W26641   5.119   9.569   5.651 -0.3235  0.0358  0.0313
 9118W        W26642  15.244   5.581  10.956 -0.0426  0.1412  0.1916
 9119W        W26643   1.943  12.154   1.067  0.2231 -0.3700  0.0417
 9120W        W26644  13.898   4.653  13.222  0.1273 -0.0627 -0.1060
 9121W        W26645   1.048   9.564   3.357 -0.3485  0.0507  0.1435
 9122W        W26646  17.394   3.241  13.239 -0.0765  0.0704 -0.1405
 9123W        W26647  10.287   1.882  11.663  0.2565 -0.0086 -0.0754
 9124W        W26648  10.110  14.346  11.598  0.1125 -0.1755 -0.0490
 9125W        W26649  16.239   5.414   0.182  0.1715  0.0138 -0.1698
 9126W        W26650  17.385  17.673  11.397 -0.1177 -0.1881  0.4160
 9127W        W26651  17.144  13.706  11.665 -0.2305 -0.4825 -0.4332
 9128W        W26652  15.563   2.918   0.219  0.2070 -0.0229  0.0249
 9129W        W26653   7.895  13.173  12.086 -0.0246 -0.0073  0.0875
 9130W        W26654  10.576  13.751  11.565  0.1853 -0.2684 -0.0241
 9131W        W26655  15.605  12.601   3.663 -0.0948  0.1586  0.0045
 9132W        W26656   6.288   0.696  16.248 -0.1440  0.0147 -0.2010
 9133W        W26657  13.063  10.554  11.729  0.3041  0.0897  0.1771
 9134W        W26658  12.182   8.561  11.752 -0.2833  0.0584 -0.0581
 9135W        W26659   8.139   2.118  11.420  0.1519 -0.0681  0.2696
 9136W        W26660   9.802  16.931  12.872  0.0024  0.0063  0.2367
 9137W        W26661   7.629   9.248   2.835  0.0926  0.1476  0.2472
 9138W        W26662  13.618  17.695  12.431 -0.2007  0.1103  0.0883
 9139W        W26663   1.812   5.637   2.998 -0.0390  0.3405  0.0167
 9140W        W26664  16.205   8.938  16.047 -0.1706 -0.0006 -0.0042
 9141W        W26665  12.129  15.405  14.662 -0.0439 -0.1899 -0.1097
 9142W        W26666  13.003  14.506   2.553  0.0009  0.1545  0.2657
 9143W        W26667   7.697   9.965   2.330 -0.0375  0.1901  0.0150
 9144W        W26668   2.699   5.741  11.589  0.2211 -0.0626  0.0122
 9145W        W26669  17.797  10.669  13.059 -0.0953  0.0194  0.3001
 9146W        W26670  16.294  17.882  13.274 -0.0012  0.1072  0.1195
 9147W        W26671   2.124   5.076  14.125  0.2210 -0.0042 -0.1279
 9148W        W26672  12.131  15.043  15.595 -0.0900 -0.0756 -0.2918
 9149W        W26673  10.810   2.193  14.864 -0.1116 -0.2272 -0.4620
 9150W        W26674  11.226  14.265  12.991 -0.0547  0.2618 -0.0278
 9151W        W26675   5.054  15.868   2.723 -0.0904 -0.0316 -0.1459
 9152W        W26676  12.618  10.779   0.039  0.1062  0.2202  0.0604
 9153W        W26677   3.418  13.369  12.485 -0.0689 -0.0710  0.4918
 9154W        W26678   8.621  10.090  15.014 -0.1743 -0.0343 -0.2114
 9155W        W26679  10.193  17.604   2.621 -0.0191  0.2351  0.0071
 9156W        W26680   3.807  10.499   4.452  0.0103 -0.2021 -0.0039
 9157W        W26681  17.144   8.896   2.754  0.3302  0.0737 -0.0079
 9158W        W26682  12.952  11.725   2.952  0.1193  0.2837 -0.1277
 9159W        W26683   3.680  14.702  14.364 -0.2018 -0.1661  0.0130
 9160W        W26684  12.751  14.330  13.538  0.0492  0.0833  0.1077
 9161W        W26685  14.996  14.984   1.733  0.0302  0.0379  0.1064
 9162W        W26686   2.122   1.940   4.272 -0.1560 -0.0992  0.2015
 9163W        W26687  14.915  13.895   1.803 -0.0775 -0.0902 -0.3351
 9164W        W26688  15.754  15.730  11.460  0.1059  0.0268 -0.1685
 9165W        W26689   5.152  17.111  15.993  0.2881  0.1355  0.0866
 9166W        W26690   1.946  14.134  12.858 -0.1483 -0.0806 -0.1360
 9167W        W26691  16.630  14.788   3.553  0.2858  0.1367 -0.1691
 9168W        W26692   4.832   1.535   2.875  0.3349 -0.1693 -0.2811
 9169W        W26693   7.371   8.955   2.435 -0.1667  0.2075 -0.0084
 9170W        W26694  15.167  13.561   4.574 -0.0726 -0.0022 -0.0414
 9171W        W26695  12.784  15.961  11.782 -0.0472  0.1350 -0.1030
 9172W        W26696   3.878   7.498  11.618 -0.0188  0.0605  0.1902
 9173W        W26697   2.826   2.372  11.930 -0.0102 -0.0745  0.0413
 9174W        W26698  12.635   9.351  15.864  0.2944  0.2771 -0.1659
 9175W        W26699  13.122  17.746  11.986  0.1018  0.0911 -0.1454
 9176W        W26700   9.713  16.742   4.222  0.1599 -0.0964 -0.2086
 9177W        W26701   4.909   3.242   1.004 -0.0545 -0.2238  0.1596
 9178W        W26702  14.715  12.819   4.614  0.1276 -0.3276  0.1469
 9179W        W26703   4.903  15.287   1.098 -0.4674 -0.0937 -0.2398
 9180W        W26704   3.358  11.486  15.570  0.0384  0.1020 -0.0739
 9181W        W26705   5.331   6.784   5.186  0.4826  0.1357  0.1944
 9182W        W26706  13.417   8.774   2.708  0.0742 -0.2261  0.1751
 9183W        W26707  12.378   8.846  12.655 -0.1743  0.0981  0.1502
 9184W        W26708  10.873  15.265   1.469  0.2531 -0.2392 -0.0037
 9185W        W26709  13.155   8.914   4.192  0.1268  0.1574  0.0977
 9186W        W26710   8.439   7.893  15.628  0.2502 -0.0461 -0.1007
 9187W        W26711   1.026   4.934  11.586  0.3352 -0.0565 -0.0051
 9188W        W26712  10.659  17.628   3.894  0.1609 -0.0556 -0.1093
 9189W        W26713  14.836  12.593  11.064 -0.0090 -0.2234 -0.4880
 9190W        W26714   3.287   2.490  11.690 -0.3424  0.0041 -0.0777
 9191W        W26715   2.966   0.662   5.999 -0.0636  0.0596  0.0961
 9192W        W26716   6.067   0.364   3.738 -0.0387  0.0420 -0.0015
 9193W        W26717  11.994  14.773   3.173  0.2359  0.0519 -0.1577
 9194W        W26718   8.561   2.772   3.419  0.2349 -0.2890 -0.0128
 9195W        W26719  16.439   9.019  11.453  0.0506  0.2818 -0.0904
 9196W        W26720   8.801   1.664  15.392  0.0588 -0.4782 -0.1210
 9197W        W26721  12.256   5.785   0.426 -0.0386  0.1827  0.3190
 9198W        W26722  15.607   6.413  11.499 -0.1731 -0.1141 -0.0488
 9199W        W26723  13.474  14.425  11.544 -0.0837 -0.3434 -0.0363
 9200W        W26724   9.717  13.408  10.529  0.4604 -0.0521 -0.1027
 9201W        W26725  10.150  12.221   4.368 -0.1841  0.1042  0.1436
 9202W        W26726  14.970  14.247  10.494 -0.0647 -0.1010  0.0720
 9203W        W26727  12.720  13.444   4.343  0.1623  0.2484 -0.1062
 9204W        W26728   0.757   5.037  13.481 -0.3119  0.0037 -0.2590
 9205W        W26729  14.390  17.754  11.966  0.1225 -0.3140  0.0016
 9206W        W26730   8.906   1.026  15.990  0.1269  0.1567  0.0281
 9207W        W26731   0.255   0.416  13.864 -0.1863 -0.4678  0.4026
 9208W        W26732   7.721   8.608  11.736 -0.4206  0.1097  0.1265
 9209W        W26733   8.723   6.369  14.284  0.3007 -0.0107  0.0839
 9210W        W26734  13.464   8.049  11.983 -0.0181  0.0440  0.1023
 9211W        W26735   5.892   9.926  14.020  0.0844 -0.1403  0.0175
 9212W        W26736   9.203   2.661  15.292 -0.3989  0.1829 -0.0252
 9213W        W26737  12.170   8.961   2.965  0.1367  0.1011 -0.0803
 9214W        W26738  17.696   3.164  12.194  0.0144 -0.0531 -0.1430
 9215W        W26739  11.741   7.523  13.271 -0.2950 -0.2342 -0.1188
 9216W        W26740   3.258   7.304  14.358 -0.1158  0.1639 -0.0398
 9217W        W26741   6.274   3.477   0.019 -0.0625 -0.0566  0.0504
 9218W        W26742  11.592  16.748   3.604  0.2215  0.1144 -0.1323
 9219W        W26743  14.420   4.153  14.252 -0.0375  0.0764 -0.1929
 9220W        W26744   5.560   2.013  13.875 -0.1491  0.0402 -0.0707
 9221W        W26745   0.288  11.950  11.856 -0.0360 -0.2509  0.0567
 9222W        W26746  12.071   7.400   2.383 -0.2779 -0.0809 -0.2274
 9223W        W26747   3.988  16.516   3.585 -0.7260 -0.0643 -0.2928
 9224W        W26748   0.118   5.239  14.608 -0.1629  0.2968 -0.2596
 9225W        W26749   5.992  10.802  13.759  0.0861  0.0046  0.3318
 9226W        W26750   2.712   8.197   2.024  0.2004  0.3395 -0.1551
 9227W        W26751   4.320  12.020   2.770 -0.0248  0.0013  0.2003
 9228W        W26752  14.428  15.319  14.332  0.0322  0.2898  0.0215
 9229W        W26753   9.764   7.560  15.345  0.0204 -0.0502  0.0789
 9230W        W26754   0.243   1.240  15.092  0.2818  0.0538 -0.1219
 9231W        W26755   8.861   2.486   3.266 -0.0601  0.1926 -0.0755
 9232W        W26756   3.783  10.193  15.164 -0.1981 -0.1356 -0.1054
 9233W        W26757   7.250  17.251   5.136 -0.0090  0.0211 -0.0002
 9234W        W26758   1.140  17.313  16.071  0.0987  0.0539 -0.0364
 9235W        W26759   3.279  16.639  13.155 -0.1756 -0.0152  0.0264
 9236W        W26760   3.628   4.879  14.582  0.1475 -0.2644  0.0027
 9237W        W26761   0.724  10.412  12.516  0.0262 -0.3898  0.1529
 9238W        W26762   5.903   8.454   2.071 -0.0687  0.0961  0.3237
 9239W        W26763   6.956   9.488   4.934 -0.0518 -0.3325 -0.0332
 9240W        W26764  14.575   5.906  13.469 -0.1255  0.0865 -0.0523
 9241W        W26765   8.990   0.642   3.114  0.1976 -0.3778 -0.0376
 9242W        W26766   6.754   7.382   5.684 -0.1225  0.0520 -0.1126
 9243W        W26767  15.852   0.684   1.563 -0.1886  0.1391 -0.1201
 9244W        W26768  16.076   5.582   2.783  0.0850 -0.3701 -0.1729
 9245W        W26769   4.894   6.352   1.323  0.0236  0.0878  0.0537
 9246W        W26770   2.328   2.044  16.132  0.0555  0.1456 -0.1170
 9247W        W26771   4.122  12.467   2.349  0.0089 -0.2508 -0.1745
 9248W        W26772   4.959   7.663   2.120  0.1002 -0.0922 -0.0099
 9249W        W26773  17.434   2.791  12.910  0.0589 -0.1240  0.1119
 9250W        W26774  11.399  15.930   2.694  0.2388  0.5065  0.4423
 9251W        W26775  15.686   5.556   3.774 -0.2073  0.1893 -0.0700
 9252W        W26776   6.625  17.774   5.051  0.0554  0.0181 -0.3928
 9253W        W26777   2.951   9.270  12.503 -0.3270 -0.0915  0.0320
 9254W        W26778   6.919  13.434  12.741 -0.2340 -0.0249 -0.3202
 9255W        W26779  11.729  12.700   5.041  0.0660 -0.1317  0.0164
 9256W        W26780   4.613   3.417  15.407  0.1308  0.2500 -0.0532
 9257W        W26781   7.011  13.573  12.236  0.1561  0.1588  0.0742
 9258W        W26782  17.314  11.975  13.701 -0.0726 -0.1826 -0.0184
 9259W        W26783  16.667   4.155   1.765 -0.0064 -0.1587  0.1704
 9260W        W26784   2.662  11.105  16.207  0.1256  0.1729 -0.1674
 9261W        W26785   4.855   1.014   3.725 -0.1466 -0.0740 -0.0285
 9262W        W26786   6.629  13.690  15.093  0.0797 -0.0451  0.1171
 9263W        W26787   1.555  15.620  14.868  0.1687  0.0033  0.1699
 9264W        W26788   5.070   3.080  13.399  0.1847  0.1363 -0.0019
 9265W        W26789   3.523   5.041   1.412  0.0235 -0.0220 -0.0838
 9266W        W26790   5.997   7.382  14.381 -0.0516 -0.2512 -0.1229
 9267W        W26791  12.306   9.829  12.990  0.0940  0.1249 -0.1477
 9268W        W26792   4.675  16.265   5.750  0.1241  0.2121  0.0457
 9269W        W26793  14.244  13.125  13.795 -0.1104 -0.2322 -0.0154
 9270W        W26794   5.026   4.883   4.599 -0.0663 -0.0057 -0.0799
 9271W        W26795  17.584   6.836   4.259  0.1544 -0.1993 -0.0599
 9272W        W26796   6.188  15.682   0.462 -0.2716  0.0171 -0.1994
 9273W        W26797   8.263   9.877   0.017  0.1959 -0.0672  0.0799
 9274W        W26798  16.968   1.252   4.315 -0.2543  0.1164  0.1679
 9275W        W26799   9.175   5.507  13.737 -0.0626  0.1371  0.3801
 9276W        W26800   4.169  13.374  12.074 -0.1032  0.2450 -0.0950
 9277W        W26801   7.477  16.320   0.209 -0.1719  0.1346  0.0291
 9278W        W26802   4.101  16.786   5.438 -0.1027  0.1340 -0.3130
 9279W        W26803   0.075  15.437   5.132 -0.3667  0.0877 -0.2228
 9280W        W26804   5.459  17.660   2.799  0.0372  0.2045  0.1980
 9281W        W26805  10.238   5.372  13.901 -0.0938 -0.2178 -0.0832
 9282W        W26806   8.280   4.932   4.456 -0.0861 -0.0433 -0.0254
 9283W        W26807   4.431   9.040   1.723  0.3888  0.0991 -0.2420
 9284W        W26808   4.243   3.373  13.633  0.3126 -0.1256  0.1477
 9285W        W26809   7.101   0.381  12.594  0.2670  0.0446 -0.2912
 9286W        W26810   8.579  16.287  12.277 -0.1623  0.0758  0.1028
 9287W        W26811  15.557   9.537   2.556 -0.1870 -0.1677  0.1537
 9288W        W26812   2.421   5.392  15.455 -0.1633  0.1086 -0.0505
 9289W        W26813  16.175  16.139  14.680  0.1948 -0.4902 -0.0864
 9290W        W26814  10.927   6.965   0.108  0.0177  0.3097 -0.0026
 9291W        W26815   7.956   8.957   2.016 -0.2442 -0.1147 -0.1162
 9292W        W26816  12.787   5.378   1.844 -0.0258 -0.1295 -0.2545
 9293W        W26817  14.508  13.607   4.608  0.0895  0.0671  0.0877
 9294W        W26818  16.886   2.226   0.363 -0.1873 -0.1517 -0.2095
 9295W        W26819  15.669   2.544   1.790  0.0369 -0.2350 -0.2144
 9296W        W26820  11.743  12.112   5.253  0.1864  0.0079  0.3100
 9297W        W26821   1.149   4.785   3.268 -0.1919  0.0016  0.2150
 9298W        W26822   9.213   7.791  15.127 -0.0123  0.0489 -0.3256
 9299W        W26823   7.305   1.826   0.140  0.2523 -0.1306  0.2553
 9300W        W26824   2.357  11.006  11.845  0.1715  0.1162 -0.0774
 9301W        W26825   4.355  11.355   1.720  0.2574  0.0367  0.0138
 9302W        W26826   8.848  15.114  12.687  0.0591  0.1628 -0.1751
 9303W        W26827   2.360   4.460   4.951 -0.1442  0.0194 -0.0735
 9304W        W26828   9.999   8.127  14.389 -0.2063  0.5221  0.1518
 9305W        W26829  17.962   4.154   4.807  0.1138  0.2955  0.2532
 9306W        W26830   9.692  13.980  13.493  0.1513  0.0411  0.0833
 9307W        W26831  13.139  13.622  12.847 -0.0116 -0.0006 -0.0365
 9308W        W26832  14.784  12.215   3.425  0.0836  0.3904  0.3083
 9309W        W26833  10.892  16.845  14.696  0.2951 -0.2932  0.0813
 9310W        W26834   7.494   0.476  11.863  0.0084  0.0515 -0.4369
 9311W        W26835   6.021  16.892  13.660  0.1609 -0.0786  0.0430
 9312W        W26836   1.101  15.524  15.047  0.0337  0.0283  0.0906
 9313W        W26837   6.057   2.468  15.769 -0.1077  0.1096 -0.2576
 9314W        W26838  11.669   6.479  14.177  0.1414  0.1366  0.0146
 9315W        W26839   0.568   3.889   4.298  0.4540  0.1688 -0.0947
 9316W        W26840  13.728  14.017  15.739  0.1708 -0.0165 -0.2258
 9317W        W26841  14.511   3.490  14.555 -0.0055  0.0378  0.2444
 9318W        W26842   6.273  11.005   2.748 -0.0324 -0.0387 -0.1964
 9319W        W26843   3.654   5.747  15.204  0.1167 -0.2180 -0.1244
 9320W        W26844  12.668   7.539  13.987 -0.1863 -0.2945  0.4373
 9321W        W26845  14.529   2.134  14.704  0.0962 -0.0550 -0.1985
 9322W        W26846   7.942   0.352   3.786 -0.0673 -0.1123  0.4151
 9323W        W26847   9.036   5.745  11.069  0.2113 -0.1039  0.0472
 9324W        W26848  13.159   6.063   1.524 -0.0407  0.1323 -0.0213
 9325W        W26849   1.317  17.666  13.129 -0.0190  0.1768 -0.1796
 9326W        W26850  12.703  14.149   2.808 -0.0509 -0.0573  0.1134
 9327W        W26851  12.542  12.411   2.096  0.1061  0.0931  0.1318
 9328W        W26852  12.572   4.039  15.019 -0.1814  0.1065 -0.2978
 9329W        W26853   9.734   4.064  15.469 -0.0356  0.2402 -0.2003
 9330W        W26854   6.784   2.229  13.689 -0.0627  0.0394 -0.2404
 9331W        W26855   7.192  12.672   5.530  0.0681 -0.1036  0.1961
 9332W        W26856   6.962  11.708  13.393 -0.1529  0.1220 -0.0023
 9333W        W26857   0.289   6.225   5.178 -0.0957 -0.2067 -0.2029
 9334W        W26858   2.977  12.502  14.298  0.1025 -0.0247 -0.2199
 9335W        W26859   6.850  14.365  13.575  0.0133  0.1830  0.0700
 9336W        W26860  17.247  16.640   3.238  0.0638  0.1941 -0.0890
 9337W        W26861   2.450  17.698  12.710 -0.0739  0.0962 -0.2166
 9338W        W26862  10.558  13.617   4.912 -0.4143  0.1030  0.0412
 9339W        W26863  10.976   0.751  12.331 -0.0259 -0.3189 -0.1329
 9340W        W26864  10.394   9.493   0.163  0.0073  0.2767  0.2086
 9341W        W26865  15.262   5.304   3.347  0.1759  0.1114 -0.1537
 9342W        W26866   2.187  11.310   4.571  0.1311 -0.2887  0.0478
 9343W        W26867  14.576   8.624  16.257  0.2238  0.1752 -0.0649
 9344W        W26868   8.627  13.972   5.517  0.4764 -0.2003 -0.1492
 9345W        W26869  12.211  14.023  13.655 -0.3165 -0.3086  0.4959
 9346W        W26870  14.304  13.466  12.177  0.1377  0.1734 -0.1236
 9347W        W26871  17.087   8.139   5.949 -0.1037  0.2190 -0.1388
 9348W        W26872   6.163   9.851   4.691  0.0050  0.0833  0.0726
 9349W        W26873  17.066  11.747   1.404 -0.0985  0.0738 -0.0929
 9350W        W26874   1.949   5.231   4.621 -0.1865  0.3086  0.0612
 9351W        W26875  16.934  11.463  12.223 -0.0058 -0.0072 -0.4191
 9352W        W26876  15.835  13.529   5.660 -0.0617 -0.4083  0.1891
 9353W        W26877   9.081   4.883   4.709 -0.2600 -0.0085 -0.1575
 9354W        W26878  16.561  14.388   1.658  0.3127 -0.0258  0.0583
 9355W        W26879   5.092   6.206   3.255 -0.0843  0.1742 -0.0029
 9356W        W26880  11.489   6.527  15.823 -0.1869 -0.0517  0.2293
 9357W        W26881  16.459   2.877   2.601  0.1566 -0.1820 -0.0076
 9358W        W26882   6.497  16.597   3.774  0.3935  0.0192 -0.2071
 9359W        W26883  11.918   5.888  15.675 -0.0352  0.1795 -0.0601
 9360W        W26884   3.022   3.216  15.992  0.3842  0.0383 -0.0363
 9361W        W26885   0.282  14.204  13.744 -0.1914 -0.2329 -0.2416
 9362W        W26886  17.189   4.962   2.168  0.1085 -0.1552 -0.1577
 9363W        W26887  16.245   7.206  12.001 -0.4129  0.0427  0.0399
 9364W        W26888  11.171   4.731  12.126 -0.0211  0.3765  0.0931
 9365W        W26889  17.158   9.842   4.083 -0.0303 -0.0909  0.0118
 9366W        W26890   7.973   4.530  11.271  0.2238  0.1237  0.0595
 9367W        W26891  12.464  14.041   0.559  0.0254  0.1719 -0.0710
 9368W        W26892  11.977   0.494  13.575 -0.2806 -0.1190  0.0175
 9369W        W26893  15.789  10.922   4.899 -0.3440  0.1115  0.0442
 9370W        W26894  16.205   9.056   4.419 -0.0004 -0.1177  0.0312
 9371W        W26895  13.987  17.374   3.853 -0.2052 -0.2320 -0.0492
 9372W        W26896  14.303  16.322  12.540  0.1779 -0.1468 -0.2421
 9373W        W26897   9.408  16.352  15.899 -0.0579 -0.1133 -0.1830
 9374W        W26898   6.863   9.321  13.217 -0.0391  0.1288 -0.0610
 9375W        W26899  14.966  13.873  15.910 -0.2984 -0.1935  0.0846
 9376W        W26900   6.391   3.525   4.239  0.0577  0.1240  0.1755
 9377W        W26901   9.004   2.422   1.859  0.1708  0.0739 -0.0669
 9378W        W26902  12.204   2.571  11.541  0.1053 -0.1171 -0.0599
 9379W        W26903   9.617   7.196   3.886 -0.1508 -0.1220  0.0441
 9380W        W26904   7.909  17.873   3.502  0.0115  0.1790 -0.1522
 9381W        W26905   1.346   4.745   1.128 -0.1366 -0.3223  0.1181
 9382W        W26906   2.994   3.039  13.352  0.0999  0.0549  0.1116
 9383W        W26907   8.351   4.375  15.884 -0.1823  0.4091 -0.1245
 9384W        W26908   2.712   8.612  13.922  0.0278 -0.0202  0.0788
 9385W        W26909   4.489  17.056  11.352 -0.0317  0.1167 -0.2854
 9386W        W26910   0.088   5.122   4.650  0.2937 -0.1482  0.0780
 9387W        W26911   9.102  16.366  12.302 -0.2792 -0.0427 -0.0649
 9388W        W26912   3.574   9.803  11.992  0.2936 -0.1392 -0.2228
 9389W        W26913   2.981   9.645   0.096  0.4026  0.1799 -0.3012
 9390W        W26914  11.539   9.851   1.749  0.1236  0.1225 -0.1542
 9391W        W26915  12.017  17.566   3.289  0.0837 -0.1113 -0.1210
 9392W        W26916   7.145  12.261  11.939  0.1248 -0.0841  0.0814
 9393W        W26917   6.095  16.014  11.704  0.0038 -0.1486 -0.0448
 9394W        W26918  11.048   8.988  10.604 -0.3114  0.1297  0.1568
 9395W        W26919  17.487  12.611  14.496 -0.3876  0.2270 -0.2465
 9396W        W26920   1.153   2.720   0.329  0.1335 -0.1043  0.2710
 9397W        W26921  15.856   1.512   3.577 -0.1581 -0.1088  0.0298
 9398W        W26922   4.342   7.678   5.440  0.1435  0.1540 -0.0257
 9399W        W26923   5.284   5.982   4.942  0.0595 -0.1472 -0.0062
 9400W        W26924  16.829   6.621   2.246  0.2342 -0.3006 -0.0931
 9401W        W26925   4.110  15.230   4.746  0.0458 -0.1685  0.2574
 9402W        W26926   7.389  12.392   0.515  0.0561 -0.3699 -0.1645
 9403W        W26927   5.841  11.344   2.871  0.0506 -0.4330 -0.0470
 9404W        W26928   5.520  15.945   0.591 -0.2388  0.2455  0.1323
 9405W        W26929   2.193  14.277  12.388 -0.2038 -0.1018  0.0941
 9406W        W26930   7.149   9.176   0.917  0.0107  0.1991  0.1078
 9407W        W26931  12.829   9.259  10.130  0.1267 -0.2483 -0.3410
 9408W        W26932   1.735   5.317  11.455  0.2534 -0.2677  0.1000
 9409W        W26933   6.623  13.015   1.615  0.0381  0.2414 -0.1554
 9410W        W26934  17.000  14.707   1.384 -0.0099  0.0846 -0.2167
 9411W        W26935   2.897   0.275  13.411 -0.1092 -0.2758 -0.2248
 9412W        W26936   4.932  12.412   4.511 -0.1679 -0.0471  0.0263
 9413W        W26937   3.529   2.496   1.100 -0.2358  0.0280  0.0365
 9414W        W26938   1.509  10.995  14.189  0.1095  0.5612 -0.1723
 9415W        W26939   8.469   8.702   1.457 -0.0631 -0.1234 -0.0566
 9416W        W26940   9.957   7.205  14.105  0.0348  0.3610 -0.0047
 9417W        W26941  11.915  12.209   4.675  0.2566  0.0620 -0.1541
 9418W        W26942   1.228   4.672  13.876  0.2417  0.1863  0.4619
 9419W        W26943  11.059   8.449  12.854  0.0871  0.0528  0.1473
 9420W        W26944  13.239   5.582   1.731 -0.0765 -0.1978 -0.0413
 9421W        W26945  15.844  13.916   1.261  0.1290 -0.2166 -0.2599
 9422W        W26946   1.698  10.166   2.870  0.1998 -0.4460 -0.1494
 9423W        W26947  17.839  13.449  14.408 -0.0337 -0.1008  0.0755
 9424W        W26948   9.202   4.635  14.619 -0.3361 -0.1127  0.2452
 9425W        W26949  15.729   0.167   3.746 -0.3011 -0.0174  0.3915
 9426W        W26950   1.398  15.702   3.293  0.0204  0.1750  0.0058
 9427W        W26951   2.004  17.527  11.964  0.0401  0.1250  0.4036
 9428W        W26952  15.035   9.525   2.878  0.0491  0.0851 -0.1220
 9429W        W26953   7.436  17.859   3.589  0.0266  0.1687 -0.0752
 9430W        W26954   4.862   0.751   2.269 -0.3938 -0.1467  0.1064
 9431W        W26955   1.479  11.054  13.700  0.0617  0.0138  0.2474
 9432W        W26956  13.827   0.758   1.216 -0.2345  0.0662  0.1861
 9433W        W26957   9.747   9.844  12.497 -0.1938  0.2771 -0.0728
 9434W        W26958  15.564   9.202  10.335 -0.0789 -0.0826 -0.3351
 9435W        W26959   2.245  10.624   1.182 -0.1665 -0.1092  0.1919
 9436W        W26960   3.892   1.968   5.529 -0.0142  0.0738  0.0242
 9437W        W26961  16.168   5.950   3.712  0.0482  0.4872 -0.0109
 9438W        W26962   2.904   8.084  12.719  0.0313 -0.1093 -0.0736
 9439W        W26963  17.480  10.583   1.562 -0.1705 -0.0009  0.1666
 9440W        W26964  13.080  17.230  15.019 -0.1306 -0.1404 -0.3007
 9441W        W26965  17.537  17.620  10.936  0.3029  0.1452 -0.0517
 9442W        W26966   5.276  16.441   1.166  0.2492  0.0889  0.0641
 9443W        W26967   4.571  10.074   2.896  0.3385  0.1176  0.1635
 9444W        W26968  15.086  11.084  15.935 -0.0045  0.0308  0.0535
 9445W        W26969  15.390   4.188   0.344  0.0212 -0.0382 -0.1230
 9446W        W26970   3.850   6.837   3.325 -0.0139 -0.1962 -0.3265
 9447W        W26971   3.071   2.958  11.461 -0.1201 -0.0193  0.1784
 9448W        W26972   2.602   6.912  13.745 -0.1742  0.0334  0.0284
 9449W        W26973  11.022   8.062  11.492 -0.1711 -0.1077 -0.1356
 9450W        W26974   0.142  14.649   3.313 -0.2272  0.1581 -0.1621
 9451W        W26975   2.303  11.525   0.474 -0.0128  0.1242  0.0141
 9452W        W26976   8.703  11.015   1.546  0.0984  0.3299  0.0380
 9453W        W26977  12.085   8.356  15.262 -0.1119 -0.2165  0.0634
 9454W        W26978   8.082  15.849   3.170 -0.1512  0.0817  0.0325
 9455W        W26979   0.126   6.933   1.804  0.1614  0.0091 -0.3038
 9456W        W26980   0.700   3.959   2.735  0.2507  0.3662 -0.2530
 9457W        W26981   3.622   6.214  12.541 -0.2228  0.0761  0.0666
 9458W        W26982   9.153  10.554   1.074 -0.0129  0.3872  0.2024
 9459W        W26983   8.161  15.533  15.444 -0.4541 -0.1475  0.0697
 9460W        W26984  10.699   1.836   0.852  0.0631 -0.4436  0.0137
 9461W        W26985   8.092   3.902  14.121 -0.0546  0.0602 -0.0382
 9462W        W26986  12.066   4.698  14.556 -0.2087  0.0812 -0.0915
 9463W        W26987  12.784   7.450   3.076 -0.2187 -0.1635 -0.1154
 9464W        W26988  11.540   5.561  15.757 -0.1210  0.1770 -0.1709
 9465W        W26989   4.661  15.760  14.111 -0.2011 -0.1253 -0.2986
 9466W        W26990   3.211  14.848  10.846  0.1792 -0.0617  0.1334
 9467W        W26991  15.436  15.463  12.264 -0.0502  0.1053 -0.0630
 9468W        W26992  15.853   3.640   1.596  0.0704 -0.2843 -0.1415
 9469W        W26993   6.708  12.937  12.653  0.0969  0.0586  0.0143
 9470W        W26994   0.422   1.697  11.914  0.0398  0.2074 -0.1454
 9471W        W26995  14.433   0.306  11.938 -0.0082  0.3465  0.2080
 9472W        W26996   8.683   6.838  13.601 -0.2138  0.1046 -0.1181
 9473W        W26997   2.161   9.610  14.072  0.0220  0.1746  0.2141
 9474W        W26998   9.427   5.670   1.536 -0.5624 -0.3095  0.0715
 9475W        W26999   4.167  17.940  16.140  0.1435 -0.0896 -0.2544
 9476W        W27000   7.054   2.840   3.803 -0.1677  0.2192  0.0936
 9477W        W27001  12.767   8.024  14.680 -0.1640 -0.0482  0.2158
 9478W        W27002   4.500   9.278  11.724  0.0205 -0.1325 -0.1663
 9479W        W27003   3.512   4.869  15.453  0.1732  0.0595  0.2574
 9480W        W27004   2.185   9.699  11.858  0.1957 -0.2530  0.0542
 9481W        W27005   2.266   8.843  13.579  0.0800  0.0822 -0.2977
 9482W        W27006   1.661   0.667  15.922 -0.0479 -0.0537  0.0094
 9483W        W27007   0.600   9.392   4.936 -0.0685  0.3504  0.0907
 9484W        W27008  11.756  14.539  10.655  0.1101 -0.2031  0.1252
 9485W        W27009   4.302  15.633   3.358  0.0257 -0.1414 -0.0511
 9486W        W27010   4.656  16.882   1.734  0.1686 -0.0344  0.1820
 9487W        W27011   0.134   3.672   5.095 -0.0286  0.2972  0.0796
 9488W        W27012   6.980   8.361  13.505 -0.0898  0.1390 -0.1407
 9489W        W27013  10.333  10.686   0.044 -0.2266  0.1815 -0.0814
 9490W        W27014  14.131   7.639   3.447  0.0610  0.1639  0.1670
 9491W        W27015   2.932   8.978   3.169  0.2214  0.1210  0.0620
 9492W        W27016   9.985  14.842   2.233  0.0590  0.4533  0.0746
 9493W        W27017  16.460   5.588   1.064  0.1165  0.1023 -0.1009
 9494W        W27018  17.022   2.551   4.771 -0.0608 -0.0107  0.0535
 9495W        W27019   4.570   7.285   1.377  0.0826  0.1417 -0.0477
 9496W        W27020   5.456  10.906  12.181  0.1733 -0.0316 -0.0170
 9497W        W27021  12.616  15.621  14.512  0.3226  0.0625  0.1127
 9498W        W27022   0.124   6.021   4.772  0.0864 -0.0469  0.0435
 9499W        W27023   9.856  17.073   2.935 -0.0829 -0.0536 -0.1689
 9500W        W27024   7.009  11.343  14.139  0.2387 -0.1902 -0.2431
 9501W        W27025  16.832  12.940  11.550  0.2982 -0.1353 -0.0016
 9502W        W27026   3.425   0.356   3.396  0.0104 -0.1724  0.0899
 9503W        W27027   3.951   1.585  12.597 -0.1528 -0.1671 -0.0169
 9504W        W27028  15.278   5.601  14.398 -0.5247  0.1658  0.1769
 9505W        W27029  15.422  16.685  12.316  0.1510  0.3945 -0.2196
 9506W        W27030  13.291  14.635  14.352 -0.0520 -0.2290  0.3536
 9507W        W27031   5.735   9.384   2.178  0.1226  0.0543  0.1051
 9508W        W27032   4.552  10.573  13.436  0.1460 -0.1063 -0.0242
 9509W        W27033   7.188  14.958  14.560 -0.2233  0.2223 -0.0400
 9510W        W27034   8.367  10.228  15.453  0.1798 -0.0636 -0.1959
 9511W        W27035   9.473  14.814  15.749  0.0811  0.0935 -0.1550
 9512W        W27036  13.615  11.119  11.094  0.0513  0.2593 -0.1101
 9513W        W27037   8.018   1.799  12.751 -0.2139  0.2218 -0.1927
 9514W        W27038  12.894   4.295  13.077  0.2930  0.1629  0.2246
 9515W        W27039  14.605   5.172   1.609 -0.1167 -0.5047 -0.0087
 9516W        W27040   5.195  10.306  15.021  0.1440 -0.0795 -0.0935
 9517W        W27041   3.850  13.454   4.887 -0.0762 -0.1765  0.2326
 9518W        W27042  11.806   4.070  10.576  0.0554  0.0804 -0.0514
 9519W        W27043   3.022   6.730  12.525 -0.1230 -0.3397  0.1908
 9520W        W27044   7.595   3.443   2.344 -0.1339 -0.0738 -0.3921
 9521W        W27045   5.589   3.668   4.629 -0.2042 -0.0949  0.4810
 9522W        W27046   0.174   0.417  14.571  0.2035 -0.1789  0.0789
 9523W        W27047  10.014  16.352  13.982  0.2988 -0.0335 -0.1879
 9524W        W27048   7.302   0.902  14.737 -0.1949 -0.1787  0.3146
 9525W        W27049  13.575   5.675  11.352  0.1956 -0.0165  0.1652
 9526W        W27050  10.385  17.260  15.358  0.4021 -0.2933 -0.0789
 9527W        W27051  12.256  16.931   4.650 -0.3363 -0.3811  0.0544
 9528W        W27052  12.917   4.201   0.035 -0.4077  0.1640  0.2173
 9529W        W27053   3.853  11.044  13.188  0.1044 -0.4256 -0.0042
 9530W        W27054   4.127  15.271   1.538  0.0752  0.1356 -0.2279
 9531W        W27055   0.241   8.986   1.264  0.1252  0.0668 -0.1468
 9532W        W27056  12.673   3.302   0.759  0.0454  0.1714 -0.1912
 9533W        W27057  10.743  16.586  12.951  0.0913 -0.2028  0.0549
 9534W        W27058   9.114  14.705   5.055 -0.3029 -0.1993  0.0333
 9535W        W27059   4.091   3.526   2.727 -0.3119  0.1738 -0.2829
 9536W        W27060   2.125  11.943  14.835 -0.1338 -0.1754  0.1301
 9537W        W27061   2.362   5.465  14.373 -0.0073 -0.0650  0.1029
 9538W        W27062  17.718  15.306  11.889  0.1324  0.1967 -0.1325
 9539W        W27063  14.375  14.935  15.053  0.0427  0.0321  0.1597
 9540W        W27064  10.121   2.602   0.519 -0.2193 -0.1262  0.0523
 9541W        W27065   8.608   2.709  13.714  0.1829  0.5350 -0.1562
 9542W        W27066  14.542   5.934  11.490  0.0256  0.0223 -0.2195
 9543W        W27067   2.644  17.119  14.686 -0.0003 -0.2946 -0.0310
 9544W        W27068  17.291  14.095  13.446  0.1682  0.2053 -0.0457
 9545W        W27069   1.729  10.314  12.444 -0.1000 -0.0466  0.2153
 9546W        W27070   0.044  14.752  15.769 -0.2120  0.1142 -0.0114
 9547W        W27071   5.470   0.551   0.930  0.1177  0.2096  0.0261
 9548W        W27072   0.527  11.697  13.496  0.0129 -0.0332  0.1719
 9549W        W27073   8.702  15.382  15.689  0.0222 -0.0363  0.2890
 9550W        W27074   2.086   0.827   0.492 -0.0048 -0.2611 -0.1375
 9551W        W27075  13.622  14.486  12.884 -0.2288  0.0401 -0.3026
 9552W        W27076   3.468   5.102   4.905 -0.0060  0.1335 -0.0679
 9553W        W27077   3.418  17.334   1.193 -0.0572 -0.0724 -0.2480
 9554W        W27078   0.258   1.219   1.657 -0.0022 -0.0483 -0.0766
 9555W        W27079   8.249   9.007  15.754 -0.0530 -0.0245 -0.0999
 9556W        W27080  12.655  15.925   5.176 -0.1855 -0.0108  0.0219
 9557W        W27081  12.089   1.715   3.567  0.2365  0.4527  0.1928
 9558W        W27082  11.073  17.036   4.285  0.2241  0.2373 -0.3028
 9559W        W27083  17.261   4.958   3.571 -0.1808 -0.0924 -0.1137
 9560W        W27084  12.866  17.001  11.564  0.0422 -0.0939 -0.0567
 9561W        W27085  17.247  17.520  14.308  0.1310 -0.0790  0.0499
 9562W        W27086   2.434  13.025   2.090 -0.0793 -0.0549  0.1680
 9563W        W27087  14.822   0.988   0.822 -0.1212 -0.0607  0.0604
 9564W        W27088   0.781   4.511  15.771 -0.3493  0.1163  0.1663
 9565W        W27089  14.285   6.712  13.516 -0.1195 -0.0256  0.1977
 9566W        W27090   1.472   8.491  13.814  0.1349  0.1778  0.1489
 9567W        W27091   6.839   9.438   3.861 -0.1255  0.2242  0.2271
 9568W        W27092   0.529   5.832   2.701  0.0282 -0.1466  0.1655
 9569W        W27093  10.419   5.473   4.794 -0.0419  0.0950  0.2719
 9570W        W27094  16.444   4.297  13.906 -0.3017  0.1520  0.0793
 9571W        W27095   8.754   4.176  15.407  0.1052 -0.1046  0.0106
 9572W        W27096  13.318  17.333   4.007  0.0010 -0.2129  0.0822
 9573W        W27097  17.184  14.939   4.891 -0.2293  0.2138 -0.1333
 9574W        W27098  10.004   3.489   1.681  0.1446 -0.0916 -0.3740
 9575W        W27099  12.670  11.777  12.635  0.2275 -0.2402  0.0422
 9576W        W27100   2.979  11.173  15.358 -0.0857  0.0302 -0.3131
 9577W        W27101   4.419  13.398  14.074  0.1579 -0.3195  0.2154
 9578W        W27102   3.892   9.055   1.726  0.2022 -0.2181 -0.2618
 9579W        W27103  12.690   9.100   2.994  0.1209  0.1274 -0.0434
 9580W        W27104   8.694  10.526  12.042 -0.0053 -0.0324  0.1960
 9581W        W27105   8.212  15.176   3.333  0.1463  0.1374 -0.1957
 9582W        W27106   4.272   8.042  13.406 -0.1483 -0.0767 -0.2119
 9583W        W27107  13.806  15.161   4.292 -0.0901  0.3988 -0.2312
 9584W        W27108   8.104   9.797  14.744 -0.1090 -0.0542  0.0653
 9585W        W27109  13.304   4.613  13.192 -0.0289  0.2093  0.2382
 9586W        W27110   9.086  12.060  13.031 -0.2962 -0.2901 -0.1528
 9587W        W27111  17.142   0.072   3.826 -0.0248 -0.1318 -0.0904
 9588W        W27112  15.268   7.398  12.780  0.0967 -0.1649 -0.2215
 9589W        W27113   7.136   2.367  14.978  0.0846 -0.0970  0.0510
 9590W        W27114  12.680   0.909  14.672  0.0687  0.0541  0.0977
 9591W        W27115  11.228   9.930   2.705 -0.0622  0.0462 -0.0466
 9592W        W27116  14.768   6.035   0.556 -0.1459  0.2151 -0.0268
 9593W        W27117  10.728   9.993  12.794  0.2667  0.1926 -0.1386
 9594W        W27118  13.534  15.849   0.869 -0.1249 -0.3065  0.0374
 9595W        W27119  14.835   5.972   2.105 -0.0222  0.0710 -0.0155
 9596W        W27120   3.362   7.590   3.493  0.2141  0.0900  0.1177
 9597W        W27121  10.240   3.460   4.508 -0.0703  0.1777 -0.0009
 9598W        W27122   7.929  15.509   0.546  0.0286  0.1091 -0.0164
 9599W        W27123  14.353   0.993  15.014 -0.0604 -0.0388  0.1983
 9600W        W27124   1.197  15.597   0.353 -0.0434  0.0975  0.1145
 9601W        W27125   0.584  16.296  14.979 -0.1643 -0.3627 -0.2086
 9602W        W27126  11.571  17.214  11.650 -0.1755 -0.2235  0.3243
 9603W        W27127   6.922  14.597  14.400 -0.0286  0.0050  0.0442
 9604W        W27128   8.413  11.259   1.224 -0.4189 -0.1264 -0.1920
 9605W        W27129   5.870   0.964   2.290  0.2670  0.0228 -0.2658
 9606W        W27130  13.422  16.453   2.812  0.2237 -0.0784  0.0768
 9607W        W27131   0.825   2.742  14.351  0.0075  0.1633 -0.0269
 9608W        W27132   9.442   1.851  12.103  0.0125 -0.3047 -0.1985
 9609W        W27133   4.988  14.071   5.143  0.0465 -0.0549 -0.1041
 9610W        W27134   7.375   2.792   1.381  0.0513  0.2510 -0.1635
 9611W        W27135   2.244   2.128   2.224 -0.0728  0.0586  0.0266
 9612W        W27136   8.623   9.648  13.559  0.1033  0.2182  0.2480
 9613W        W27137   1.380   6.693  11.326 -0.1357 -0.3328 -0.2316
 9614W        W27138  14.269   2.496   4.328  0.0322 -0.1136  0.1395
 9615W        W27139  17.233   4.091  11.368  0.0773  0.0179  0.1681
 9616W        W27140   7.352   2.268  12.069 -0.0031  0.1030  0.0627
 9617W        W27141  15.962   2.328   3.254 -0.0707 -0.0222  0.0723
 9618W        W27142  11.302  11.728   2.548 -0.1220 -0.3540 -0.0103
 9619W        W27143   3.700   8.470   2.944  0.1140  0.1475  0.2188
 9620W        W27144   3.492  14.541   0.042 -0.0053 -0.3042  0.0281
 9621W        W27145  16.657  10.471   2.281 -0.1386  0.0829 -0.0315
 9622W        W27146  10.447  12.248  15.770  0.2431  0.0764 -0.0599
 9623W        W27147  14.353  13.373  14.748 -0.3760  0.0631 -0.2161
 9624W        W27148   1.535   2.564   2.883 -0.0232 -0.4609 -0.0910
 9625W        W27149  13.617  15.847   1.615  0.0206  0.0755  0.0736
 9626W        W27150   5.497   4.387  15.669 -0.0757 -0.0353 -0.1002
 9627W        W27151  10.768   2.043   0.395  0.1644  0.0046 -0.0146
 9628W        W27152   9.167  11.678   5.958  0.1947 -0.1685  0.1429
 9629W        W27153   1.118  13.227  13.281  0.0074 -0.0923 -0.0462
 9630W        W27154  13.139   5.439  11.018 -0.1227 -0.1239 -0.2948
 9631W        W27155   2.571   6.786  12.776 -0.1165  0.0222  0.1614
 9632W        W27156   8.132  12.606  14.381  0.1812  0.0250 -0.0439
 9633W        W27157   8.739   6.593  13.016 -0.0482 -0.0462 -0.1844
 9634W        W27158  13.977   6.925  13.130 -0.0632  0.1436  0.0533
 9635W        W27159  17.254  15.735   0.318  0.1074 -0.0554  0.1071
 9636W        W27160  11.378  12.021   3.813 -0.1296 -0.3190  0.0480
 9637W        W27161   7.673  15.481   2.544 -0.3103  0.1493 -0.0540
 9638W        W27162   8.740   9.182  11.769  0.2368  0.2182  0.4175
 9639W        W27163   1.231  15.902  12.846 -0.2010  0.0984  0.1792
 9640W        W27164   9.004  10.313  14.707  0.0262 -0.0549  0.0767
 9641W        W27165   6.588   5.797  10.529  0.1257  0.1002 -0.1690
 9642W        W27166   0.998   1.274   3.831 -0.4584  0.2273 -0.0830
 9643W        W27167  13.171   6.092   0.538  0.1857 -0.1622 -0.1636
 9644W        W27168  12.565   7.892   1.672 -0.0467  0.0774 -0.1539
 9645W        W27169   8.974   9.063  12.735  0.1274  0.2046  0.2988
 9646W        W27170  15.996   4.742   4.296  0.1115 -0.0416 -0.1352
 9647W        W27171   5.254  13.720   2.750 -0.0360  0.1053  0.1029
 9648W        W27172   7.773   5.952   3.550  0.0063  0.0330 -0.1869
 9649W        W27173  11.103  13.287  13.827  0.1151 -0.1398 -0.1933
 9650W        W27174  11.527   6.285   0.316  0.1217 -0.2293  0.0372
 9651W        W27175   1.212   3.609  13.706  0.0990 -0.1179  0.0578
 9652W        W27176   8.011   2.935   4.782  0.0432 -0.0787  0.0173
 9653W        W27177   9.036   2.732   5.739 -0.4653  0.1226  0.1004
 9654W        W27178   2.827   6.880   2.309 -0.1653  0.0419 -0.1493
 9655W        W27179  17.017  12.342  13.934 -0.4473 -0.0060  0.1656
 9656W        W27180   7.119   1.923  12.412  0.2165 -0.1524  0.1704
 9657W        W27181   6.317  11.192  12.807 -0.1298 -0.0920  0.2365
 9658W        W27182  17.250   8.298   1.455  0.1331 -0.1222 -0.2160
 9659W        W27183   0.159  15.219   2.004  0.1705  0.1421  0.1022
 9660W        W27184   9.678   9.580  13.531 -0.2063  0.1607  0.0873
 9661W        W27185  17.097  13.223  11.876 -0.1252 -0.0520  0.3228
 9662W        W27186   2.948   1.213  14.961  0.1819 -0.3589  0.0910
 9663W        W27187   8.601  12.126   0.827  0.0566 -0.2875  0.1093
 9664W        W27188   8.383   0.547   3.668 -0.2321 -0.0372 -0.1454
 9665W        W27189   7.551   1.743  12.661 -0.2426  0.0077 -0.1051
 9666W        W27190  14.276  10.497  14.267 -0.1767 -0.0445 -0.0123
 9667W        W27191   0.917   6.518  13.491  0.3759  0.1574  0.0455
 9668W        W27192   3.950   8.862  13.396 -0.2601 -0.0584  0.1245
 9669W        W27193   3.920   6.925  13.866  0.1768  0.0494  0.0891
 9670W        W27194  13.746   6.904   3.791 -0.4027  0.0508  0.1202
 9671W        W27195  11.898   7.803   1.344 -0.0094 -0.0839  0.2225
 9672W        W27196   5.049   8.442   5.911 -0.0823 -0.3730 -0.4357
 9673W        W27197  15.482  15.224   4.277  0.0675  0.1821 -0.1426
 9674W        W27198   6.649  11.161   1.587 -0.1266 -0.1635 -0.1104
 9675W        W27199   6.202   4.961   0.705 -0.0021 -0.0524 -0.1626
 9676W        W27200   7.546  12.026  14.115  0.0738 -0.1931  0.0885
 9677W        W27201   8.946  12.199   4.338  0.1493 -0.1470  0.2391
 9678W        W27202   3.969  16.741  13.368  0.0360 -0.3189 -0.1117
 9679W        W27203   4.678   1.989   1.610  0.1064  0.1935  0.1083
 9680W        W27204  16.093   2.692  13.610  0.0332  0.0008 -0.1433
 9681W        W27205  17.144  15.191  12.586 -0.0711  0.1444  0.1069
 9682W        W27206  16.453  17.453  12.630  0.0498 -0.0806  0.1760
 9683W        W27207   5.011  12.023   1.323  0.0674 -0.0516  0.1590
 9684W        W27208   2.731   2.591  15.327 -0.1248 -0.0491 -0.0593
 9685W        W27209  17.334  16.235   0.293  0.0961  0.2395  0.2194
 9686W        W27210  13.126   6.065   3.507  0.1007 -0.0008  0.1085
 9687W        W27211  15.741  17.081   3.169  0.0407  0.0725  0.0071
 9688W        W27212  15.618  17.154  15.581 -0.0460  0.0185 -0.2168
 9689W        W27213   7.692  12.938  13.092  0.3248 -0.0327  0.0193
 9690W        W27214  17.292   1.131  12.256  0.2500 -0.2425 -0.0090
 9691W        W27215   0.000  12.531   1.589 -0.2782 -0.0239  0.0232
 9692W        W27216   5.151   9.229   4.859  0.3730 -0.5341 -0.1767
 9693W        W27217  10.288   6.841   4.211  0.4368 -0.0911 -0.1932
 9694W        W27218   1.606   7.554   0.204  0.3570  0.3067 -0.0695
 9695W        W27219  13.519  13.634   4.020 -0.1559  0.1803  0.1822
 9696W        W27220   2.098   5.367   0.147  0.3875  0.0239  0.1847
 9697W        W27221  17.220   1.073  15.884  0.1783  0.0582  0.1175
 9698W        W27222  16.540  13.953  15.139  0.0665 -0.0623  0.1240
 9699W        W27223   5.858   0.981  15.801  0.0421 -0.0786  0.0632
 9700W        W27224   2.918  17.642   1.179 -0.0705 -0.3876  0.0158
 9701W        W27225   9.810   6.780   5.117 -0.0739 -0.0827  0.3430
 9702W        W27226   6.561   5.527  14.315 -0.1360 -0.1445  0.0178
 9703W        W27227   1.309  17.162   3.509 -0.2211  0.1818 -0.0320
 9704W        W27228   0.893   4.320   1.766  0.3611 -0.3299 -0.0434
 9705W        W27229   9.001   4.670  11.347  0.2688 -0.3643 -0.1254
 9706W        W27230   3.073  15.526   4.288  0.0327  0.0099  0.2120
 9707W        W27231   5.091  16.090  13.969 -0.1830 -0.0431  0.0013
 9708W        W27232  10.342  11.261  16.094 -0.2059  0.0328 -0.0161
 9709W        W27233   9.589   3.598  15.363  0.0713  0.3993 -0.1686
 9710W        W27234   5.889  14.785   5.079 -0.0010  0.0573  0.4198
 9711W        W27235  12.412  14.823  14.276  0.0142  0.5153 -0.0836
 9712W        W27236   5.689   0.453   2.208  0.0263  0.3785  0.0302
 9713W        W27237   6.834   6.515   4.853  0.0545  0.1262 -0.1024
 9714W        W27238  11.718  11.022   4.682  0.0634  0.0055  0.1558
 9715W        W27239   6.637   2.005   4.827  0.5325  0.0459 -0.1696
 9716W        W27240  17.050   1.868  15.330 -0.3580 -0.0051 -0.1669
 9717W        W27241   0.619  17.374   5.049 -0.4595  0.3005 -0.0218
 9718W        W27242  11.223  12.089  14.754  0.0835  0.2962  0.0844
 9719W        W27243  15.833  10.187   2.869 -0.1679  0.0439  0.2473
 9720W        W27244  15.582   5.777  10.505  0.1786 -0.0063  0.0280
 9721W        W27245  16.237  10.791  14.715 -0.1054 -0.1045 -0.1919
 9722W        W27246  15.274   8.328   1.741 -0.1812  0.0572 -0.0971
 9723W        W27247  15.312  10.129   1.766 -0.1175 -0.0420  0.1828
 9724W        W27248   9.111   2.621  12.618 -0.1468 -0.0346 -0.0175
 9725W        W27249   3.309  12.924  13.738 -0.2476  0.0085 -0.0849
 9726W        W27250  15.296   4.062  10.959  0.3221 -0.0260  0.1026
 9727W        W27251   6.478   1.051   4.040  0.3994  0.3982 -0.3590
 9728W        W27252   2.298   8.383   4.603 -0.1173 -0.1798  0.0796
 9729W        W27253  16.059   0.390  12.569  0.1700  0.0697  0.0930
 9730W        W27254   1.913   5.431   5.161  0.2216  0.2394  0.3158
 9731W        W27255   7.530  13.736   0.015 -0.0665 -0.1036 -0.1568
 9732W        W27256   1.048   9.158   1.067  0.2218  0.4861 -0.0046
 9733W        W27257  10.577   5.310  11.673  0.0594  0.2543  0.1086
 9734W        W27258  17.200   9.112  13.117  0.1785  0.1247  0.1041
 9735W        W27259   5.626   5.381  13.692  0.0307  0.3147  0.1526
 9736W        W27260  12.281   1.085  13.066 -0.1528  0.2908  0.3419
 9737W        W27261   2.868  13.686  15.386  0.0731  0.3377 -0.1677
 9738W        W27262   7.156   0.738   3.603 -0.0035  0.0947 -0.3974
 9739W        W27263  15.815  12.292  10.937  0.2409  0.0448 -0.2452
 9740W        W27264  10.681  16.057   1.960 -0.1774  0.2286 -0.0452
 9741W        W27265  15.592   6.735  12.262 -0.0179 -0.3513 -0.1333
 9742W        W27266   3.972  16.308   2.007 -0.0173  0.0933 -0.1298
 9743W        W27267   8.865  13.530   5.529  0.0035  0.4468 -0.0363
 9744W        W27268  13.616  14.967  16.174  0.0351  0.0883  0.0766
 9745W        W27269   7.928   4.717   1.959  0.1072 -0.3047 -0.0602
 9746W        W27270  16.185   6.324   2.727 -0.1288  0.1720  0.2472
 9747W        W27271  16.689   4.711   0.277 -0.0371 -0.1847 -0.2007
 9748W        W27272  17.332  17.933  12.297 -0.4241  0.4094  0.0402
 9749W        W27273   0.213  10.623   3.817  0.0412 -0.0902 -0.4389
 9750W        W27274  13.462   3.606  14.241 -0.1707  0.1104  0.0003
 9751W        W27275   5.403   5.351   3.433  0.2573  0.3073  0.1076
 9752W        W27276   0.150   7.331  14.983  0.0430  0.0741 -0.1757
 9753W        W27277   3.403   6.515  13.288  0.0752  0.1396 -0.1522
 9754W        W27278   9.069  17.382   3.342  0.0483 -0.0075  0.0815
 9755W        W27279   0.202   8.102   1.173 -0.0066  0.2487 -0.0046
 9756W        W27280   0.779  11.298   3.423 -0.3324  0.1054  0.0692
 9757W        W27281   5.015   9.017  15.888 -0.2772  0.1171 -0.1043
 9758W        W27282   4.030   7.095  15.917 -0.1419  0.1604 -0.1816
 9759W        W27283   7.486  17.224  12.059  0.0801 -0.0643 -0.0657
 9760W        W27284  16.895   4.727   1.079 -0.1664 -0.2890  0.1778
 9761W        W27285   4.005  15.942  13.374 -0.1702 -0.0987 -0.1892
 9762W        W27286   5.222  15.300  11.305 -0.2356  0.0820 -0.1449
 9763W        W27287   8.995  10.454   4.606 -0.2351  0.2347  0.3694
 9764W        W27288  17.685  17.083  13.192  0.0082  0.0145 -0.0670
 9765W        W27289  14.857  14.353   4.168  0.4459 -0.0500  0.0035
 9766W        W27290   2.819   2.429  11.461 -0.2901  0.1885  0.0423
 9767W        W27291  14.428  14.831   1.014 -0.0851  0.0436  0.0948
 9768W        W27292   0.055  16.654   1.319 -0.0683 -0.0548  0.1054
 9769W        W27293  16.519   9.832   0.068 -0.2672  0.1921 -0.0534
 9770W        W27294  13.669   7.452   1.086  0.0186  0.3742 -0.0003
 9771W        W27295   0.488   5.279   3.282 -0.1071  0.0637 -0.1908
 9772W        W27296  12.841   0.749   2.083  0.1877 -0.0933 -0.1285
 9773W        W27297   9.239   7.660   1.138 -0.1381  0.0388 -0.1184
 9774W        W27298   5.181   9.019  14.919  0.2515 -0.0638 -0.3357
 9775W        W27299   5.417  13.791  14.808  0.0275  0.1533  0.0864
 9776W        W27300  15.625  10.683   3.120  0.2130  0.1826  0.0339
 9777W        W27301  13.425  13.841   1.316 -0.2340  0.0691 -0.1088
 9778W        W27302  17.018   8.345   2.380 -0.0274  0.1694  0.2673
 9779W        W27303  16.889   0.831  12.662  0.1993 -0.0515 -0.2582
 9780W        W27304  16.892  11.140   2.159  0.3181 -0.0004  0.0432
 9781W        W27305  11.883  12.516  11.301  0.0402  0.1668  0.1755
 9782W        W27306   9.116  16.242  15.464  0.0529  0.3214 -0.2474
 9783W        W27307   4.525   1.613   1.948  0.2044  0.1477 -0.3539
 9784W        W27308   9.467   9.241  15.718 -0.0792  0.1160 -0.1272
 9785W        W27309  15.524   8.988  11.990 -0.1176  0.0082 -0.2339
 9786W        W27310   9.349  16.769  11.992 -0.0713 -0.1959 -0.0669
 9787W        W27311   5.071   7.616  12.247  0.1483 -0.1972  0.3141
 9788W        W27312  12.426   9.306   3.888 -0.1398 -0.1365 -0.1655
 9789W        W27313  17.252   0.595  12.394  0.1093 -0.0691 -0.0938
 9790W        W27314   1.980   6.071  13.801 -0.4507  0.0631 -0.1333
 9791W        W27315   0.932   8.861   2.564 -0.0929  0.1070  0.1816
 9792W        W27316   2.881  10.056   1.082  0.1988 -0.1571 -0.0607
 9793W        W27317   9.774  12.225  15.447 -0.0888 -0.2098  0.0670
 9794W        W27318   3.995  15.472   3.026 -0.1262 -0.1177  0.0259
 9795W        W27319   7.293   0.606   3.108  0.1906  0.0301  0.0529
 9796W        W27320   7.072   2.748   3.298  0.0267 -0.3946  0.4437
 9797W        W27321  12.922  16.736   0.461  0.0045 -0.1426 -0.2074
 9798W        W27322   6.763   5.475   1.271 -0.1982 -0.0218  0.0001
 9799W        W27323   7.577   2.554  11.581 -0.0823 -0.1077 -0.0791
 9800W        W27324  15.377  12.204  11.155  0.1419 -0.0873  0.1810
 9801W        W27325   9.554   5.822  12.482  0.1065  0.3681  0.3003
 9802W        W27326   3.006  15.242   0.322  0.0760 -0.0628 -0.1571
 9803W        W27327  11.189   6.082  11.416 -0.0491 -0.2203  0.0644
 9804W        W27328   7.155   4.733  14.462 -0.1174  0.1828  0.0007
 9805W        W27329   4.439   0.514   4.528 -0.2475  0.1601  0.2089
 9806W        W27330   5.033   9.630   1.538  0.0943  0.1936 -0.0803
 9807W        W27331   5.613  16.304  14.517 -0.4311 -0.1876  0.2337
 9808W        W27332  16.603   0.969   0.990 -0.0992  0.1183 -0.1262
 9809W        W27333  11.865   0.615   0.973 -0.1513  0.2919  0.1976
 9810W        W27334  15.047   6.274   0.920  0.2384  0.1835  0.3920
 9811W        W27335   7.065  12.132   0.115  0.0564  0.1460  0.4561
 9812W        W27336   9.319   6.130  11.396  0.0854 -0.2671  0.0037
 9813W        W27337  12.756   4.503  11.307 -0.3205 -0.1054  0.1899
 9814W        W27338   3.019   1.892  12.715 -0.1141  0.0781 -0.2188
 9815W        W27339   0.068  13.330   2.738  0.1889  0.2921 -0.1288
 9816W        W27340   0.838  12.099  14.658 -0.0846 -0.0512  0.1717
 9817W        W27341   9.855  13.682   3.785  0.3701  0.2045  0.1840
 9818W        W27342   1.554   5.586   4.830  0.1431  0.1165 -0.1998
 9819W        W27343  10.819  10.572  13.570 -0.1991 -0.1650  0.1996
 9820W        W27344  13.203   6.606   1.603 -0.3540 -0.1260 -0.0672
 9821W        W27345   6.909   9.643  16.091 -0.2779 -0.1026  0.3309
 9822W        W27346  14.242   9.052  14.370 -0.0475  0.0910  0.0202
 9823W        W27347  11.632   1.217   4.104 -0.2195 -0.1513  0.2271
 9824W        W27348   4.750   2.551  15.607 -0.2076 -0.1389  0.1201
 9825W        W27349   4.428  16.295   2.186 -0.0331 -0.0082  0.0729
 9826W        W27350   3.029  17.466  10.690 -0.2544  0.0148  0.1868
 9827W        W27351   4.822   8.689   3.215  0.0364 -0.1672  0.2910
 9828W        W27352   5.459  15.481   0.312  0.2170 -0.5138  0.0443
 9829W        W27353  17.894  10.732   3.380  0.1304 -0.2470 -0.0824
 9830W        W27354   6.242   2.560   2.152  0.4981  0.1752 -0.0251
 9831W        W27355  15.415  16.907   1.639  0.3082  0.0966 -0.1741
 9832W        W27356  13.477   5.106   2.076  0.1024  0.1940  0.1741
 9833W        W27357   7.474   4.296  13.173  0.2227  0.2901  0.1724
 9834W        W27358  11.543  16.211   4.497  0.0608  0.4358 -0.1599
 9835W        W27359   0.085  12.555   2.142  0.1856  0.0993 -0.0744
 9836W        W27360   6.193   2.883   4.838 -0.0906 -0.0841  0.2234
 9837W        W27361  16.209  13.400  15.935  0.1147 -0.0670  0.1715
 9838W        W27362   0.598  16.609  11.080  0.0795 -0.0020 -0.1390
 9839W        W27363   8.138   3.355  11.194 -0.0632  0.2854 -0.0497
 9840W        W27364   0.065   8.504  14.998 -0.1787 -0.2189 -0.2291
 9841W        W27365  17.871   5.373  15.017  0.3412 -0.1538 -0.1227
 9842W        W27366  13.692  13.001  14.129 -0.0839 -0.1678 -0.0183
 9843W        W27367   4.270   7.254  10.456 -0.1623  0.1435  0.0178
 9844W        W27368   9.028   4.850   3.321 -0.1922 -0.3196 -0.2039
 9845W        W27369  10.049  12.520   0.029 -0.0375  0.0868  0.3279
 9846W        W27370   2.085   5.024  11.672 -0.0120  0.2610  0.0126
 9847W        W27371   9.637  15.920   4.149  0.1550  0.2381 -0.1760
 9848W        W27372   9.907   0.064  11.981 -0.1593 -0.1719 -0.0353
 9849W        W27373   2.982   2.023  14.579  0.2313 -0.0870  0.1464
 9850W        W27374   9.371   5.894   4.069  0.2706  0.0894 -0.3397
 9851W        W27375   2.752   4.235  11.473  0.3457  0.1438  0.0140
 9852W        W27376   2.358  17.302   1.237 -0.1480  0.1353 -0.1268
 9853W        W27377   4.304  15.059   0.042  0.0064 -0.3058 -0.0449
 9854W        W27378   4.826   0.142   0.321  0.0129  0.1134 -0.0933
 9855W        W27379   3.806   2.098  13.311  0.4200  0.0474 -0.0344
 9856W        W27380   0.150  11.376  11.703 -0.1628 -0.3318  0.0981
 9857W        W27381   8.706   3.352  11.508 -0.2740  0.1852 -0.0937
 9858W        W27382   4.904   0.186  14.098  0.0988  0.0516 -0.0380
 9859W        W27383  11.351   7.831  15.322 -0.0779  0.0920 -0.1748
 9860W        W27384   1.602   8.945   2.059 -0.0056  0.0212  0.0861
 9861W        W27385   8.869  15.528   3.799 -0.0015  0.2111  0.0943
 9862W        W27386   3.744   5.058   3.703  0.1682  0.3836 -0.1008
 9863W        W27387  14.954   5.600  13.263  0.1023  0.1861 -0.1910
 9864W        W27388   2.361   4.883   0.227 -0.1958  0.0862  0.0633
 9865W        W27389   8.030   9.617  13.641 -0.1023 -0.1782 -0.4509
 9866W        W27390   5.871  14.779  15.182 -0.2886 -0.0294  0.1446
 9867W        W27391   5.880   5.250  14.974  0.1482  0.0177  0.0040
 9868W        W27392   7.895   5.506   0.416 -0.1298 -0.0602 -0.0496
 9869W        W27393   3.131  14.576  14.349  0.1977 -0.2170  0.0479
 9870W        W27394   0.828  12.653  15.852 -0.1410  0.2671  0.0531
 9871W        W27395   7.092   3.872   5.071 -0.1397 -0.0099 -0.1410
 9872W        W27396   3.609   8.951  11.410  0.2140  0.0336 -0.1013
 9873W        W27397   8.201  12.693  15.221  0.1223  0.0759 -0.0146
 9874W        W27398   2.605  16.120  14.422 -0.1249  0.1897  0.0406
 9875W        W27399   0.147   5.499   2.544 -0.0022  0.0513 -0.2069
 9876W        W27400  10.477   6.221  13.636 -0.1312 -0.0289  0.1073
 9877W        W27401   7.604   7.362  12.813 -0.0165 -0.0350 -0.0989
 9878W        W27402  10.336   8.171   1.707  0.2948  0.1802  0.1048
 9879W        W27403   7.730   0.690  14.192 -0.0981  0.1840 -0.4744
 9880W        W27404   7.456  10.462  15.776 -0.0483  0.2896 -0.1091
 9881W        W27405   6.427  14.233  13.809 -0.0926 -0.0306  0.0617
 9882W        W27406  15.148  12.233  15.512  0.1855  0.0306  0.2751
 9883W        W27407   8.422   5.872   2.391 -0.0470 -0.1801 -0.1593
 9884W        W27408   0.298   8.949  15.059 -0.1762 -0.1930 -0.2063
 9885W        W27409  12.774  11.096  11.782  0.0300  0.1234  0.3073
 9886W        W27410  13.005  13.040  12.117 -0.0455  0.0884  0.2647
 9887W        W27411  14.874  15.999   4.631  0.0228  0.2837 -0.0690
 9888W        W27412   0.016   5.096  14.091 -0.0158  0.0129 -0.0939
 9889W        W27413  14.713  14.806   2.695 -0.0533 -0.2745 -0.0350
 9890W        W27414   8.984  12.464  13.417  0.3345 -0.0825 -0.0209
 9891W        W27415   1.415  10.448  15.884 -0.3250  0.0375 -0.2574
 9892W        W27416  17.157   3.521   4.834  0.1603 -0.4798  0.2129
 9893W        W27417  15.707  10.644   3.610 -0.2573 -0.1251  0.3183
 9894W        W27418   5.909   2.802  14.765  0.2161 -0.1925 -0.2777
 9895W        W27419  17.203  14.944   4.402  0.2034 -0.1169  0.1232
 9896W        W27420   3.370   7.070  12.671  0.2651 -0.0817  0.1968
 9897W        W27421   3.184   5.250   0.479  0.0364 -0.1553 -0.4544
 9898W        W27422   1.883   3.627  11.476  0.0312  0.1130 -0.3311
 9899W        W27423  10.842   0.918   4.314  0.1785 -0.0624 -0.1700
 9900W        W27424   5.064   6.830  15.384 -0.1124  0.1557  0.2237
 9901W        W27425   4.418   6.737   2.198 -0.1363 -0.2565 -0.0091
 9902W        W27426  14.516   7.900  15.015  0.2254 -0.1157  0.1677
 9903W        W27427   8.223   1.645   1.348 -0.0782 -0.3561  0.0127
 9904W        W27428   4.150  14.162   6.291  0.1588 -0.1767  0.0843
 9905W        W27429   6.489   3.028   4.380 -0.1576 -0.0077 -0.1899
 9906W        W27430  15.070   1.162   2.185 -0.0357  0.3219  0.0415
 9907W        W27431   1.396   9.377   4.611 -0.2864 -0.0341 -0.1071
 9908W        W27432   4.157  15.858  12.134 -0.1997  0.3197 -0.3901
 9909W        W27433   1.128   3.252   4.496 -0.0981 -0.2925 -0.1277
 9910W        W27434  14.163  17.791  12.593  0.2912 -0.1673  0.1639
 9911W        W27435   2.620   4.709  16.055  0.0107 -0.3012 -0.2564
 9912W        W27436  13.747   9.798   0.099 -0.0080 -0.0089  0.3795
 9913W        W27437   1.379  10.530   2.960  0.0237  0.2178  0.0664
 9914W        W27438   7.323  15.348  14.272  0.0388 -0.2045 -0.0029
 9915W        W27439  10.063   5.627  11.105  0.0684 -0.0106 -0.0265
 9916W        W27440   8.883  14.115  12.889  0.1234  0.3819  0.2103
 9917W        W27441  13.157   0.089   1.252  0.0832  0.2470  0.1955
 9918W        W27442  16.068  17.345  11.547 -0.0295  0.0958  0.1654
 9919W        W27443  13.839  10.564   0.141  0.0665 -0.1014  0.0353
 9920W        W27444   3.940  13.684   0.027 -0.2539  0.0339 -0.2487
 9921W        W27445  12.279   1.679   0.665 -0.0558 -0.1058 -0.0197
 9922W        W27446   2.421   8.833  14.773  0.1824  0.1378 -0.0102
 9923W        W27447   1.284  15.211   5.445  0.1034 -0.2443 -0.0903
 9924W        W27448  11.987   2.026   1.161  0.0472  0.1074 -0.2130
 9925W        W27449  16.061  14.711   2.933 -0.0916  0.0556 -0.3267
 9926W        W27450  10.469   4.326  11.106 -0.1821  0.2513 -0.1302
 9927W        W27451  17.123   9.035  15.964 -0.1028 -0.1762 -0.0518
 9928W        W27452  15.494  17.945   2.383  0.2127 -0.2015 -0.0178
 9929W        W27453   6.856  11.465  15.181  0.2137  0.2494  0.2963
 9930W        W27454  10.497  14.141  13.465 -0.3539  0.2018  0.1385
 9931W        W27455   2.319  14.304  14.925 -0.0863  0.3114  0.2085
 9932W        W27456   4.964  10.739  12.917 -0.1510  0.2425 -0.0665
 9933W        W27457   9.268   3.891  15.725 -0.0216 -0.0079 -0.2097
 9934W        W27458  14.459   4.239  10.328 -0.0357  0.0428 -0.1157
 9935W        W27459   9.512   3.243   1.678 -0.0392  0.3234 -0.0971
 9936W        W27460  10.427  12.737  15.400 -0.0997  0.1861  0.1233
 9937W        W27461   4.937   3.069  15.587  0.1236 -0.0648 -0.0336
 9938W        W27462  16.658   7.837  12.951  0.0880 -0.0830  0.1032
 9939W        W27463   3.299  12.460  13.884 -0.1083  0.2600  0.2382
 9940W        W27464   9.709  15.931  14.889  0.1338  0.0187 -0.0820
 9941W        W27465  16.019   8.918   2.819 -0.2551  0.1704 -0.0497
 9942W        W27466   7.583  10.433  11.196  0.2841 -0.0392 -0.0271
 9943W        W27467   0.447  17.517   2.457 -0.1928 -0.4090 -0.1804
 9944W        W27468  10.458   8.263  10.124  0.0351 -0.1830 -0.1686
 9945W        W27469  12.380   3.247  13.850 -0.1888  0.0898 -0.0098
 9946W        W27470  12.011  14.853   3.776  0.1729 -0.0611  0.0428
 9947W        W27471  11.814   4.732   0.139 -0.3067  0.2163 -0.0208
 9948W        W27472   9.593  11.352  13.444  0.0837  0.0795 -0.0088
 9949W        W27473   2.255   3.258  15.430 -0.0742  0.1668 -0.1497
 9950W        W27474  10.171   5.565   3.677  0.1572 -0.0759 -0.0232
 9951W        W27475  16.470  11.296  12.780  0.0094  0.0338 -0.2428
 9952W        W27476   5.942  11.194   0.306  0.0997 -0.0784  0.2087
 9953W        W27477   5.264   8.639  14.509 -0.2691  0.0907 -0.1182
 9954W        W27478   2.654  13.582   0.560  0.1378 -0.3919  0.2470
 9955W        W27479  12.362   9.794   1.479  0.0768 -0.1947 -0.2589
 9956W        W27480   2.896   9.694   3.543  0.0015  0.1834  0.0364
 9957W        W27481  14.394   7.023   0.970 -0.0367 -0.0783 -0.4309
 9958W        W27482  17.134  13.494   2.137 -0.0642 -0.1226  0.1357
 9959W        W27483  10.543   6.984   4.743  0.1598  0.1641  0.1671
 9960W        W27484   6.634   4.613   1.602  0.0522  0.0017  0.0219
 9961W        W27485   5.639   3.897   1.194  0.0873 -0.3471 -0.1584
 9962W        W27486  13.286   7.661  15.587 -0.3396 -0.0843  0.2139
 9963W        W27487   6.321   3.927  11.766  0.0633  0.0623  0.2481
 9964W        W27488   9.614   2.807   2.085 -0.2022  0.4000  0.4568
 9965W        W27489  17.815  16.247  13.064  0.0060  0.2366  0.0392
 9966W        W27490   9.136   8.148  14.722  0.0312 -0.0299 -0.1298
 9967W        W27491   6.074  14.656   2.494 -0.1574  0.1019  0.0795
 9968W        W27492   9.606   1.897  15.947 -0.1164  0.0078  0.2108
 9969W        W27493  14.485   2.793   0.493  0.2212 -0.0400 -0.4712
 9970W        W27494  14.191  17.809   3.994 -0.3106 -0.1076 -0.0442
 9971W        W27495  12.162  13.877   1.040  0.1577  0.1040  0.0303
 9972W        W27496   2.109   7.550   3.526 -0.3099  0.0401 -0.0366
 9973W        W27497  14.427   2.595  15.974  0.2901  0.0874  0.1146
 9974W        W27498   3.927  11.273   1.993 -0.1319  0.1890  0.5735
 9975W        W27499   0.883  11.691  15.985 -0.3093  0.0789 -0.0944
 9976W        W27500   2.129   9.081  12.717 -0.0689 -0.1003 -0.1439
 9977W        W27501   3.446  14.599   3.804 -0.1120 -0.0544 -0.2520
 9978W        W27502  10.244   7.595   0.369  0.0209 -0.1550 -0.2651
 9979W        W27503  11.752   1.914   0.654 -0.0966 -0.3316 -0.0332
 9980W        W27504   5.745  17.530  15.134  0.0295  0.1995  0.0326
 9981W        W27505  12.303   2.748   4.069  0.0746 -0.0262 -0.2506
 9982W        W27506  12.812  10.467   5.393  0.0292 -0.0794  0.1522
 9983W        W27507   1.572   6.070   0.770 -0.1379 -0.0929 -0.1540
 9984W        W27508   2.247   3.731  14.107 -0.0137  0.0213 -0.0563
 9985W        W27509  17.019  17.342  15.249  0.0899 -0.4202  0.1683
 9986W        W27510  14.912   3.043  15.365  0.0371  0.0734  0.0653
 9987W        W27511   5.912  15.005   5.646 -0.0671 -0.0791  0.0144
 9988W        W27512  12.847  10.471   1.038  0.0476 -0.3135 -0.0464
 9989W        W27513  12.836   6.989  12.659 -0.1889 -0.1069  0.3331
 9990W        W27514  13.230   9.624  13.975 -0.1884 -0.2307 -0.1830
 9991W        W27515  13.702  11.534  11.352 -0.1304 -0.2090  0.0393
 9992W        W27516   9.184   1.972  13.518  0.1601 -0.2030 -0.1185
 9993W        W27517  14.968   4.710   0.434 -0.0202 -0.0514  0.0672
 9994W        W27518   0.684   6.911  13.831 -0.0269 -0.1521 -0.2157
 9995W        W27519   6.232  11.193   1.276 -0.0924  0.3292 -0.3041
 9996W        W27520   2.003   6.041  11.432  0.1941  0.0058 -0.0993
 9997W        W27521   2.450  17.303  11.639  0.1472  0.2116 -0.0657
 9998W        W27522   3.245  13.683  15.075 -0.0813 -0.2162  0.1568
 9999W        W27523  12.351   0.650  13.236  0.1251 -0.2168 -0.1839
10000W        W27524   8.426  11.418   2.114 -0.1437 -0.0487  0.0989
10001W        W27525  12.163   3.720  15.210  0.0857 -0.0027 -0.0897
10002W        W27526  14.343  13.124   4.524 -0.1002  0.2176  0.2730
10003W        W27527  13.521   5.420  10.261  0.0778 -0.0503  0.1680
10004W        W27528   5.913  12.674   0.014 -0.0612 -0.0452 -0.2097
10005W        W27529  14.949  11.120  11.602  0.0382  0.0331 -0.1169
10006W        W27530  15.566   8.474  14.403  0.0158 -0.3624  0.2048
10007W        W27531   3.609  10.269   4.829  0.0336 -0.0528  0.1630
10008W        W27532  12.684  11.057  10.184  0.0717 -0.2541  0.0466
10009W        W27533   8.920  14.693   1.362 -0.3280  0.1010  0.1607
10010W        W27534  15.894   3.621  13.460  0.0057 -0.0242 -0.3422
10011W        W27535   6.325   1.884  11.935  0.1157 -0.1102 -0.1484
10012W        W27536  11.249  17.220   0.018 -0.0170  0.1753  0.1911
10013W        W27537   3.521  12.649   1.416 -0.2518  0.2776  0.0520
10014W        W27538  15.676   3.228   0.829 -0.1582  0.2589  0.3848
10015W        W27539  16.092  13.001   4.468 -0.4228  0.0747 -0.4200
10016W        W27540  15.524   0.386   2.053 -0.0732 -0.1659 -0.0797
10017W        W27541   2.968   8.447  15.965 -0.0835  0.0166 -0.2372
10018W        W27542  12.464   8.937   4.751 -0.1479  0.2141  0.0331
10019W        W27543   2.386   0.704   2.098  0.0861  0.1249 -0.1788
10020W        W27544   2.119  13.881   0.400  0.1573  0.0220  0.3186
10021W        W27545  11.266   7.177  14.009 -0.2252  0.1095 -0.2662
10022W        W27546   8.647   6.689  15.072  0.1681  0.0948 -0.2599
10023W        W27547   1.795   3.581   2.090 -0.0204 -0.2143  0.1817
10024W        W27548  16.123   4.940  12.740 -0.0098 -0.1767  0.2596
10025W        W27549  11.519  16.626  13.490 -0.0592  0.0540  0.0604
10026W        W27550   1.859   4.822   3.830 -0.0569 -0.0005  0.0329
10027W        W27551   1.947   0.824   3.728 -0.0455 -0.2951  0.0482
10028W        W27552   7.924  11.403   1.036  0.5206 -0.0336  0.1410
10029W        W27553   0.084   7.800  14.189 -0.2498  0.0160  0.1648
10030W        W27554   7.012   4.148   4.515 -0.2110 -0.0629 -0.1981
10031W        W27555  13.829   4.759  16.178 -0.3005 -0.0838 -0.1449
10032W        W27556  14.017   4.385  15.525  0.0458 -0.1999  0.3156
10033W        W27557   3.979  10.316  11.378  0.1468 -0.2577  0.1374
10034W        W27558  12.063   8.950  13.905 -0.2717 -0.0995 -0.1047
10035W        W27559   6.973   6.800  15.448 -0.2369 -0.0179  0.1805
10036W        W27560  12.700  11.917   1.279 -0.0582 -0.3766  0.7157
10037W        W27561  16.350   8.630   4.610  0.1098 -0.1715  0.2547
10038W        W27562  12.554   0.895  12.265  0.2377 -0.0708  0.0638
10039W        W27563   1.624  10.957  15.051 -0.0558  0.0263 -0.2444
10040W        W27564  13.923  14.725   5.809 -0.0323 -0.3351  0.1926
10041W        W27565   5.138   7.725  14.401 -0.1249  0.0169  0.1603
10042W        W27566  11.706   6.708  14.629  0.2277  0.1154  0.2213
10043W        W27567  14.572   8.603   1.394 -0.1965 -0.1526  0.0792
10044W        W27568  14.712  13.122   2.241  0.0350 -0.1301 -0.0190
10045W        W27569   2.464   0.081  12.327 -0.2733  0.1681  0.1031
10046W        W27570   8.175   2.138   2.292 -0.1923 -0.1395  0.0482
10047W        W27571  11.584   0.497   0.072 -0.0522 -0.3104 -0.0281
10048W        W27572  10.689  13.743  13.179  0.0723 -0.0686 -0.2988
10049W        W27573   1.203  15.971  14.796  0.0950 -0.0235 -0.0733
10050W        W27574   1.256   0.632   5.910  0.2453 -0.0087 -0.1786
10051W        W27575   0.276  13.907   1.982 -0.1903 -0.1527 -0.0982
10052W        W27576  12.296   5.433   1.359  0.1885  0.0514  0.0177
10053W        W27577  12.141  14.453   3.515 -0.2241 -0.4236  0.1941
10054W        W27578   0.917  12.892   2.016  0.2619  0.1377 -0.3174
10055W        W27579  16.115   3.653  12.536  0.0641  0.0292  0.2135
10056W        W27580   4.795  16.284   3.423  0.3193 -0.2012 -0.0652
10057W        W27581  16.191   0.861   4.024 -0.1950 -0.0094 -0.1122
10058W        W27582  15.392  11.764  11.373 -0.1921  0.3513 -0.1155
10059W        W27583   2.641  10.256   2.538  0.1285 -0.0114 -0.0596
10060W        W27584  10.736   6.026  11.225  0.0263 -0.2680  0.0819
10061W        W27585  13.160  10.389   2.346  0.0577 -0.0896  0.2694
10062W        W27586  13.568  11.897  15.927 -0.1121 -0.3274  0.1052
10063W        W27587  17.703   8.855  14.801  0.1260  0.1343 -0.3217
10064W        W27588  12.063   2.369  13.623 -0.0973 -0.1515  0.1555
10065W        W27589   7.977  11.024  14.160  0.1044  0.0074 -0.0809
10066W        W27590   4.867   7.088  12.762 -0.4327 -0.1327  0.0035
10067W        W27591  17.539   4.024  12.609  0.0488  0.1250  0.3658
10068W        W27592   8.069   0.265   4.460 -0.2312 -0.2693  0.1534
10069W        W27593   4.232  15.821  13.768  0.1199  0.1038  0.0470
10070W        W27594  16.867   9.857   4.656 -0.0303 -0.0996 -0.0768
10071W        W27595   4.585   3.482  11.419  0.0527  0.1275 -0.2321
10072W        W27596  12.224  10.454   0.031 -0.0413 -0.1040 -0.0022
10073W        W27597   7.120  17.368   2.519  0.0532 -0.1294  0.0080
10074W        W27598   7.628  12.282  11.963  0.2940  0.0551 -0.0015
10075W        W27599   0.996  13.948  11.194 -0.3150  0.1422  0.3966
10076W        W27600  10.323   1.261   3.590  0.1374  0.0147  0.2523
10077W        W27601   4.395   5.064  13.887  0.0911  0.1941  0.0871
10078W        W27602   4.196  13.835   4.703 -0.0121 -0.1339 -0.3145
10079W        W27603   9.948   9.132  11.369  0.0611 -0.2551 -0.0986
10080W        W27604   4.442  13.098   3.658 -0.0133  0.0732 -0.2866
10081W        W27605   2.263   2.397  15.276 -0.4102  0.0579  0.1627
10082W        W27606   1.612   0.827   2.292  0.2874  0.1477 -0.0940
10083W        W27607  16.049  17.502   0.581  0.0376 -0.0424  0.0560
10084W        W27608  15.307  16.658  14.895 -0.0323 -0.0221 -0.1073
10085W        W27609   1.338   3.070   1.066  0.1252  0.4847 -0.2074
10086W        W27610   5.983   2.607   5.404  0.0766  0.1390  0.0340
10087W        W27611  14.746   7.340   0.768 -0.0799  0.1368  0.0349
10088W        W27612  17.335  14.564   2.860 -0.0778 -0.0729  0.3559
10089W        W27613   6.586   8.486  14.930  0.1187  0.1386  0.0284
10090W        W27614  17.289  15.864  14.231  0.0790 -0.2370 -0.2298
10091W        W27615  15.751  10.180   3.417  0.1063  0.0759  0.1800
10092W        W27616   4.789  16.504   1.378 -0.2913 -0.0731 -0.1643
10093W        W27617   9.237  13.483   2.047 -0.0386  0.1384 -0.1556
10094W        W27618   6.384  16.306   0.959  0.1696 -0.3019 -0.0288
10095W        W27619  14.409  15.891   1.618  0.1385 -0.2144  0.1770
10096W        W27620   3.170   8.518   0.505 -0.0705  0.0415  0.1266
10097W        W27621   3.118   6.464   1.590 -0.1040  0.2465 -0.1053
10098W        W27622   4.959  13.515  12.936 -0.2510 -0.0130  0.1384
10099W        W27623   1.862  15.337   3.898  0.2028  0.2023  0.0858
10100W        W27624   7.624   9.491   3.299  0.1325  0.0722 -0.0287
10101W        W27625   6.724  13.408  13.245  0.2205 -0.5218 -0.1189
10102W        W27626  12.578   2.325  15.848  0.2423 -0.2498  0.3500
10103W        W27627   0.525  11.349   0.095 -0.0819  0.0203  0.2885
10104W        W27628   4.168   6.480   1.827 -0.1135 -0.1069 -0.0651
10105W        W27629  17.392   1.081  15.150  0.2862  0.0065 -0.0424
10106W        W27630   0.773  16.815   3.480  0.0350  0.0769  0.1496
10107W        W27631   1.629  12.701   5.347  0.1636 -0.0515  0.2598
10108W        W27632  16.648  10.084   3.735 -0.0295 -0.2184  0.0245
10109W        W27633  16.934   2.176   2.590  0.0000 -0.1068  0.0948
10110W        W27634  15.208  17.487  15.293 -0.1755 -0.3161  0.2219
10111W        W27635  14.830   7.097  12.910 -0.0009 -0.0547  0.3445
10112W        W27636   4.756   3.370  13.813 -0.2099  0.1167 -0.0192
10113W        W27637   2.132  14.021  11.966  0.0512  0.1518  0.2305
10114W        W27638   1.579   4.331   2.359 -0.0187  0.2784 -0.2154
10115W        W27639   6.056  11.461  11.898 -0.0952  0.1891  0.1431
10116W        W27640   4.017   3.522   1.929  0.2574  0.1110  0.2020
10117W        W27641  16.578  16.546   2.599  0.1077  0.0171 -0.0443
10118W        W27642   3.378  16.979  14.018  0.2392 -0.2142  0.0431
10119W        W27643   3.822  16.953  12.474  0.2058 -0.1068 -0.3024
10120W        W27644  12.120  17.068   0.886 -0.2577  0.2996 -0.1672
10121W        W27645  15.100   4.902  12.671 -0.0098 -0.1627  0.2120
10122W        W27646   4.148  17.440  16.073  0.0246  0.2418 -0.1472
10123W        W27647  16.912   8.905   5.939 -0.0012 -0.0442 -0.0551
10124W        W27648  12.498  15.121   4.261 -0.0766 -0.1730 -0.2591
10125W        W27649   3.247   7.594  12.669 -0.3683  0.1302 -0.2454
10126W        W27650  12.955   9.181  16.218  0.0851 -0.0867 -0.0438
10127W        W27651   6.226   0.596  12.686 -0.0456 -0.1812  0.0827
10128W        W27652  16.523   2.547  12.136 -0.1523  0.1171 -0.1827
10129W        W27653   4.967  16.624   5.415 -0.0797 -0.0330 -0.0617
10130W        W27654  14.444   3.593  15.077 -0.0481 -0.1284 -0.0479
10131W        W27655   0.007  10.152  13.053  0.1928 -0.0043  0.1907
10132W        W27656   3.441  11.386   3.287 -0.1104  0.3388 -0.0997
10133W        W27657   8.124   2.572   2.491 -0.1000 -0.1113 -0.2060
10134W        W27658   2.580  10.375   3.009  0.2573  0.2276  0.3663
10135W        W27659  16.958  12.793   0.717 -0.0433 -0.4370  0.0955
10136W        W27660   7.348   0.069   0.781  0.3674 -0.0912 -0.1811
10137W        W27661   1.222  17.635   2.164 -0.0344  0.0654 -0.4189
10138W        W27662  14.995   8.396   2.122 -0.2401  0.1720 -0.2535
10139W        W27663   2.223   1.917  12.300 -0.0111  0.0975 -0.0055
10140W        W27664  14.453   8.792   2.940  0.1588  0.3664 -0.0141
10141W        W27665  12.522  16.923   0.678 -0.0973 -0.0091 -0.0687
10142W        W27666   1.891   1.870   5.953  0.3222 -0.1001 -0.0088
10143W        W27667   6.358   4.230   1.273  0.3225  0.0927 -0.0502
10144W        W27668   5.142   8.519   1.037  0.0010  0.1791  0.0633
10145W        W27669   7.200  17.105   2.942 -0.1046 -0.3000 -0.3639
10146W        W27670   1.922  16.243   3.985  0.1890 -0.2539  0.1172
10147W        W27671   3.802   8.338  12.229  0.1069 -0.0074  0.3693
10148W        W27672  12.863  16.713  11.974  0.3213  0.1396  0.0515
10149W        W27673   8.069  15.495  11.554  0.0135  0.1749  0.0916
10150W        W27674  17.261   6.468   3.156 -0.2096 -0.1765  0.1085
10151W        W27675   3.305  10.864   2.105 -0.2247 -0.0342  0.0132
10152W        W27676  15.454   2.015   1.745  0.1237 -0.0935 -0.1668
10153W        W27677  13.392  11.404   3.352 -0.2251 -0.0691 -0.0815
10154W        W27678   6.238   9.617   3.104  0.1294 -0.0549 -0.3693
10155W        W27679   0.118  13.443   1.783  0.3650  0.0878 -0.1984
10156W        W27680   2.467  17.385  15.958  0.0376  0.3359 -0.1664
10157W        W27681  17.579   3.740   1.803  0.0704  0.0443 -0.0857
10158W        W27682   9.992  14.653   2.775  0.3802  0.0104 -0.0669
10159W        W27683  11.691   4.482  11.499 -0.0528  0.3077  0.0119
10160W        W27684   9.253   3.684   1.808 -0.0582  0.0105  0.2489
10161W        W27685   0.600  15.150   4.519  0.0232  0.0695  0.1112
10162W        W27686  11.118  10.861  14.460 -0.0775 -0.2138 -0.1985
10163W        W27687  12.209   6.768   3.743  0.0148  0.0383  0.3032
10164W        W27688   5.697   6.113   1.368 -0.0404  0.0435 -0.1409
10165W        W27689   4.317  10.324   5.308  0.1158 -0.3369 -0.0924
10166W        W27690  10.008   7.072  10.525  0.0172 -0.0128  0.0028
10167W        W27691  15.819  12.823   2.177  0.1144 -0.0681  0.1215
10168W        W27692   3.878  15.067   3.292  0.0104 -0.1297 -0.1361
10169W        W27693   3.524  17.415  16.148  0.3603  0.1002 -0.3187
10170W        W27694  11.327   4.786   0.032  0.0259  0.1644  0.0199
10171W        W27695  17.879   1.154   3.902  0.1056  0.2450  0.3185
10172W        W27696  17.253  12.430  16.191 -0.2032  0.1065 -0.0677
10173W        W27697  17.724   5.555  14.510  0.2685  0.2866  0.1811
10174W        W27698   1.784  10.604   5.045 -0.0702 -0.0773  0.2580
10175W        W27699   9.399   5.907  11.859 -0.4218 -0.0645 -0.0301
10176W        W27700   3.191   1.008  11.830 -0.2671  0.1062 -0.0686
10177W        W27701  10.004  16.268   4.781 -0.0883  0.0484 -0.2211
10178W        W27702  15.936  14.257  13.687 -0.1316 -0.1683 -0.1614
10179W        W27703  16.657  16.227   4.897  0.2968 -0.3116 -0.3729
10180W        W27704   1.736   8.836  13.494 -0.0341  0.1436  0.1106
10181W        W27705   1.081   8.544  12.088 -0.1558 -0.0496 -0.0061
10182W        W27706   7.770   6.659   3.555 -0.1550  0.0918  0.0850
10183W        W27707  17.390  17.915   4.468 -0.4673  0.0126 -0.2145
10184W        W27708  14.494  12.659   3.329  0.0619  0.0991  0.2011
10185W        W27709   8.070   6.571   4.238 -0.2813  0.0756 -0.1183
10186W        W27710   6.616   1.153  15.241 -0.1355  0.0266 -0.0835
10187W        W27711  12.159   6.291   3.116  0.2052  0.0362 -0.1631
10188W        W27712   2.043  10.185   2.483 -0.0356 -0.2664  0.0806
10189W        W27713  11.844   0.104   0.976  0.2014 -0.1674  0.0208
10190W        W27714   3.814  13.452   1.916 -0.0585  0.0926  0.1263
10191W        W27715  15.116   5.536   1.481  0.1101 -0.0750  0.0272
10192W        W27716   1.197   4.590   2.110  0.1823 -0.0904 -0.1052
10193W        W27717   8.854   7.871   1.454 -0.4581  0.0272 -0.2226
10194W        W27718  12.968   2.678  14.106 -0.4894  0.0109 -0.1880
10195W        W27719  10.274  13.873   1.562  0.1008  0.2718 -0.2093
10196W        W27720  13.412  10.558   4.468  0.1157  0.0532 -0.1220
10197W        W27721  13.322   4.618   1.842  0.1447  0.1081  0.0118
10198W        W27722  10.149  15.448   0.323 -0.0256 -0.1510 -0.1755
10199W        W27723  13.936   0.844   4.915  0.1430 -0.1861  0.1895
10200W        W27724  16.673   0.803  13.792 -0.2284 -0.2222  0.3533
10201W        W27725  13.276   3.302   1.356 -0.1575 -0.1849  0.1030
10202W        W27726  16.725  11.219  13.846  0.0896 -0.0939 -0.0877
10203W        W27727   1.058   0.731  14.199  0.3147  0.4633 -0.2457
10204W        W27728   4.112   6.454  10.932  0.0530  0.2522  0.2057
10205W        W27729   2.652  13.479   4.974  0.1282 -0.0509  0.1925
10206W        W27730  16.962   5.766   2.750 -0.1647  0.0810 -0.0411
10207W        W27731  10.945   8.740  15.533 -0.4710  0.0364 -0.2047
10208W        W27732  14.288   3.629   4.173  0.2063 -0.0948 -0.0674
10209W        W27733   5.216  17.117   3.402 -0.3266  0.1225 -0.0424
10210W        W27734   8.175   8.826   3.770  0.2561 -0.1023  0.0146
10211W        W27735  11.713   4.192  13.221 -0.3175  0.2975 -0.2781
10212W        W27736  16.144   3.001   3.928  0.3263  0.0297 -0.1950
10213W        W27737   8.450  12.346  16.174  0.1319  0.0105  0.0516
10214W        W27738   5.311   2.848  14.206 -0.0464 -0.3330 -0.0997
10215W        W27739   7.690   5.796  15.545 -0.0056  0.2231  0.4164
10216W        W27740  10.860  11.853   1.408 -0.0886  0.1106 -0.1073
10217W        W27741   6.120   8.234  13.034  0.0078 -0.3028  0.2225
10218W        W27742   2.610   3.983  10.996  0.0369 -0.0605 -0.1052
10219W        W27743   5.070   3.934  14.655  0.2183 -0.1655 -0.1383
10220W        W27744  16.568   7.155   3.010  0.3040  0.1055 -0.1886
10221W        W27745  11.295  11.877  13.285  0.2541  0.0228 -0.0648
10222W        W27746  17.917  16.398   1.801  0.1879 -0.3555 -0.2282
10223W        W27747  10.532   4.610  14.518 -0.1439 -0.2410  0.2137
10224W        W27748  14.411   5.753   1.042 -0.1709  0.0320  0.4351
10225W        W27749   4.389   1.369  11.338  0.2072 -0.1032 -0.0295
10226W        W27750   7.516  13.507  12.846 -0.1161  0.0946 -0.1399
10227W        W27751  16.870  17.132  12.430  0.1485  0.1600  0.0550
10228W        W27752   3.689   0.148  11.474  0.0092 -0.0233  0.1497
10229W        W27753  13.473  17.729   3.633  0.0808 -0.2110 -0.2897
10230W        W27754   0.070   2.143  15.414 -0.0325 -0.1004  0.2264
10231W        W27755  11.075  14.319   5.616  0.0445 -0.1392  0.1278
10232W        W27756  17.256   1.187   0.211 -0.1247 -0.3283 -0.0999
10233W        W27757   0.136  13.050  15.025  0.0822  0.2864  0.0999
10234W        W27758  15.116   4.072  15.970  0.0523 -0.1540 -0.0123
10235W        W27759   1.059   6.129   4.646 -0.5345  0.1182 -0.5165
10236W        W27760  15.836   0.031   3.237  0.0471  0.2177  0.1999
10237W        W27761  17.875   9.218  12.715  0.0227  0.0871 -0.1207
10238W        W27762  13.486   3.544   1.825 -0.0394  0.1549  0.2139
10239W        W27763  10.016  17.962   2.258 -0.3690 -0.0410  0.2730
10240W        W27764   0.669  16.618   4.637  0.1083  0.1133 -0.2212
10241W        W27765   8.056   3.983  15.964 -0.0899  0.1001  0.1283
10242W        W27766   1.741  16.076   5.475 -0.1219 -0.2880 -0.0377
10243W        W27767   1.710   4.497  13.767  0.0926  0.2076  0.4194
10244W        W27768   6.264   9.748   2.582 -0.2500 -0.0717  0.1486
10245W        W27769   2.896   8.129   0.640 -0.0684 -0.1467  0.0273
10246W        W27770  12.614   6.060   3.095  0.0653 -0.0929 -0.1840
10247W        W27771   1.954   4.624   0.664 -0.1788  0.1078 -0.1431
10248W        W27772  16.587  14.678  13.538 -0.1101  0.0698  0.2564
10249W        W27773  11.014  11.275   4.974 -0.0177 -0.1175  0.1808
10250W        W27774  14.343  14.510   2.970 -0.1732 -0.0437 -0.1921
10251W        W27775  13.252   8.658   4.965  0.0607  0.0141 -0.0306
10252W        W27776  15.677  16.104   3.224  0.1302  0.3155 -0.0941
10253W        W27777   6.750   9.481  15.099 -0.0184 -0.0474  0.3349
10254W        W27778  16.883   5.421   3.275 -0.1382  0.0228 -0.1359
10255W        W27779   6.080  17.206   2.085  0.1573  0.1721 -0.0375
10256W        W27780   3.641  17.941   0.623 -0.0710 -0.1730  0.4863
10257W        W27781  17.343  16.853  11.548  0.1189  0.0535  0.0157
10258W        W27782   2.205  13.899  14.125 -0.1370  0.1378  0.1480
10259W        W27783   6.763  13.784   0.564 -0.2281 -0.2983  0.2552
10260W        W27784  12.342  17.903  15.005 -0.2797 -0.0990  0.1060
10261W        W27785   7.050   4.299   2.128 -0.0123 -0.1455  0.0829
10262W        W27786  16.540   6.385  15.016  0.0697  0.0719  0.0873
10263W        W27787   9.727  11.974  12.427  0.0232  0.1491  0.2578
10264W        W27788   1.827  11.411   2.608 -0.0133  0.0268  0.1066
10265W        W27789  12.145  15.952  10.474 -0.0953  0.1248  0.0815
10266W        W27790  16.976   7.866   2.423  0.1020  0.2636 -0.0977
10267W        W27791  13.478  13.840  13.183 -0.0818  0.2407 -0.2774
10268W        W27792   3.363   1.107   2.973  0.0064 -0.2564  0.0831
10269W        W27793   5.023  17.688   4.097  0.3164 -0.0607  0.1514
10270W        W27794  12.511  13.646   1.457 -0.0149 -0.0185  0.3676
10271W        W27795  13.758  17.560  15.757  0.2915  0.2233  0.0561
10272W        W27796   5.787  17.880   3.652  0.0785  0.1753  0.2715
10273W        W27797   9.084   2.589  10.469  0.0479 -0.0479  0.0639
10274W        W27798  12.244   6.862  13.430 -0.0920  0.0113  0.4244
10275W        W27799  15.265   6.926  11.812 -0.3622  0.1025 -0.0844
10276W        W27800   9.052   1.035   0.211  0.0696 -0.3461 -0.2122
10277W        W27801   6.078   4.061  15.456  0.4591 -0.1934 -0.0160
10278W        W27802   9.041  13.315   1.361 -0.0553  0.0552  0.2414
10279W        W27803  15.194   8.706  16.239 -0.2519 -0.1114  0.0033
10280W        W27804   4.512  17.257  11.862  0.0014  0.3860  0.2453
10281W        W27805  16.469   1.535  11.706 -0.0586  0.0275  0.0677
10282W        W27806  12.459   4.938  11.439  0.0697  0.1814 -0.2937
10283W        W27807   8.804  10.907  12.442 -0.0099  0.0446 -0.1946
10284W        W27808  15.345  10.769  11.675  0.2048  0.0466  0.0906
10285W        W27809   1.572  17.290   5.996 -0.0260  0.1505  0.0664
10286W        W27810  17.892  13.373   4.731  0.0078 -0.3530  0.0117
10287W        W27811   0.863  17.087  10.223 -0.0765  0.0245  0.1457
10288W        W27812   7.474  13.762   5.141 -0.0117 -0.2316  0.1070
10289W        W27813   8.320   4.996  15.512  0.0602 -0.0774  0.0300
10290W        W27814  12.832   6.425   0.917 -0.0548 -0.1658 -0.2169
10291W        W27815   5.638   3.057  12.582  0.2351  0.2277 -0.0432
10292W        W27816   8.945  10.861  13.793 -0.2149 -0.1046 -0.1286
10293W        W27817   9.891   4.720   3.009  0.0502  0.0264  0.2299
10294W        W27818   2.481   4.319   3.111  0.0376  0.0122 -0.0268
10295W        W27819  16.568   1.168   1.781 -0.2096 -0.0217 -0.1710
10296W        W27820  12.519   8.088  12.925  0.0427  0.0794 -0.2316
10297W        W27821   3.397   4.127   2.558  0.0562 -0.1535 -0.1428
10298W        W27822  14.416  15.406   5.490 -0.0089 -0.1824 -0.2617
10299W        W27823  17.101   4.454   3.451  0.0972  0.0175  0.0238
10300W        W27824   4.392   2.363   3.569  0.1151  0.0365  0.2801
10301W        W27825   8.344  13.251  12.219  0.1101  0.2001 -0.2802
10302W        W27826   5.809   1.162   5.393 -0.1366  0.1962 -0.0455
10303W        W27827   2.097  12.585   1.343 -0.0415 -0.0945 -0.0934
10304W        W27828  17.518   1.988   4.864  0.2005 -0.0180 -0.4039
10305W        W27829   5.488   9.385  12.890 -0.0751 -0.1134 -0.0694
10306W        W27830   6.294   1.216  16.034 -0.2897  0.5506  0.0092
10307W        W27831   7.310  10.170  12.506  0.0108  0.0043 -0.0584
10308W        W27832   0.358   5.566  14.878 -0.0277 -0.0662  0.0048
10309W        W27833  17.167   4.254  12.938 -0.0119 -0.2989  0.2609
10310W        W27834   4.633   0.334  15.891 -0.0963  0.0025  0.2945
10311W        W27835   7.221  11.744  13.854 -0.0189  0.0062 -0.0156
10312W        W27836   8.888  11.129  14.291 -0.4451 -0.0108 -0.0210
10313W        W27837   1.519   7.254  10.404  0.3687  0.0963  0.1675
10314W        W27838  16.944   5.499   5.532  0.3761 -0.3984  0.0286
10315W        W27839   7.148  12.951   4.069  0.0228 -0.3860  0.2551
10316W        W27840  10.764  14.776   4.942 -0.0994 -0.2425  0.3460
10317W        W27841   3.291   5.331  15.533  0.2906  0.0221 -0.2333
10318W        W27842  11.114  16.795   0.265  0.0644 -0.0421 -0.2074
10319W        W27843  15.881  11.090   2.995  0.0675 -0.0912 -0.0150
10320W        W27844   4.348  11.999   3.964  0.2619 -0.0253 -0.1468
10321W        W27845  15.632   4.383   2.268 -0.1107  0.4330  0.0457
10322W        W27846  10.987   2.598  14.375  0.1113  0.0236 -0.0282
10323W        W27847   2.478   8.900  15.350  0.3503  0.2428 -0.3745
10324W        W27848   8.126  12.484   2.100  0.1546 -0.2037  0.1968
10325W        W27849  13.066  12.128  12.316 -0.0832 -0.0682 -0.1330
10326W        W27850   4.862   2.263   0.181  0.0146 -0.3086  0.0182
10327W        W27851   7.496   5.806   2.668  0.1291 -0.0189 -0.1085
10328W        W27852  10.826   6.501  12.655  0.0615 -0.0512  0.1162
10329W        W27853   8.498   2.508   0.125  0.1329 -0.3275  0.0922
10330W        W27854  14.298   8.168   3.515  0.1216  0.0163 -0.0210
10331W        W27855   2.530   9.988  12.558 -0.1053 -0.3311  0.1214
10332W        W27856  17.046  12.539   3.955 -0.0736 -0.1469  0.1636
10333W        W27857   7.716   3.420  14.360  0.2831 -0.1928  0.0668
10334W        W27858  11.410   1.236  12.245 -0.1724  0.0835  0.2021
10335W        W27859   7.660   1.666  15.402  0.3877  0.0872  0.2552
10336W        W27860  11.977  16.149  15.912  0.2368 -0.0127 -0.0608
10337W        W27861   6.646   5.446  10.119  0.1049  0.2285  0.0526
10338W        W27862  11.829  15.673   3.517 -0.2668 -0.1558  0.0037
10339W        W27863   1.880   2.407  13.591 -0.3676  0.0932  0.3829
10340W        W27864  14.334   2.962   1.154 -0.0335 -0.1839  0.5182
10341W        W27865   8.792   0.222  15.841  0.0521  0.1014 -0.2187
10342W        W27866  17.051   1.656   4.008  0.0755 -0.0280 -0.0823
10343W        W27867   5.372   1.522   0.103  0.0504 -0.1455 -0.3152
10344W        W27868   2.544  13.892  12.241 -0.2112  0.0000  0.0295
10345W        W27869   6.928  10.430   4.685 -0.0023  0.1300  0.2351
10346W        W27870   5.412  11.102   1.507  0.1852  0.0896  0.0507
10347W        W27871  14.621  11.593  13.077  0.1933  0.3068 -0.0837
10348W        W27872  17.114  13.376  15.749 -0.2307 -0.0025  0.2191
10349W        W27873   0.579  11.408  11.466  0.2989  0.0963 -0.0133
10350W        W27874   2.047  17.792  12.406 -0.2220 -0.3215  0.1482
10351W        W27875   2.814   1.810   1.212 -0.1910  0.0359  0.0521
10352W        W27876   3.158   4.283   1.709  0.2270 -0.2822  0.1910
10353W        W27877   8.039   1.007   0.302 -0.0563 -0.4691 -0.3615
10354W        W27878  12.694   2.832  11.443 -0.0673 -0.2149  0.0715
10355W        W27879  15.272   1.411  15.891 -0.0061  0.1618  0.3272
10356W        W27880   5.581  17.493   4.957 -0.1594 -0.3903  0.0661
10357W        W27881  15.902  11.777  13.533  0.2021 -0.0637 -0.2694
10358W        W27882  16.071  15.391  13.216 -0.1145 -0.0327 -0.0861
10359W        W27883   2.983  16.321  14.702  0.1917 -0.1972  0.0321
10360W        W27884   0.572  17.909   3.416 -0.1317  0.1028  0.2104
10361W        W27885  15.423  14.778  13.379  0.1147  0.1414  0.2039
10362W        W27886   8.110  15.419  12.652  0.3123 -0.1261  0.0182
10363W        W27887   9.168  12.206   5.690 -0.2336 -0.2218 -0.0871
10364W        W27888  17.871  11.154  12.191  0.3079  0.1135  0.1288
10365W        W27889  12.304  15.239   2.480 -0.1152 -0.1215 -0.0144
10366W        W27890   8.343  12.244  14.755  0.0244  0.1785 -0.1556
10367W        W27891   3.309   6.398   0.113 -0.2799  0.0066  0.2947
10368W        W27892  10.673  10.092   1.483  0.0144  0.1781  0.2604
10369W        W27893   6.250  15.021  12.155 -0.1109  0.0431  0.4114
10370W        W27894   4.991   8.531  15.716  0.0675 -0.1622  0.1043
10371W        W27895  15.015   4.337  12.316  0.1554 -0.0867 -0.1798
10372W        W27896   4.464  12.855  11.937 -0.0342 -0.1840 -0.1769
10373W        W27897  15.073  10.831  15.410 -0.1729  0.2418 -0.1787
10374W        W27898   9.026  11.159   2.951 -0.2569  0.4278 -0.1879
10375W        W27899  15.010   3.190   0.059  0.2925 -0.0408 -0.1426
10376W        W27900   4.379   2.482  14.882  0.1835 -0.0765  0.1393
10377W        W27901   9.594   4.259  15.932 -0.0802 -0.3280 -0.1643
10378W        W27902   3.476   9.666   2.360 -0.2482 -0.1274 -0.3862
10379W        W27903   5.320   4.434  12.736 -0.1726 -0.0994  0.0082
10380W        W27904  14.919   3.275  13.799 -0.1826 -0.0197  0.0688
10381W        W27905   5.606  17.473   2.334  0.0363 -0.0983  0.0588
10382W        W27906  16.901   6.230   1.425 -0.3164 -0.1609  0.1511
10383W        W27907   3.945  16.984  15.743 -0.0194  0.0883  0.2480
10384W        W27908   1.738   0.683  13.834  0.0926 -0.2835 -0.1505
10385W        W27909  17.548  11.129  14.869  0.0642 -0.1364  0.4416
10386W        W27910   3.746  17.545  12.381 -0.1760  0.1090 -0.3823
10387W        W27911   1.631   9.911  14.919  0.2854 -0.1889 -0.2298
10388W        W27912  17.499   8.894  12.739  0.0684 -0.1661 -0.2767
10389W        W27913   5.274   1.802   3.682  0.1751 -0.2279  0.0672
10390W        W27914   5.576   2.946  15.244 -0.1977 -0.2006 -0.1479
10391W        W27915  14.470  11.785   2.014 -0.1122 -0.1319  0.2832
10392W        W27916   6.336   0.570   4.171 -0.0375 -0.1819 -0.0564
10393W        W27917   0.503   3.358   4.956  0.1537 -0.1520  0.0649
10394W        W27918  15.519  14.050   2.572  0.1737  0.2911 -0.0414
10395W        W27919  15.746  15.256   0.900  0.1558  0.2276 -0.0550
10396W        W27920  10.766  14.367  10.758 -0.3314 -0.0511  0.0974
10397W        W27921   0.517  17.362  13.521 -0.0055 -0.0317  0.2385
10398W        W27922  10.651   3.489  15.487  0.0184 -0.1863 -0.0955
10399W        W27923  12.047   4.542   2.499 -0.0222 -0.2011 -0.3674
10400W        W27924   5.976   6.983  12.073 -0.2625  0.0560 -0.0956
10401W        W27925  10.823   1.408  15.738 -0.1727  0.1421 -0.1036
10402W        W27926   7.785  13.736  11.968  0.2594 -0.1747  0.0635
10403W        W27927  15.020   0.870   2.649  0.0593 -0.1302  0.1176
10404W        W27928   0.389  10.659  14.887  0.1926  0.0753  0.1880
10405W        W27929   6.745   4.603  13.565 -0.0498  0.0438  0.2368
10406W        W27930   4.587  13.223  13.295 -0.0824  0.1190 -0.3303
10407W        W27931  15.658  16.116   4.320 -0.0279  0.2860  0.0575
10408W        W27932   5.330  12.799   3.848  0.0437  0.3175 -0.2140
10409W        W27933  11.868   8.799   3.405  0.0004 -0.1244  0.0570
10410W        W27934   3.576  16.519   1.205 -0.0779 -0.1654  0.2175
10411W        W27935  10.400   8.400  13.304  0.0471 -0.0323  0.2842
10412W        W27936   6.814  16.198  10.751  0.0357  0.2770 -0.1588
10413W        W27937  17.614   3.303   2.072  0.1020 -0.1615  0.1721
10414W        W27938   3.040   7.369  11.784 -0.1899  0.2227  0.3657
10415W        W27939   0.141  15.431  12.191  0.1384 -0.1761  0.1653
10416W        W27940   1.791   8.031   2.448  0.0674  0.1287 -0.2151
10417W        W27941   1.021  14.511  10.313 -0.0042  0.3545 -0.1022
10418W        W27942  14.215   6.776   2.320 -0.0053  0.0642 -0.2993
10419W        W27943   5.454   0.043  15.283  0.1107  0.1932  0.0001
10420W        W27944  14.026  10.081  13.238 -0.0989 -0.1094  0.1508
10421W        W27945   5.826   3.025  14.320  0.4002 -0.0530 -0.1009
10422W        W27946   1.017   6.290   3.736 -0.3593  0.1296 -0.0575
10423W        W27947   1.743   5.346   3.655  0.0778 -0.1199  0.0528
10424W        W27948   6.843  13.443  16.043 -0.2619  0.1112  0.0478
10425W        W27949   3.180   8.353   2.795 -0.0174  0.0633 -0.2150
10426W        W27950  16.089   0.934  11.615  0.0007 -0.4649  0.0982
10427W        W27951  10.468   2.827  13.323  0.0290 -0.0019 -0.0801
10428W        W27952  11.027   6.055   3.328  0.3378  0.1911  0.2364
10429W        W27953  16.966  17.445   1.235 -0.0095 -0.0732 -0.1796
10430W        W27954  14.464  17.478   0.895  0.2061 -0.2546  0.0521
10431W        W27955   5.994   0.130   1.891 -0.0079  0.0661  0.0002
10432W        W27956  16.792   7.847  11.921 -0.2689  0.0946  0.0662
10433W        W27957  17.902   6.704   0.116 -0.0870  0.3119 -0.2574
10434W        W27958  17.252   5.356   2.757 -0.1009 -0.0558 -0.1432
10435W        W27959   9.875   9.434  15.462 -0.2758  0.2128 -0.0971
10436W        W27960  16.300   6.275   0.316  0.1474  0.1073 -0.1558
10437W        W27961   7.724   9.717  10.788 -0.2850 -0.2434 -0.0668
10438W        W27962   0.147  12.287   0.455  0.0743  0.1515  0.2401
10439W        W27963  11.085   3.966   2.728 -0.1644  0.0189 -0.0681
10440W        W27964  14.575   1.731   2.935 -0.0283  0.1660 -0.0107
10441W        W27965  10.204   0.906  14.967 -0.1451 -0.4624 -0.1334
10442W        W27966   7.988   0.381   3.298 -0.0980  0.0615  0.0694
10443W        W27967  16.360  10.481  14.319  0.3168  0.0312 -0.0090
10444W        W27968   2.441  17.814  11.922 -0.0574 -0.1463  0.0232
10445W        W27969   9.707  13.297   2.029  0.1408  0.0292  0.2111
10446W        W27970   8.869   4.645   4.081  0.0527 -0.0323 -0.0324
10447W        W27971   6.753  16.433  13.908 -0.0376  0.0253 -0.0746
10448W        W27972   7.876   6.883  12.137 -0.0567  0.0753  0.3408
10449W        W27973   7.249   7.423   0.766  0.3525 -0.0305  0.1744
10450W        W27974   8.548  17.699   1.536 -0.0922  0.0761 -0.1529
10451W        W27975   6.771   5.968  14.578 -0.1347 -0.1444 -0.1998
10452W        W27976   7.260   5.644  15.353 -0.2821 -0.0828  0.0365
10453W        W27977  12.510   8.313  11.487  0.5123 -0.0092  0.1015
10454W        W27978  10.154  10.944   1.808  0.0696 -0.0383  0.0428
10455W        W27979   6.583   8.588  13.863 -0.1103 -0.0651  0.0495
10456W        W27980  10.384  14.806  11.428  0.2565 -0.0255 -0.0699
10457W        W27981  11.426  12.356   2.748 -0.1736  0.3226 -0.0224
10458W        W27982  10.815  10.902  11.488  0.0041  0.1546 -0.2584
10459W        W27983   8.028   6.489  12.440  0.3477 -0.0262 -0.0955
10460W        W27984   1.188  10.037   3.063 -0.3197  0.1191 -0.0067
10461W        W27985  17.668  16.794   1.642 -0.3011 -0.0654  0.0823
10462W        W27986   7.233  10.027   3.064 -0.0873 -0.3366 -0.1285
10463W        W27987   8.159   5.986  12.172  0.0846 -0.0735  0.0796
10464W        W27988  17.481   4.934   4.061 -0.0730  0.1653  0.1611
10465W        W27989   2.833  13.225  15.613  0.0072 -0.1297 -0.4737
10466W        W27990   8.672   4.646   4.512 -0.1954  0.1875  0.1294
10467W        W27991  17.610  14.485  13.309  0.1088  0.0484  0.3910
10468W        W27992   5.941   5.839   0.719 -0.0619  0.1856 -0.1086
10469W        W27993   8.390  15.144   4.917  0.0201 -0.0183 -0.0549
10470W        W27994  15.913  10.983  15.521  0.0817  0.2623  0.1026
10471W        W27995   0.016  16.691   2.573 -0.1412  0.1199 -0.1385
10472W        W27996  11.045  15.655  14.935  0.1866 -0.0171 -0.3048
10473W        W27997  13.300   7.682  12.437  0.3734 -0.1137 -0.2226
10474W        W27998  15.003   4.431  15.301 -0.0406  0.0418 -0.3233
10475W        W27999   7.775  13.152   0.859  0.1985 -0.0174 -0.0704
10476W        W28000  15.496   3.296  16.169 -0.1219 -0.0718  0.0504
10477W        W28001  12.417   7.820   2.180 -0.1431  0.0985 -0.0619
10478W        W28002  13.475  16.639   4.394  0.2541 -0.0766  0.0038
10479W        W28003   3.690  16.615   4.263  0.3578  0.3390  0.0584
10480W        W28004   4.702   6.251  14.600  0.0093  0.1209  0.3224
10481W        W28005   1.478  15.155   2.584  0.1636  0.0127 -0.0892
10482W        W28006  14.037  10.373  12.096  0.1837 -0.0615  0.0356
10483W        W28007  14.461  16.691   3.319  0.1331 -0.0417 -0.1132
10484W        W28008   5.205  16.374  13.547  0.2090 -0.1194 -0.1595
10485W        W28009  12.646   4.483  15.266  0.1175  0.2255  0.2012
10486W        W28010  17.458   0.041  14.201 -0.1345  0.0440 -0.0174
10487W        W28011  11.078  10.293   3.282 -0.0770  0.0561 -0.0282
10488W        W28012   0.242  12.690  11.349 -0.0130 -0.0257  0.2117
10489W        W28013   1.650  11.818  16.028 -0.0450  0.0192  0.3945
10490W        W28014  17.786  14.602  16.202  0.5867  0.0226  0.0469
10491W        W28015  14.045  12.252  12.422 -0.4044 -0.2616  0.3403
10492W        W28016  13.224   0.502   0.762 -0.3132 -0.0091 -0.1559
10493W        W28017  16.991   5.940  15.223 -0.1456 -0.0946  0.1241
10494W        W28018   1.712   6.253  12.380  0.1814 -0.1423  0.0665
10495W        W28019   0.906   6.706   4.135 -0.1412 -0.2818  0.0952
10496W        W28020   5.800   2.443   3.292  0.0437 -0.1469  0.1746
10497W        W28021  13.227   0.919   3.336  0.1242 -0.1609 -0.1484
10498W        W28022   3.822  12.299  14.407 -0.0883  0.3442  0.0782
10499W        W28023  10.327  12.861  13.346  0.2123 -0.1910 -0.0511
10500W        W28024   4.828   8.179   1.836 -0.0326  0.1295  0.0390
10501W        W28025   9.835   9.723  14.338 -0.2628 -0.2915 -0.1262
10502W        W28026  17.346  14.585  11.466  0.0925 -0.1942  0.0657
10503W        W28027  17.633  15.792  12.098 -0.4806 -0.0109 -0.1602
10504W        W28028   2.927   2.170   1.521  0.0015  0.1785 -0.3396
10505W        W28029  15.791   2.399   2.725 -0.1062 -0.2994  0.1714
10506W        W28030  17.149   9.509  11.250  0.2373  0.2389 -0.0503
10507W        W28031  17.595  17.468   1.255 -0.0352  0.0251  0.3073
10508W        W28032  17.141  16.845  11.063 -0.0350 -0.1134 -0.2267
10509W        W28033   4.174   1.691   1.587 -0.1200  0.0792 -0.2687
10510W        W28034   9.141   1.263  13.963  0.0886 -0.3724  0.0545
10511W        W28035   2.149   3.486  13.626  0.2068 -0.0999 -0.1555
10512W        W28036   3.397   3.233  15.699 -0.0999 -0.0939 -0.1464
10513W        W28037   3.237  16.723   5.012  0.2504 -0.2970 -0.0987
10514W        W28038  12.419   9.205  11.741  0.2282  0.1817  0.0307
10515W        W28039   1.129   1.311  15.559  0.1266  0.0803 -0.0138
10516W        W28040   8.920   6.367   3.155 -0.0294 -0.2573  0.2380
10517W        W28041  10.956   8.426   0.600  0.2236  0.2400 -0.3687
10518W        W28042  13.901  17.606  15.193  0.2424  0.1224 -0.0272
10519W        W28043   3.046   4.413   3.770  0.1074  0.1463 -0.1803
10520W        W28044   3.431  10.785  13.573  0.0470 -0.1490  0.0089
10521W        W28045   9.315  10.512   5.059  0.2551  0.0800  0.1512
10522W        W28046  14.720  14.057   4.725  0.0359  0.1342 -0.2768
10523W        W28047   5.877   5.117   1.783  0.0164 -0.0538  0.0469
10524W        W28048  14.995   4.854  10.595  0.1133 -0.2643  0.0386
10525W        W28049   1.513   4.869  15.192 -0.3090 -0.3068 -0.1075
10526W        W28050  10.712   8.430  15.848  0.0047 -0.1849 -0.0076
10527W        W28051   9.542   9.382   3.789 -0.0384  0.1918  0.1608
10528W        W28052  12.852   6.529  16.196  0.4048 -0.0494 -0.0868
10529W        W28053  16.433   1.516   2.967  0.2394  0.2243 -0.0514
10530W        W28054  13.903   4.811   2.607  0.0547  0.1153  0.1298
10531W        W28055  11.823  11.839  12.607  0.3084 -0.0622  0.1191
10532W        W28056   7.421   8.716  11.330  0.1787  0.1460 -0.3062
10533W        W28057   3.913   4.170  12.442  0.0796  0.2286  0.2273
10534W        W28058  13.642   1.855  12.751  0.0187  0.1911 -0.0554
10535W        W28059   6.800  15.896  13.678  0.2720 -0.0063 -0.1985
10536W        W28060   6.631  16.553   4.494  0.0690  0.1706 -0.1239
10537W        W28061  15.736   3.515   3.815 -0.0269  0.2196 -0.2372
10538W        W28062  16.830   5.222  15.670  0.2143 -0.1487  0.2221
10539W        W28063   0.981  10.790  12.224  0.0494 -0.2576 -0.3297
10540W        W28064  14.484   6.400  14.351 -0.1264  0.2389 -0.1462
10541W        W28065   2.809   5.283  13.248  0.4778 -0.1546 -0.2818
10542W        W28066   3.452   1.821  13.965 -0.1020  0.1048  0.2133
10543W        W28067   9.630   5.726   3.561 -0.0018  0.0350 -0.0415
10544W        W28068  14.797   6.828  11.115 -0.3307  0.0621  0.1716
10545W        W28069   2.559   9.778   5.331  0.0115  0.1496  0.0330
10546W        W28070   3.548   0.549   0.539  0.0684 -0.2998  0.0431
10547W        W28071   4.313  17.431  15.028  0.0233 -0.2375  0.3104
10548W        W28072  13.945  17.179   3.205  0.0439 -0.1454 -0.2259
10549W        W28073  14.222   8.933  15.218 -0.1887 -0.2580 -0.2413
10550W        W28074  11.779  12.295  13.456 -0.3342 -0.0601 -0.2323
10551W        W28075  12.374   8.783   1.335 -0.1578  0.1013  0.1789
10552W        W28076   9.858  10.613   0.105 -0.2387  0.1797 -0.0254
10553W        W28077   4.184   3.680   3.428 -0.1224 -0.1649  0.1553
10554W        W28078   6.705  14.678   1.908 -0.1821 -0.0154 -0.1065
10555W        W28079  11.061  17.620   0.810  0.0753 -0.1326  0.0153
10556W        W28080  11.001  11.917   1.867 -0.2151  0.1122 -0.0226
10557W        W28081   4.614   2.809   2.933 -0.3339 -0.0716 -0.0780
10558W        W28082  14.244   3.880  12.842  0.0814 -0.1691  0.2094
10559W        W28083   2.896   1.462   1.914  0.0622  0.4023  0.1564
10560W        W28084   6.577  10.781   3.503  0.1441  0.1356  0.1318
10561W        W28085  14.626  16.992  12.921  0.0913  0.4189  0.0798
10562W        W28086  11.538  13.320   3.020  0.1311  0.2818 -0.1491
10563W        W28087   1.198  10.008   0.006  0.1139  0.1268 -0.0304
10564W        W28088  14.909  16.169  13.364  0.0473 -0.3181  0.1936
10565W        W28089  17.350  11.746   3.362  0.0223  0.0952  0.0743
10566W        W28090  16.068   2.486   3.848 -0.2885 -0.0593  0.0648
10567W        W28091  10.863   2.514   0.268  0.1793 -0.3751 -0.1088
10568W        W28092   6.873  10.151  10.508 -0.0277 -0.2208 -0.1159
10569W        W28093  13.761   2.364   2.195  0.2586  0.1367 -0.1430
10570W        W28094   3.436   9.635   4.898 -0.0869 -0.1980  0.0741
10571W        W28095   5.478   2.352   0.145 -0.0836 -0.1232  0.0318
10572W        W28096   4.444   1.565  14.041 -0.0062  0.1580  0.2417
10573W        W28097  14.563  13.316  13.424  0.0725  0.1769  0.2935
10574W        W28098  10.870   6.616   3.391  0.0144 -0.1238 -0.2359
10575W        W28099   0.847   4.964  14.078  0.0447 -0.2043 -0.2855
10576W        W28100   0.076  17.778   2.637 -0.2038 -0.0740 -0.4332
10577W        W28101   8.057   7.629   4.497  0.1888  0.0046  0.0099
10578W        W28102  15.548  10.879   4.300 -0.0188 -0.0991 -0.1735
10579W        W28103   1.285   1.135   0.650 -0.1622  0.1876  0.1885
10580W        W28104  10.833  15.683   1.174  0.0993  0.0945 -0.1412
10581W        W28105  13.497   5.819  12.686 -0.0335  0.1247 -0.1287
10582W        W28106   3.598   0.563   2.912  0.3338 -0.0873  0.3195
10583W        W28107   9.603   2.358   4.130  0.0386 -0.1058  0.2667
10584W        W28108   5.953   0.169   4.477 -0.0859 -0.0573 -0.0874
10585W        W28109  11.369   4.425   1.704 -0.2214  0.2614 -0.3026
10586W        W28110   2.372   8.386  11.437  0.3236 -0.0384  0.0369
10587W        W28111  10.580   2.412  13.559  0.1406 -0.0064 -0.0090
10588W        W28112   6.685  16.861  12.376  0.0913  0.0501  0.0369
10589W        W28113  10.478   6.636   1.990  0.0218 -0.1750 -0.0639
10590W        W28114   9.878  14.370   4.740  0.4292 -0.2482  0.1493
10591W        W28115   2.100   8.843   4.685  0.0986 -0.0260  0.1584
10592W        W28116   2.769   5.990  12.685 -0.0341  0.0893 -0.1382
10593W        W28117   0.325  12.997   1.077  0.1969  0.2249 -0.0058
10594W        W28118  11.347   2.476   1.535  0.2136 -0.0473  0.1018
10595W        W28119   6.180  15.295   0.912  0.1611  0.0552  0.4051
10596W        W28120  11.657   2.445   3.247 -0.2115  0.0771 -0.1890
10597W        W28121   7.012   7.871   1.681 -0.1156  0.0980  0.1060
10598W        W28122  16.537  13.440  13.733 -0.0557  0.1468  0.0348
10599W        W28123  11.737  12.080   2.467  0.3715 -0.1339 -0.5199
10600W        W28124   9.847   0.433   2.499 -0.0130 -0.0062  0.1656
10601W        W28125  10.824  11.933  13.338  0.1025  0.2502  0.3783
10602W        W28126  12.053   9.644  12.492  0.2128 -0.2504 -0.1433
10603W        W28127  13.624   2.442  14.473 -0.1260 -0.2199  0.1383
10604W        W28128   3.705  16.034  10.720  0.0048  0.2173  0.1657
10605W        W28129   8.455   1.525  11.277  0.2711 -0.1341  0.2703
10606W        W28130  15.297   6.485   1.326  0.0783  0.3485  0.1896
10607W        W28131  14.397   9.531   5.468 -0.0881 -0.1545 -0.1643
10608W        W28132   8.654  13.276  13.079 -0.0776  0.2331 -0.1030
10609W        W28133   5.452  17.269   0.249 -0.1791  0.2263  0.1160
10610W        W28134  17.167   9.697  12.058  0.0987 -0.1022  0.0861
10611W        W28135   1.442  14.847   4.109 -0.2417 -0.1702 -0.2272
10612W        W28136   0.813  13.078   0.088 -0.0770 -0.0051  0.0084
10613W        W28137  16.517  14.958  15.411  0.1553 -0.4580 -0.0171
10614W        W28138   8.812  15.871   0.039  0.0997 -0.2743  0.4068
10615W        W28139  17.803   9.582   2.897  0.5481 -0.1754  0.2137
10616W        W28140   7.399   4.038   1.737  0.0025 -0.0007  0.0303
10617W        W28141  15.083  14.473   4.897 -0.1158 -0.2357 -0.0109
10618W        W28142  11.399   9.964  12.253 -0.1216  0.2925 -0.0662
10619W        W28143  11.606  12.359   3.220 -0.0913  0.0246  0.1906
10620W        W28144   4.093  12.744   2.906 -0.0550 -0.0224  0.1445
10621W        W28145   4.835   8.318  15.219 -0.1477 -0.1373 -0.1751
10622W        W28146  16.684  13.446   1.919 -0.0409  0.0394  0.0287
10623W        W28147  12.093  17.169   5.242  0.0699  0.0675 -0.1969
10624W        W28148   9.851   8.976   2.166 -0.1641  0.2044 -0.3210
10625W        W28149   9.380   8.988  10.552 -0.1475 -0.3421  0.1855
10626W        W28150  10.270   6.432  12.413 -0.0679 -0.0107 -0.0760
10627W        W28151   7.909   9.354  14.594 -0.1778 -0.1010 -0.2335
10628W        W28152   5.525   0.407   3.616 -0.3553 -0.2559  0.1187
10629W        W28153  15.715  15.675  12.691 -0.0401 -0.2132 -0.3831
10630W        W28154  10.054  12.071   3.101  0.1573 -0.5065  0.1740
10631W        W28155  11.437  12.071  11.721 -0.0068 -0.2222  0.0004
10632W        W28156  17.330  17.564   3.822  0.0358 -0.0429  0.2514
10633W        W28157   8.090  12.346   3.503  0.0108  0.1960 -0.1016
10634W        W28158  11.636   4.342  12.048 -0.1794 -0.0114  0.1725
10635W        W28159  12.881  12.406  14.525 -0.2086 -0.0476  0.0699
10636W        W28160  13.477   4.142   4.140  0.0826 -0.1504 -0.3451
10637W        W28161   9.682  11.761   1.599  0.2355  0.0287 -0.5080
10638W        W28162   4.675  11.700   2.986 -0.0017 -0.1617 -0.2145
10639W        W28163   8.732   9.533  15.091 -0.1490 -0.0601 -0.0848
10640W        W28164  16.346  10.332  10.920 -0.0425  0.0243  0.1436
10641W        W28165   7.971   4.771   0.999 -0.0427  0.0716 -0.0739
10642W        W28166   5.914  16.410  14.133  0.2095 -0.0994  0.2054
10643W        W28167   3.357   1.709  14.435 -0.1163 -0.2618 -0.0510
10644W        W28168   6.703  11.118   2.069 -0.1834 -0.2093 -0.1036
10645W        W28169   4.361   9.546  16.146 -0.1240 -0.2784 -0.1261
10646W        W28170  11.987   0.735   0.100 -0.0553 -0.1253 -0.2128
10647W        W28171  10.918  10.565   3.840  0.0985  0.1682 -0.1086
10648W        W28172  14.925   7.840   1.056  0.0314  0.0240 -0.1063
10649W        W28173   4.250   9.733   5.924 -0.2648 -0.1821 -0.3133
10650W        W28174  12.194   7.006   1.444 -0.2022 -0.0717  0.0943
10651W        W28175   5.072   3.925   2.407 -0.0196  0.0308  0.0086
10652W        W28176   4.245   9.656   3.799 -0.0339  0.0697  0.2264
10653W        W28177   7.964  16.234  14.006  0.1109 -0.0306  0.2412
10654W        W28178   5.781   8.599  12.774  0.1040 -0.1626 -0.0119
10655W        W28179  10.098   4.464   0.354  0.2676 -0.1170  0.0893
10656W        W28180  17.872   2.795   3.505  0.2237 -0.0384  0.0212
10657W        W28181   5.999   0.820   0.886 -0.0482 -0.2474  0.1897
10658W        W28182   0.170   8.955  14.531  0.4033  0.3638 -0.1213
10659W        W28183  10.390  15.404  11.476  0.2326  0.1422  0.3082
10660W        W28184   0.699  13.972   2.852  0.1329  0.1013 -0.1144
10661W        W28185   7.912   1.348  12.475 -0.3389  0.3375  0.0862
10662W        W28186   9.298   5.424  12.839  0.2954 -0.1622 -0.0780
10663W        W28187   3.352   2.612  14.066 -0.0532 -0.0600 -0.1882
10664W        W28188  15.769   7.095   4.249  0.0208 -0.1593 -0.2466
10665W        W28189   3.865   4.725   1.181 -0.1501  0.0436  0.2074
10666W        W28190  16.325  17.682   1.018  0.0485 -0.0588  0.0684
10667W        W28191  16.644  14.660   2.179 -0.0052 -0.1877  0.4207
10668W        W28192   7.351   4.327  11.785  0.0792  0.0095 -0.1278
10669W        W28193   6.004   3.451  15.626  0.1610 -0.0093  0.1334
10670W        W28194  10.393   3.182   1.480  0.1834 -0.2197 -0.1538
10671W        W28195  17.060  12.564   2.237  0.3710  0.1878 -0.4801
10672W        W28196   4.360   6.457  13.319  0.1543 -0.2578  0.0547
10673W        W28197  15.377   3.457  13.599  0.3007 -0.1306 -0.1199
10674W        W28198   6.123   5.911  11.362  0.0753 -0.0834 -0.1200
10675W        W28199   6.115  13.984  11.953  0.0862  0.0124 -0.2311
10676W        W28200   7.794   0.975  13.274 -0.2020  0.2429 -0.0026
10677W        W28201   5.692  13.581   1.127 -0.1275  0.0852 -0.1648
10678W        W28202   6.783  13.434  11.813 -0.3143  0.4077  0.1289
10679W        W28203  11.986   9.863  16.118  0.3801  0.1415  0.0358
10680W        W28204   6.704   6.158  11.299 -0.2320 -0.0332  0.0681
10681W        W28205   1.373  16.753  12.553  0.3346 -0.3645  0.0361
10682W        W28206  17.014   7.198  10.492 -0.0941 -0.1253 -0.0537
10683W        W28207  12.029   6.939  15.935  0.0234  0.0095 -0.4141
10684W        W28208  14.887   5.445   0.634 -0.2371 -0.0454  0.1078
10685W        W28209  16.647  17.162  11.085 -0.0731  0.2623  0.1554
10686W        W28210  15.348   8.223  13.360 -0.0211  0.0913  0.1737
10687W        W28211  16.310   2.180   0.803  0.1004 -0.0408 -0.1634
10688W        W28212   2.855   3.744  11.372 -0.1464  0.0822 -0.2607
10689W        W28213  16.429   7.638  15.382  0.0854 -0.0659 -0.0051
10690W        W28214   8.419   5.900  12.588  0.2611  0.1310  0.1004
10691W        W28215  14.014   6.081   0.055  0.2092 -0.3081  0.2865
10692W        W28216  13.630   0.327   2.203  0.0663 -0.0355  0.3612
10693W        W28217  16.073  16.036   4.048  0.1700 -0.2042  0.0150
10694W        W28218  10.701   6.256   0.396 -0.1496  0.0606  0.0548
10695W        W28219   2.207  14.036   5.354 -0.3309 -0.1438 -0.5088
10696W        W28220  11.390  14.995  13.054 -0.3273 -0.4265  0.0880
10697W        W28221   0.277  11.091   1.664  0.0792  0.1805  0.1206
10698W        W28222   6.882   8.132  14.987 -0.5636  0.0625 -0.0785
10699W        W28223  14.417  15.849   3.803  0.2105  0.0862  0.1501
10700W        W28224   5.557   1.581  11.945 -0.1597  0.1370 -0.1842
10701W        W28225   7.048   1.470   3.516 -0.1690 -0.2177 -0.0920
10702W        W28226   6.132   9.442  11.993  0.2009  0.0316  0.1433
10703W        W28227  16.013   6.082  11.295  0.1565  0.0076  0.0008
10704W        W28228   0.796   4.795   6.191  0.1747 -0.2911  0.0944
10705W        W28229   0.655   4.515  14.917  0.2126  0.1023  0.0968
10706W        W28230   1.697   5.994  15.026  0.0004  0.1548 -0.1729
10707W        W28231  15.582  12.631   0.551  0.1074  0.1773 -0.3054
10708W        W28232  13.863   1.720  13.728  0.0673 -0.0760 -0.0603
10709W        W28233   5.997   7.378  13.492 -0.2084  0.0050  0.1108
10710W        W28234   2.464   6.973  14.819  0.1762 -0.2582  0.2468
10711W        W28235   5.074  11.623   2.386 -0.0568 -0.1942  0.1477
10712W        W28236  15.534  15.326  14.165 -0.0359 -0.2836 -0.0786
10713W        W28237   1.391   0.576   4.293  0.0153 -0.2326  0.3671
10714W        W28238  12.702   8.678   2.147  0.0846  0.1454 -0.0701
10715W        W28239   7.801  13.572   3.396  0.1059  0.0549  0.1241
10716W        W28240   0.980   6.591  15.945  0.1906 -0.0245  0.2041
10717W        W28241   4.684  10.226  14.931 -0.2692 -0.0007  0.0807
10718W        W28242   8.677  12.075   3.872  0.0026 -0.1766 -0.3624
10719W        W28243  16.466   6.436   1.325  0.1049  0.0778 -0.2421
10720W        W28244  17.152  12.361   2.709 -0.2962  0.0713 -0.1217
10721W        W28245   2.682  11.334  11.287 -0.2579  0.0056  0.0846
10722W        W28246   6.472   8.530   1.009  0.1754 -0.3895 -0.2812
10723W        W28247   7.152   2.382   2.215  0.0730  0.3398  0.0471
10724W        W28248  14.709  12.384  12.071 -0.0289  0.0646  0.1785
10725W        W28249  14.854   6.412   1.850  0.0148 -0.1040 -0.0315
10726W        W28250   0.476  14.971   4.085 -0.1716 -0.1386 -0.1515
10727W        W28251  17.149   1.716   4.569 -0.1607 -0.1045 -0.1100
10728W        W28252   9.529   7.475  11.849 -0.2720 -0.0589  0.1193
10729W        W28253  15.682   6.614   4.288  0.0655  0.1817  0.0311
10730W        W28254   2.946  14.607   2.723 -0.2008  0.0430  0.0931
10731W        W28255   5.930   9.165  12.841 -0.0884  0.0913  0.0359
10732W        W28256   9.752   6.728   5.680  0.1186 -0.0462  0.1879
10733W        W28257  12.836  17.725  15.004  0.4484 -0.0766  0.1752
10734W        W28258   5.904   7.045   0.230  0.1557  0.0338 -0.0713
10735W        W28259   5.761   6.202  16.174 -0.0338  0.1621 -0.2029
10736W        W28260  15.481   3.834  13.272  0.1293 -0.0670 -0.2547
10737W        W28261   0.022  15.802  10.281  0.1103  0.2158  0.0490
10738W        W28262  15.778   9.140   3.682 -0.1967 -0.1069  0.0735
10739W        W28263  10.732   2.182   2.161  0.0815  0.3318 -0.1317
10740W        W28264  16.944   8.945  11.348  0.2705  0.1048 -0.0472
10741W        W28265   4.680  14.181  15.823 -0.2253  0.1271 -0.2024
10742W        W28266   0.339  10.876   2.083 -0.0660  0.0614 -0.1277
10743W        W28267  14.220   2.608   2.568  0.0270 -0.0073  0.1779
10744W        W28268   7.032  12.652  14.651  0.0191 -0.1232 -0.1809
10745W        W28269   4.881  12.843   1.380 -0.0385 -0.1251 -0.0226
10746W        W28270   5.576   7.287  12.216 -0.0094 -0.0069 -0.1323
10747W        W28271   1.565   0.217  16.125  0.4718  0.0592  0.2474
10748W        W28272   0.192   6.895   1.314 -0.1773 -0.1127  0.0144
10749W        W28273  14.997  15.204   3.174 -0.0911 -0.0216 -0.0743
10750W        W28274   6.866   7.857  16.110 -0.0968  0.0252  0.0585
10751W        W28275   0.666  14.075  13.480 -0.3656 -0.0926 -0.0284
10752W        W28276   0.197   1.701  13.802  0.2979 -0.0829  0.1249
10753W        W28277  14.415   6.162   3.630 -0.1624 -0.0772 -0.2286
10754W        W28278   3.881  14.239   0.251 -0.2348 -0.0564  0.1902
10755W        W28279  13.446  14.042  14.839  0.1445 -0.1050  0.0797
10756W        W28280  14.443  13.298  11.711 -0.0527 -0.0675  0.0261
10757W        W28281   4.141  11.561   5.265 -0.1416 -0.3596 -0.2645
10758W        W28282  10.688   0.369  11.851  0.1297  0.2339  0.2502
10759W        W28283  10.800  16.971  16.174  0.1087 -0.0151 -0.3609
10760W        W28284   8.652  15.785  13.940  0.0309  0.4851 -0.1081
10761W        W28285  16.776   6.565   0.006  0.0739  0.1044 -0.3410
10762W        W28286  10.878   4.814   3.136 -0.0003 -0.1067 -0.5566
10763W        W28287  15.710  11.428  12.051  0.0401 -0.0767 -0.1546
10764W        W28288  12.570  10.667   1.898 -0.2667  0.2477  0.0830
10765W        W28289   6.174  11.252  13.945 -0.2810 -0.0951 -0.1297
10766W        W28290   8.669   8.277   4.042 -0.0627 -0.1333 -0.1629
10767W        W28291  16.856  15.616  12.505  0.1505 -0.0079 -0.2918
10768W        W28292   4.357   2.788   1.737  0.0854 -0.1386 -0.1259
10769W        W28293  13.022   7.480   1.875 -0.0501  0.0766  0.0136
10770W        W28294  14.384  15.708  14.704  0.1841 -0.1818  0.1200
10771W        W28295  11.158   9.213  13.624  0.2806  0.1561  0.0099
10772W        W28296   6.710   2.840   0.396 -0.4747  0.0253  0.0041
10773W        W28297  15.648   9.128  15.432 -0.0818  0.0382  0.3451
10774W        W28298  13.944   3.397   1.437  0.2483 -0.0773 -0.0131
10775W        W28299   6.649  10.701  11.967  0.1079 -0.3160  0.3219
10776W        W28300   4.988  10.409   1.683 -0.1745 -0.0419  0.0586
10777W        W28301  17.429  15.348  15.549  0.2103  0.0980  0.0721
10778W        W28302  11.691   1.067  15.899 -0.0703  0.0248  0.0963
10779W        W28303   3.564   2.879   2.286  0.0946  0.2098 -0.0786
10780W        W28304  13.752   8.864  16.163 -0.4662  0.0715 -0.0665
10781W        W28305  13.840   5.361  15.479 -0.1204 -0.2993  0.0213
10782W        W28306  13.709   8.843   0.592  0.0028  0.2142 -0.1035
10783W        W28307  13.493  16.611   1.661 -0.0008 -0.3286  0.2304
10784W        W28308  16.419  15.517  16.239  0.3002 -0.6899  0.3014
10785W        W28309  15.931  10.700  15.091 -0.0633  0.1045 -0.3661
10786W        W28310   1.033  12.057   2.516  0.1218  0.4021 -0.0536
10787W        W28311   5.851   2.387  12.218 -0.1144  0.0039 -0.1046
10788W        W28312   1.124   8.755   0.811 -0.0267 -0.1188  0.1235
10789W        W28313   8.630   4.139   3.083 -0.1905 -0.0820  0.0070
10790W        W28314   6.059   1.786  15.133 -0.2653 -0.2721  0.1782
10791W        W28315   6.841  10.256  11.793  0.0221  0.0015 -0.1000
10792W        W28316  11.141   7.757  13.351 -0.2750 -0.1814  0.0916
10793W        W28317  14.456   5.610   4.692  0.4925  0.1939 -0.4659
10794W        W28318  11.782  10.481   2.764  0.0241  0.2587  0.2651
10795W        W28319  16.503   0.603  14.874  0.2429 -0.1851 -0.0092
10796W        W28320  11.972   9.528   1.682 -0.1684  0.0494  0.3423
10797W        W28321  10.217   9.448  14.108  0.2250 -0.0543 -0.2455
10798W        W28322  10.113  11.297   4.144  0.3061  0.0380  0.1840
10799W        W28323  14.315  15.113   1.540  0.0623  0.0729 -0.1041
10800W        W28324  14.726   3.649  12.752 -0.0131 -0.3824 -0.1215
10801W        W28325   0.349  15.637   1.642 -0.1378 -0.0630 -0.0055
10802W        W28326   3.236  11.391   4.316 -0.1535  0.3400  0.0865
10803W        W28327  13.393  17.270  15.912  0.0646 -0.0096  0.0590
10804W        W28328  12.341   0.584  11.498  0.1544 -0.3834 -0.2054
10805W        W28329   8.538   8.547   5.505 -0.3231 -0.0099  0.1570
10806W        W28330  17.931   8.164  13.232 -0.0054 -0.2992  0.1338
10807W        W28331   6.434   7.537  11.890  0.1284 -0.1521  0.4153
10808W        W28332  17.166  10.214  15.101  0.0561 -0.1546 -0.0338
10809W        W28333   5.271   0.852   3.463  0.0343 -0.1774  0.0332
10810W        W28334  14.840   5.549  15.857  0.1086  0.1053 -0.0523
10811W        W28335  15.696   7.016   9.938 -0.2416 -0.1032  0.0938
10812W        W28336  15.274   0.988   0.432 -0.0728 -0.1294  0.0811
10813W        W28337   8.717   9.692  15.934 -0.0501  0.0461 -0.2969
10814W        W28338   6.109   3.736   3.700  0.0859  0.0850 -0.0589
10815W        W28339  17.648   9.783  11.926  0.1167  0.1483 -0.0624
10816W        W28340   6.755   1.672  11.642  0.1879  0.0584 -0.0060
10817W        W28341  10.756   4.528  12.417 -0.3058 -0.0755 -0.1728
10818W        W28342   1.636  12.412  10.814 -0.1173 -0.1834  0.2251
10819W        W28343  17.381   2.540   0.806  0.0270  0.2657 -0.1392
10820W        W28344   3.929  13.222   2.855  0.0370 -0.1929  0.0841
10821W        W28345   8.493   7.341   3.574  0.1054  0.1575  0.4176
10822W        W28346   5.223   7.886   3.651 -0.0026  0.2334 -0.0010
10823W        W28347   6.385   6.685  12.314  0.0968  0.0465  0.0270
10824W        W28348   9.561   1.880   3.548 -0.4859  0.0838 -0.1820
10825W        W28349   6.884  12.498  15.507 -0.1738 -0.3765 -0.1778
10826W        W28350   5.501   1.255   3.351  0.2855 -0.0636 -0.1993
10827W        W28351  12.622   2.975  15.148  0.0447 -0.2102  0.1693
10828W        W28352   3.717   1.713   0.701  0.2129 -0.3204 -0.0882
10829W        W28353   7.622   9.540  11.423 -0.0773  0.0178  0.0572
10830W        W28354   6.875   0.349   0.648 -0.0476 -0.3344 -0.1592
10831W        W28355  17.251   5.142  15.977  0.0288 -0.1147 -0.2777
10832W        W28356   2.057   6.182   4.715  0.1581  0.0715  0.1785
10833W        W28357  13.020   8.843  13.381 -0.1727  0.2933 -0.2478
10834W        W28358  12.426   3.670   2.543  0.0062 -0.3179 -0.2424
10835W        W28359  17.758  10.434   0.555 -0.0814 -0.5532  0.0560
10836W        W28360  11.258   6.110   3.991  0.2758  0.0174 -0.0340
10837W        W28361  17.841  17.550  14.959  0.1101  0.0270  0.0513
10838W        W28362  10.858   6.154   4.268  0.0739 -0.0204 -0.2410
10839W        W28363   9.934   0.329   3.123 -0.1738  0.0975  0.0216
10840W        W28364  13.406   9.694  14.463  0.3841  0.0294 -0.1343
10841W        W28365  12.959   5.965   5.284 -0.1427  0.1666 -0.1406
10842W        W28366  17.899   3.787   3.570 -0.1529 -0.0714  0.1077
10843W        W28367  13.121   2.475   0.383  0.2327  0.1183  0.1000
10844W        W28368  10.407  15.843  15.334  0.1855 -0.0938  0.0310
10845W        W28369   2.710   4.626  14.689 -0.0829 -0.0279  0.1475
10846W        W28370  17.229  12.070   2.298 -0.2961  0.0718 -0.0602
10847W        W28371  15.461   4.240   1.225 -0.1760  0.3373 -0.0710
10848W        W28372  16.712  17.317  16.179  0.0675  0.0056 -0.0100
10849W        W28373  10.810  13.960   0.745 -0.1783  0.0929  0.0568
10850W        W28374  13.654  13.830   4.638 -0.1248 -0.1735 -0.0799
10851W        W28375   6.714   3.678   4.646 -0.3857  0.0216  0.0975
10852W        W28376  16.476  12.452  13.791  0.1560  0.1162 -0.1215
10853W        W28377   2.731   3.845  16.081  0.4488  0.0947 -0.0315
10854W        W28378   7.869   8.341   1.316  0.0836  0.0683  0.0835
10855W        W28379  17.530  15.073   2.494 -0.1319  0.2949 -0.4186
10856W        W28380  10.628   9.228   3.822  0.2380  0.0465  0.0887
10857W        W28381  12.713   5.825   3.525  0.3395  0.0507  0.1835
10858W        W28382  14.867   4.938   0.900 -0.1736  0.0795  0.2930
10859W        W28383   1.097   9.707   2.327 -0.2191 -0.1246  0.0221
10860W        W28384  11.456  10.312   2.306 -0.1277  0.0655 -0.1075
10861W        W28385   2.739   2.767   0.254 -0.2182  0.1937  0.0067
10862W        W28386  12.243  13.350  15.580 -0.3040  0.1215  0.3401
10863W        W28387   3.617  13.524   2.594 -0.0628 -0.1673  0.0102
10864W        W28388   2.981   4.961   0.130  0.2378 -0.1265  0.1204
10865W        W28389  13.883   3.913   4.082  0.0409 -0.2470  0.0206
10866W        W28390   5.258  11.360   1.925 -0.2546 -0.1990  0.0973
10867W        W28391   2.744   5.267  14.608 -0.0516  0.0311 -0.0938
10868W        W28392   3.577   2.889   4.509  0.2021  0.0625 -0.0946
10869W        W28393   8.092  14.135  13.536 -0.0597  0.1180 -0.0278
10870W        W28394   0.732   8.170   1.052 -0.1899  0.0006  0.0378
10871W        W28395  13.759  14.771  14.122 -0.0501 -0.1605 -0.3836
10872W        W28396   1.468  15.204   3.484 -0.0008 -0.0309  0.5046
10873W        W28397  12.491   8.079   5.720  0.1573  0.2194 -0.2328
10874W        W28398   1.441  15.026  13.985 -0.0305 -0.1756  0.0763
10875W        W28399  14.987   8.470  13.105  0.4627 -0.0292 -0.2260
10876W        W28400  12.709   2.892   1.109 -0.1893  0.0212  0.3009
10877W        W28401   4.805   3.581  14.438 -0.0429  0.3637  0.3204
10878W        W28402  16.048  13.963   3.179 -0.0569 -0.3162  0.1651
10879W        W28403   2.691  16.305   2.034 -0.0987  0.2378 -0.3198
10880W        W28404   7.977  10.379  15.986 -0.0859 -0.1463 -0.0877
10881W        W28405  17.465  16.000   2.263 -0.1026 -0.1018 -0.0472
10882W        W28406  10.987  16.672  13.413  0.2123 -0.0418  0.1757
10883W        W28407  15.982   9.113   0.204 -0.1125  0.1156 -0.1346
10884W        W28408  16.564   2.684   2.127 -0.2620  0.5603 -0.1320
10885W        W28409  13.031  16.706   2.957 -0.2065 -0.1136 -0.2514
10886W        W28410   7.173  16.904   3.907  0.3738  0.0990  0.0564
10887W        W28411  16.425  17.796  11.797  0.0368 -0.0687 -0.1929
10888W        W28412   0.885   5.010   2.254 -0.1360  0.2209  0.0499
10889W        W28413   1.893   2.272   1.491  0.3994 -0.1018 -0.0754
10890W        W28414  16.087   9.939  12.638 -0.1077 -0.4751 -0.0918
10891W        W28415  17.011   5.834   4.170 -0.0189 -0.0489  0.0536
10892W        W28416   5.871   0.899  15.291 -0.1165 -0.1704  0.3733
10893W        W28417   4.861  14.469   4.900  0.1906  0.4791 -0.0220
10894W        W28418  16.307  17.907  13.797  0.3290  0.4390 -0.1099
10895W        W28419   7.297  16.187  13.027 -0.0054  0.0995 -0.1257
10896W        W28420  11.646  13.218  14.523 -0.2686 -0.0415  0.2519
10897W        W28421  17.008   8.632   0.750  0.2210 -0.1675  0.1693
10898W        W28422   8.768   7.939   2.316 -0.0747 -0.2086 -0.2888
10899W        W28423   6.011   0.819   4.526 -0.0660 -0.2159 -0.0286
10900W        W28424  14.345   8.347   0.975 -0.1854 -0.0323  0.2289
10901W        W28425   4.001   5.813   0.451  0.0695  0.2140 -0.0293
10902W        W28426   2.265   1.872   0.385 -0.0236 -0.0813 -0.1604
10903W        W28427   6.483  12.369   5.216 -0.0486 -0.0944  0.1854
10904W        W28428  17.526  15.039  13.849  0.1731 -0.0170  0.1750
10905W        W28429   5.555   9.734   5.989  0.0369  0.2489 -0.2329
10906W        W28430  14.872  11.502   3.853  0.1845  0.1428 -0.0606
10907W        W28431  11.584   1.708  11.310  0.1013 -0.0639  0.2865
10908W        W28432  10.365   5.387  12.913 -0.1240 -0.2831 -0.1218
10909W        W28433  11.447  10.668   1.232 -0.1720  0.0260  0.0168
10910W        W28434  10.106  16.672  10.672 -0.2068  0.0962 -0.0170
10911W        W28435   6.032   1.893  13.728 -0.0449 -0.0454 -0.2535
10912W        W28436  12.589  17.302   3.578 -0.3810 -0.0305 -0.0511
10913W        W28437   8.127  14.732   0.173 -0.2477 -0.2428  0.0341
10914W        W28438  15.656   7.021   3.282 -0.0141 -0.0102  0.1409
10915W        W28439   5.610  15.269   3.711 -0.0228  0.0106 -0.0011
10916W        W28440  12.004  16.627  12.887 -0.1684 -0.0521  0.1774
10917W        W28441   9.804   7.130  15.611  0.1360 -0.0935 -0.1088
10918W        W28442   2.788   7.284  14.593 -0.1835  0.0562  0.0165
10919W        W28443   1.740  13.477  11.184  0.1586 -0.2061  0.0438
10920W        W28444   5.938   5.712   5.628 -0.2396 -0.0097 -0.2081
10921W        W28445  10.558   3.216  12.396 -0.0957 -0.0122  0.2256
10922W        W28446   3.777   6.679  11.741  0.0981  0.0871 -0.0040
10923W        W28447  14.093  10.467  10.024  0.2830  0.3199 -0.1939
10924W        W28448  11.911  14.744  14.202  0.0313 -0.1933  0.2404
10925W        W28449  10.655  11.388  12.791  0.1939  0.0855 -0.1121
10926W        W28450  15.154   3.857  15.528 -0.0012 -0.0348  0.3260
10927W        W28451   8.211  11.119   1.738 -0.3615  0.0208 -0.3169
10928W        W28452   7.676  17.390  14.008  0.0885  0.1131 -0.1861
10929W        W28453   4.231  10.278   3.780  0.0519 -0.0625  0.0269
10930W        W28454  17.150   3.229   1.314 -0.2440 -0.0364  0.1925
10931W        W28455  15.159   7.469   1.323  0.1326  0.3210  0.2025
10932W        W28456   2.147   3.197  14.049  0.1220  0.2381  0.0193
10933W        W28457   2.499   9.616   4.418  0.0603 -0.2947  0.0159
10934W        W28458   5.900  11.160   4.501  0.0905 -0.0940  0.3136
10935W        W28459   1.447  12.870   1.436 -0.0508  0.2945 -0.2510
10936W        W28460   9.418   7.598  13.384 -0.0994  0.0249 -0.1104
10937W        W28461   9.896   3.042   0.346  0.4494 -0.0333 -0.2703
10938W        W28462   3.757  11.970  14.887 -0.0214  0.1116  0.0251
10939W        W28463   7.908  12.803   4.810  0.0167 -0.2191  0.1516
10940W        W28464   3.199   6.397   0.674 -0.0219 -0.2144  0.0833
10941W        W28465   5.210   1.592  12.848 -0.0522 -0.2032 -0.2442
10942W        W28466   0.664   0.198  12.394 -0.1154  0.2780  0.1653
10943W        W28467  11.462   3.694   0.560  0.1239 -0.0879 -0.1704
10944W        W28468   5.721  14.249  15.692  0.1679  0.0339 -0.1705
10945W        W28469  14.293   3.278   4.670  0.1336 -0.2220 -0.1986
10946W        W28470   6.680   5.493   0.101 -0.0473 -0.0218 -0.0055
10947W        W28471   4.185   6.439  12.419  0.0804  0.2739 -0.2344
10948W        W28472   5.597  14.447  13.949 -0.4045  0.1319  0.0532
10949W        W28473   9.070  16.763   3.541  0.0373  0.0873  0.1966
10950W        W28474   1.574   6.940  14.008  0.2048 -0.0705 -0.1361
10951W        W28475  15.201   8.938   0.880 -0.0067 -0.0639  0.0829
10952W        W28476   3.377   1.562  11.865 -0.0638 -0.0930 -0.0166
10953W        W28477   5.051   3.711   2.936 -0.1464 -0.3317  0.1074
10954W        W28478   8.133   5.815  15.386 -0.0733 -0.2040  0.1396
10955W        W28479  10.502  12.160  11.278  0.4454  0.0031  0.0601
10956W        W28480   0.337  13.126  12.328 -0.0754 -0.0329  0.2312
10957W        W28481   5.309   0.006  14.353 -0.1856  0.0208 -0.0163
10958W        W28482  11.593   7.759   0.935 -0.0232 -0.1677  0.0765
10959W        W28483   0.656   1.068   0.013  0.2883  0.0199  0.1737
10960W        W28484  12.137  13.956  14.826  0.1673 -0.0919 -0.0217
10961W        W28485   1.235   9.763  15.187 -0.0967  0.0339 -0.0611
10962W        W28486   8.365  11.560  16.007 -0.0620  0.1243 -0.3033
10963W        W28487  10.275  13.123  15.717 -0.1526 -0.1265  0.0677
10964W        W28488  10.060   1.144   2.539  0.0630  0.0089 -0.2391
10965W        W28489   3.462   8.416  15.802  0.1840  0.4678  0.2527
10966W        W28490  13.194  14.791   2.136  0.1449 -0.1040  0.1008
10967W        W28491   9.882   1.622   2.620  0.2752 -0.2290  0.0945
10968W        W28492  15.786  10.235   1.808 -0.0131 -0.2002 -0.0435
10969W        W28493   7.215   9.406  12.351 -0.1902  0.1195 -0.1091
10970W        W28494   6.022   1.886   1.735  0.2347 -0.0152  0.0474
10971W        W28495  10.843   9.389   1.333  0.3776  0.3181 -0.1540
10972W        W28496  13.167   9.189   2.921 -0.2557 -0.2542  0.1889
10973W        W28497   5.463  10.768  14.800  0.2228  0.0020 -0.4321
10974W        W28498   8.170  16.196   0.612  0.1116 -0.2910 -0.0411
10975W        W28499   2.585  15.952  12.487  0.3796  0.1593 -0.0813
10976W        W28500  17.260   5.224   0.573  0.0061  0.4030  0.0210
10977W        W28501  13.326   6.626  12.005  0.0653 -0.0792  0.0654
10978W        W28502   7.173  13.452   4.754  0.1268  0.1201 -0.1770
10979W        W28503  14.565  11.189   0.642 -0.2618 -0.1069  0.0868
10980W        W28504   4.337  16.380   2.724 -0.1497 -0.3328 -0.1598
10981W        W28505  17.170  17.078   4.997  0.1255  0.0228  0.1304
10982W        W28506   8.831   7.510  11.477  0.0630 -0.2144 -0.1142
10983W        W28507  12.629  11.035   4.570 -0.1647 -0.0042  0.1201
10984W        W28508  12.086  10.906  12.405 -0.3966 -0.0723 -0.0826
10985W        W28509  11.153   4.949  13.081 -0.1481  0.0467 -0.0427
10986W        W28510   0.714  10.166  15.825 -0.1396 -0.1874 -0.2127
10987W        W28511   2.637   7.065   5.944 -0.1740 -0.0726  0.1287
10988W        W28512  15.885  15.785   3.655  0.0671 -0.3271  0.3763
10989W        W28513  15.562   4.669  13.971  0.2642  0.0031 -0.1618
10990W        W28514   4.483  11.079  11.152  0.0646  0.0963 -0.2307
10991W        W28515  11.245  15.860   2.213  0.1770  0.1287 -0.1601
10992W        W28516   8.692   4.023   2.163  0.0308  0.1553  0.0174
10993W        W28517  13.547  12.070   0.364 -0.0842 -0.0592 -0.0349
10994W        W28518   6.633   3.128  10.594  0.1157 -0.1153  0.1215
10995W        W28519  15.121  16.527   2.525  0.3005  0.0555 -0.1690
10996W        W28520   0.707   7.956   0.364  0.0725  0.3032 -0.0161
10997W        W28521  10.653   1.506  11.901  0.0907  0.0861 -0.0185
10998W        W28522   3.433   7.035  13.960 -0.2425 -0.2263 -0.0957
10999W        W28523  17.511   5.690   1.793  0.0453 -0.2371 -0.1218
11000W        W28524  15.853   2.762  12.788 -0.2627 -0.2690  0.0245
11001W        W28525  11.757   9.455   0.218 -0.0853 -0.0200  0.1471
11002W        W28526   7.388   6.140  11.752  0.2015  0.1483 -0.0505
11003W        W28527  12.240  14.345   1.981  0.1598 -0.0320  0.0495
11004W        W28528   8.530   6.684   4.418  0.0173 -0.1761  0.0654
11005W        W28529   6.146  17.806   0.286  0.1415  0.1109  0.0070
11006W        W28530   8.642   7.113   0.912  0.3348  0.1256 -0.1187
11007W        W28531   8.417   1.796   3.453  0.1830 -0.0431  0.0266
11008W        W28532  13.888   9.428  14.475  0.0745  0.0155 -0.1228
11009W        W28533   6.325   5.452  14.859 -0.2680  0.2870 -0.0426
11010W        W28534  10.941   8.200  12.383 -0.0144  0.0736 -0.1914
11011W        W28535   7.700  10.853   4.428 -0.2038 -0.1854  0.1755
11012W        W28536   2.967   9.853   0.593 -0.1639 -0.1211  0.1173
11013W        W28537  16.533   1.600  11.229  0.1751  0.1190 -0.2342
11014W        W28538   7.252  12.483   1.934 -0.3161 -0.1595  0.1040
11015W        W28539  15.798   9.072  13.183  0.0218 -0.1537  0.1990
11016W        W28540  17.500   7.934  13.478 -0.1383 -0.1652  0.0193
11017W        W28541   2.952  13.464   1.754 -0.1319  0.1361  0.1209
11018W        W28542   9.252  13.696   3.773 -0.1840  0.0509  0.0966
11019W        W28543  14.356  10.226   4.300  0.0106  0.2743  0.1308
11020W        W28544   5.905  11.562   1.587  0.0754  0.1570 -0.1628
11021W        W28545  17.926   8.537   1.334 -0.2503  0.0590 -0.0953
11022W        W28546   4.445  10.846   0.831 -0.0476 -0.1727 -0.2047
11023W        W28547   1.980  14.419   2.250 -0.2504  0.1381 -0.0113
11024W        W28548   5.588  13.587   1.717 -0.0219  0.2801 -0.0382
11025W        W28549  14.101  14.994  12.164  0.1166  0.2477  0.0200
11026W        W28550   7.201  15.570  12.476 -0.1391 -0.0726  0.0459
11027W        W28551   6.774   0.189   4.686  0.0628 -0.1614 -0.1886
11028W        W28552   8.859  14.875   4.011 -0.1241  0.0123  0.0250
11029W        W28553  15.641   3.152   2.180 -0.0635 -0.3419  0.3603
11030W        W28554   6.357  17.542   5.448  0.0907 -0.2188 -0.2281
11031W        W28555   9.401   0.185   0.497 -0.1868  0.3551  0.3102
11032W        W28556   7.601   3.647   3.700  0.0872 -0.3758  0.1320
11033W        W28557   2.194   9.118  13.953  0.1863  0.1578  0.3018
11034W        W28558  15.701  17.266   5.257  0.3063  0.1724 -0.0957
11035W        W28559  14.458  12.900   4.054  0.1575  0.4177  0.1549
11036W        W28560  12.252   3.548  11.226  0.4822 -0.0992 -0.0569
11037W        W28561   2.575  14.268  11.933 -0.1524 -0.0819 -0.1670
11038W        W28562   4.949  15.459   0.380  0.1862  0.0044  0.0558
11039W        W28563   9.196   0.948  12.672 -0.0360 -0.0530 -0.1166
11040W        W28564  11.582  13.661   3.497 -0.1864 -0.0607 -0.1156
11041W        W28565   5.583   3.443  15.173 -0.2053 -0.1384  0.0469
11042W        W28566   0.046  17.367  12.352 -0.0997 -0.2755 -0.0337
11043W        W28567  17.075  13.712  14.379  0.2952  0.1105  0.1581
11044W        W28568  16.253   3.168  12.593  0.3153  0.0336 -0.0509
11045W        W28569   2.940  15.638   3.758 -0.0054 -0.0472 -0.4045
11046W        W28570   3.804  15.987   2.515 -0.1230  0.2065 -0.2127
11047W        W28571   5.489   5.808  13.104 -0.1360 -0.0455  0.0222
11048W        W28572   9.799  17.890   2.796  0.3820 -0.0038  0.1880
11049W        W28573   4.632  13.859  13.138 -0.1853 -0.0735 -0.1651
11050W        W28574   5.829   3.219  16.163 -0.0008 -0.0602  0.2561
11051W        W28575  12.422   4.197   3.075  0.0222 -0.1738  0.0346
11052W        W28576   0.304  11.906  12.500 -0.2468 -0.2052 -0.1680
11053W        W28577   5.633  10.326  14.781 -0.0651 -0.2538  0.3349
11054W        W28578  12.292   3.570   4.661  0.0292  0.1622  0.1114
11055W        W28579  11.064   4.425   3.420 -0.0642  0.1592  0.0088
11056W        W28580  13.416   0.468   3.058  0.2012 -0.2399  0.2497
11057W        W28581  16.762  14.978  14.530 -0.0720 -0.0895  0.3083
11058W        W28582  11.398  14.859  15.130 -0.1142 -0.0591 -0.1073
11059W        W28583  15.390  13.665  13.224 -0.3935 -0.0447 -0.0472
11060W        W28584   3.150   6.786  11.135  0.4241  0.1651  0.1316
11061W        W28585  11.351  17.718  14.038 -0.0078 -0.0234  0.0742
11062W        W28586   5.946  10.403   5.030  0.1999 -0.2111 -0.0300
11063W        W28587   8.868   9.091  13.677 -0.2251  0.1817 -0.0645
11064W        W28588  10.094   4.810  10.288  0.2661 -0.0542 -0.1929
11065W        W28589  14.407  12.362  14.478 -0.3026  0.3363 -0.3339
11066W        W28590   2.013  14.829   1.880 -0.1742  0.1953  0.3288
11067W        W28591   6.848   3.388  15.412  0.1200  0.2655 -0.4269
11068W        W28592  16.035   8.356  15.316  0.2143 -0.1954 -0.1359
11069W        W28593  11.627   8.408  12.849  0.3540  0.2068  0.0290
11070W        W28594  11.753   3.235   3.792 -0.1458 -0.0452 -0.0140
11071W        W28595  15.895  17.191   3.654 -0.2112  0.1262  0.1796
11072W        W28596   1.194  14.024  16.036 -0.3227 -0.4197  0.0130
11073W        W28597   2.904  11.752  12.373 -0.0904  0.2725  0.2395
11074W        W28598  12.542  10.998  14.323 -0.1937 -0.0341 -0.2063
11075W        W28599   1.826   9.318   1.753 -0.0971 -0.2123 -0.0229
11076W        W28600   4.905  15.168  15.668  0.0510  0.0851 -0.3319
11077W        W28601  11.684   8.267  11.603 -0.2243 -0.1186  0.0748
11078W        W28602   1.820  11.160  10.998  0.2133  0.2890 -0.2701
11079W        W28603   5.606   1.990  15.353 -0.3029  0.1452 -0.0825
11080W        W28604  14.884   8.263  15.918 -0.2089 -0.0042  0.0961
11081W        W28605   8.613   3.646   3.219  0.1638  0.2911  0.0136
11082W        W28606  14.766  12.758   0.954  0.0764  0.2683 -0.1069
11083W        W28607   3.337  13.374   0.297  0.1842 -0.4594  0.2040
11084W        W28608   7.605  14.860  14.134  0.0020 -0.2800 -0.1175
11085W        W28609  12.582   3.282   1.702 -0.2768  0.1599  0.3768
11086W        W28610  17.588  11.632   6.184  0.1149 -0.1177  0.0681
11087W        W28611   1.529   1.992   0.005  0.1960 -0.1297  0.1786
11088W        W28612   0.521  11.560   3.783 -0.0244 -0.0372 -0.0611
11089W        W28613  13.850  17.163  15.446  0.0618 -0.0511 -0.1899
11090W        W28614   4.636   4.894  16.224  0.0030 -0.0821  0.0508
11091W        W28615   1.616  17.526   1.754 -0.4187  0.1334 -0.0329
11092W        W28616   6.822   2.029  14.210  0.4249 -0.3479 -0.2681
11093W        W28617  17.776   1.960   2.501 -0.2669  0.0461 -0.1649
11094W        W28618  14.955   5.758   0.989 -0.0183  0.0332  0.0055
11095W        W28619   4.879   8.023  13.951 -0.0449 -0.3372 -0.0684
11096W        W28620  17.246  13.333   3.301 -0.2285 -0.3401 -0.0540
11097W        W28621   3.788  10.514  13.909 -0.1528  0.1939  0.0638
11098W        W28622  10.498  16.155  12.967  0.4061 -0.0391 -0.2543
11099W        W28623  13.350   8.552   0.525  0.1175  0.0214 -0.0186
11100W        W28624   4.211  16.995   1.541 -0.1381  0.0966  0.0194
11101W        W28625  14.922  16.017  12.800  0.0391 -0.0337  0.1768
11102W        W28626   5.262  16.491  11.605 -0.1939  0.0352  0.0688
11103W        W28627   1.637   3.147  15.175 -0.1324 -0.2848  0.0090
11104W        W28628  11.806   9.597  15.303  0.0956 -0.0116  0.1801
11105W        W28629   3.927  11.985   2.410  0.3871  0.0593  0.0530
11106W        W28630   6.528   0.677   2.822 -0.1450  0.0279  0.0779
11107W        W28631   6.686  12.027   1.749  0.2317 -0.1887 -0.2567
11108W        W28632   1.015   6.806  15.179  0.0656 -0.0553  0.3897
11109W        W28633  10.617  15.803  12.542 -0.2040 -0.0922  0.1570
11110W        W28634  16.774   1.799   0.165  0.0869 -0.0333 -0.3868
11111W        W28635   9.489  10.881  13.712  0.1962 -0.0357 -0.1184
11112W        W28636   3.043   3.302   1.942  0.1073 -0.0977 -0.4516
11113W        W28637  11.183   4.931   1.536  0.0256  0.4676 -0.1557
11114W        W28638   2.058   5.550   0.695  0.1609  0.0856 -0.2377
11115W        W28639  13.089   4.179  14.800 -0.4796  0.0079 -0.4923
11116W        W28640  14.891   3.106   4.992 -0.1529  0.1325 -0.0965
11117W        W28641  13.580  12.751   2.812 -0.2376  0.0189  0.2306
11118W        W28642   9.739   8.550  12.662  0.0729 -0.0368  0.0732
11119W        W28643  11.744   4.188   0.486  0.0780  0.0950  0.2147
11120W        W28644  11.204   9.986  14.639 -0.1502  0.4100 -0.2629
11121W        W28645  10.726  14.320  12.048 -0.1950 -0.0581 -0.0861
11122W        W28646   6.271   5.352   1.049  0.0497 -0.2033 -0.1000
11123W        W28647  14.760  14.275  11.843  0.1411 -0.0561 -0.0123
11124W        W28648  17.776   7.066  15.461 -0.0868  0.0271  0.0204
11125W        W28649  16.467   3.016   0.309  0.0762 -0.2628 -0.1737
11126W        W28650   7.483   7.310   3.744  0.4651  0.1395 -0.0327
11127W        W28651   2.169   4.976   2.387  0.0000 -0.0305  0.2198
11128W        W28652  13.893   9.727   0.551  0.2001  0.1274  0.2520
11129W        W28653  13.625   5.478  14.986  0.1266  0.1278 -0.1441
11130W        W28654   4.380   3.897  12.579  0.3424 -0.0633  0.2096
11131W        W28655  15.864  11.070   3.980  0.0657  0.2347  0.2331
11132W        W28656   3.253  12.424   0.544 -0.0100  0.0330  0.0097
11133W        W28657  15.794   3.381   0.373  0.1756 -0.2836 -0.0478
11134W        W28658   0.602  15.691  11.451  0.0145 -0.1520  0.0528
11135W        W28659   1.769   4.929   0.248 -0.2640 -0.0057 -0.0038
11136W        W28660  12.839   5.848  12.999  0.3205 -0.0687  0.0317
11137W        W28661   7.069  14.325  11.646  0.1070 -0.2148  0.0266
11138W        W28662  14.025   2.934   3.518 -0.2679 -0.0467 -0.0819
11139W        W28663  10.526   5.606  11.263 -0.0417  0.0245 -0.0315
11140W        W28664   8.533  10.535   1.842 -0.2157 -0.0187  0.1507
11141W        W28665   2.325   4.018   4.974  0.3337 -0.2216 -0.0765
11142W        W28666   5.332  11.134   3.802 -0.1251 -0.0882 -0.2349
11143W        W28667   5.286   8.230  13.609  0.1416  0.0903 -0.2091
11144W        W28668   0.126  11.122   0.314  0.2233 -0.2902  0.0970
11145W        W28669   1.874   0.163  13.532  0.2223 -0.0765 -0.2681
11146W        W28670   1.350   5.688   4.382 -0.0365  0.1111 -0.2313
11147W        W28671  10.312   4.444  12.905  0.1146 -0.1576  0.0211
11148W        W28672  15.394   5.980  14.030 -0.2474  0.1659  0.2689
11149W        W28673   8.452   9.258  11.390 -0.1161  0.0190 -0.1227
11150W        W28674  17.520   3.877   4.331  0.0062 -0.0806 -0.0059
11151W        W28675  13.441  15.035   3.939 -0.1517 -0.0643 -0.0361
11152W        W28676  16.726   0.313  13.839  0.1879  0.3297 -0.0749
11153W        W28677  13.170   0.678  12.973  0.0913  0.0458  0.1061
11154W        W28678   3.408  17.564   4.584  0.0292  0.4541  0.1579
11155W        W28679  16.541   8.217  12.152  0.2055 -0.0954 -0.2887
11156W        W28680   5.807  13.371  12.716  0.1142  0.0892 -0.0254
11157W        W28681  14.010   0.200  13.365 -0.2438 -0.1767  0.0485
11158W        W28682   6.350   7.324  14.811  0.0114 -0.0370 -0.0647
11159W        W28683   6.863   1.459   0.844  0.1321  0.1481 -0.0864
11160W        W28684   1.775  17.726   0.828  0.2559  0.0760  0.0794
11161W        W28685   5.419   4.408   1.140  0.1498 -0.0302  0.0905
11162W        W28686   8.935   7.896  14.282 -0.0788  0.3818  0.1110
11163W        W28687  12.775  10.170  11.540 -0.2375 -0.0806 -0.1481
11164W        W28688  15.844   8.272  16.220  0.0258  0.0109  0.0642
11165W        W28689  16.248   1.547  10.575 -0.2593  0.2245 -0.1446
11166W        W28690  12.654  12.234  15.362 -0.2955  0.0409  0.0817
11167W        W28691  11.681  12.506  13.936  0.1221  0.0710 -0.1589
11168W        W28692   9.689  15.367  13.624 -0.4208  0.2753  0.0641
11169W        W28693  16.401  12.266  15.585 -0.0839 -0.1387 -0.1524
11170W        W28694   1.464   4.620   4.738  0.0479 -0.1389  0.0300
11171W        W28695  10.699   5.823   1.410  0.3460  0.0270  0.1650
11172W        W28696  16.787  10.722   5.042  0.3116 -0.0362  0.0082
11173W        W28697   9.452   9.441  12.614  0.0897  0.0862 -0.0372
11174W        W28698   3.021   7.956   3.614 -0.1190 -0.2408  0.2998
11175W        W28699  11.097  11.247   2.674  0.1650  0.1090 -0.2218
11176W        W28700  15.034  10.284   4.260  0.0170  0.2834  0.0299
11177W        W28701  13.290  15.475  13.627  0.0022 -0.2446 -0.4207
11178W        W28702  12.034   5.330   4.569 -0.1316 -0.6120  0.1019
11179W        W28703  15.663   1.083   1.429 -0.0390  0.0371 -0.2340
11180W        W28704  13.450   2.609  16.232  0.3883  0.1266  0.1921
11181W        W28705   9.390  16.426   3.448 -0.1981 -0.1242 -0.0402
11182W        W28706  12.337   8.300   2.096 -0.1623 -0.2831 -0.1032
11183W        W28707  15.166   2.631  13.132 -0.0013 -0.2264 -0.2584
11184W        W28708  11.505  14.349  15.656 -0.0704  0.0598 -0.0853
11185W        W28709   5.577  10.326  11.965  0.1247 -0.3539  0.0161
11186W        W28710  12.808  14.428   3.812  0.0160 -0.1451  0.0281
11187W        W28711  13.081   1.124  15.594  0.1580 -0.0674 -0.0167
11188W        W28712   4.885   0.861  14.415  0.2138 -0.2432  0.0670
11189W        W28713  14.274  17.542   0.330  0.2418  0.0395  0.1629
11190W        W28714   0.223   6.313  12.394  0.0278 -0.0451 -0.1307
11191W        W28715  15.472   4.354  13.115  0.1545  0.2371  0.1729
11192W        W28716  14.700  10.368   1.929 -0.3330 -0.0245  0.0977
11193W        W28717   7.970  13.706   0.228 -0.1628 -0.0924 -0.1177
11194W        W28718  15.103  12.608  15.872  0.3038 -0.2353  0.0623
11195W        W28719   6.699   6.990  12.887 -0.0509  0.0639 -0.2852
11196W        W28720   9.507  17.087  12.504  0.3713 -0.0309  0.3794
11197W        W28721  16.259   9.848  15.445  0.0846 -0.1154 -0.1346
11198W        W28722   6.488   1.462  10.387 -0.1613 -0.2180 -0.0387
11199W        W28723   0.063   0.089  14.222 -0.0495  0.0871 -0.3634
11200W        W28724  12.798   6.381  14.966  0.1293 -0.2380 -0.1393
11201W        W28725  12.065  15.148  11.725 -0.2330  0.2360  0.1497
11202W        W28726  13.186   2.178  12.924 -0.0042  0.0045 -0.1591
11203W        W28727  11.102   7.004  11.342 -0.0764 -0.0272 -0.0506
11204W        W28728  10.699  10.551  14.450  0.0668  0.0758  0.2822
11205W        W28729   3.391   0.903  14.036  0.0088 -0.2389  0.0277
11206W        W28730   0.516   3.105   3.765  0.3882 -0.0327 -0.0982
11207W        W28731  13.001   2.926   1.493  0.1796 -0.1009 -0.2963
11208W        W28732   5.964   3.825   0.322  0.1269  0.1395  0.1519
11209W        W28733   0.437   9.338   0.491 -0.0120  0.0842  0.0266
11210W        W28734  15.369   9.683  13.739  0.3358  0.0286  0.0023
11211W        W28735   1.532  12.389   2.237 -0.0414 -0.0794 -0.0593
11212W        W28736   6.494  11.599  12.550 -0.0570  0.0669  0.1231
11213W        W28737   3.005  16.686   3.340 -0.0419 -0.1026  0.1498
11214W        W28738   0.527   2.248  16.157  0.0726  0.1379  0.0213
11215W        W28739   8.305   1.038  15.509 -0.0024 -0.3197 -0.1172
11216W        W28740  13.870  15.977  13.914 -0.3475 -0.2731 -0.0818
11217W        W28741  15.853   2.093  14.899  0.1386 -0.1469 -0.0705
11218W        W28742   4.948  12.881   4.305  0.0487  0.2897 -0.0755
11219W        W28743   5.375  12.751  12.050 -0.1028  0.2006  0.2279
11220W        W28744   7.111   8.679  15.605 -0.0005 -0.0871 -0.0275
11221W        W28745  11.197   0.997   2.370 -0.1760  0.2070  0.0269
11222W        W28746  10.461  11.725  12.500 -0.1181  0.1218  0.0727
11223W        W28747   7.579   1.033   1.465 -0.0830  0.1148 -0.0325
11224W        W28748   0.385  14.325  14.274  0.2086 -0.2117 -0.2171
11225W        W28749  11.798  12.963   2.055 -0.3444 -0.0031 -0.0790
11226W        W28750  14.840   6.935   3.808  0.0244 -0.2000  0.0228
11227W        W28751   8.506   5.828   1.682  0.3088 -0.0059  0.3412
11228W        W28752  17.867   2.637  12.023  0.0826  0.1604 -0.0693
11229W        W28753  12.636   5.209  10.352 -0.0836  0.0499 -0.1682
11230W        W28754  11.155  13.296  14.330 -0.0300 -0.2809  0.1232
11231W        W28755   9.216  16.116  11.363 -0.1904  0.2753 -0.0244
11232W        W28756  14.055   9.372   1.818  0.2327  0.1248  0.0115
11233W        W28757  11.672   9.220   3.548 -0.1599 -0.1332 -0.1021
11234W        W28758   4.841  13.427   3.036 -0.0400 -0.2966 -0.3994
11235W        W28759   3.465   4.645  15.023  0.1404  0.0795  0.0212
11236W        W28760  12.989   3.894   1.078 -0.0420  0.0531  0.0501
11237W        W28761  16.754  10.582  14.885 -0.0776 -0.3406 -0.0864
11238W        W28762   7.127  14.902   1.789 -0.1038 -0.0299  0.2391
11239W        W28763   0.984  16.691   3.953  0.5231 -0.0731 -0.1749
11240W        W28764  16.355  17.003  12.485 -0.0037  0.2763 -0.0205
11241W        W28765   2.887  15.553   4.899 -0.0617 -0.0605  0.2711
11242W        W28766  10.154  14.292   4.158 -0.1155 -0.0395 -0.1322
11243W        W28767   9.749  11.427  14.509  0.1051  0.4340 -0.1447
11244W        W28768  13.184   5.530   3.590 -0.0204  0.3467  0.2034
11245W        W28769   0.769   3.824  12.020 -0.2694 -0.1216  0.0813
11246W        W28770   3.785   8.230  16.197 -0.0535  0.2120  0.0667
11247W        W28771   2.422  15.359   3.696 -0.0486 -0.0179  0.0862
11248W        W28772   3.346  16.404  16.109  0.2394  0.3338  0.0317
11249W        W28773   1.820   2.363   5.048 -0.0868  0.0559 -0.3052
11250W        W28774   9.641   2.682   1.544 -0.2774 -0.0054 -0.0426
11251W        W28775   2.946   8.193   0.153 -0.1154 -0.1506  0.0837
11252W        W28776   4.473  11.531   5.685  0.0505 -0.3038 -0.4340
11253W        W28777  11.529   1.051  14.770 -0.1824  0.1961 -0.0789
11254W        W28778   7.783   3.627  13.874  0.2413 -0.2168 -0.2303
11255W        W28779   0.193   4.479   0.964 -0.0558 -0.0226  0.0843
11256W        W28780   5.434   8.246  12.656  0.1809  0.0564 -0.0471
11257W        W28781   9.438  15.265  15.995 -0.0787 -0.0869  0.0764
11258W        W28782  17.081  14.180   0.148  0.1217  0.1509  0.0141
11259W        W28783   6.760   1.194   5.543 -0.1785 -0.1701  0.0921
11260W        W28784  14.791  12.696  14.247 -0.0368 -0.1225  0.1892
11261W        W28785   7.650   0.812   3.811 -0.1318 -0.2372 -0.1896
11262W        W28786  11.684   3.805  11.787 -0.0900 -0.0437  0.2371
11263W        W28787  12.657  10.883   2.370 -0.0752 -0.3024 -0.0631
11264W        W28788   3.254   9.961   3.233  0.1147 -0.0155  0.0150
11265W        W28789   0.658   9.492   0.059 -0.2255 -0.2157  0.0231
11266W        W28790  13.400   8.143  15.882 -0.2241  0.1472 -0.1740
11267W        W28791   4.935   0.242   4.814  0.3134  0.1536  0.1891
11268W        W28792  13.369   2.541  13.305  0.0365 -0.3834  0.2404
11269W        W28793   0.634  16.259  14.475 -0.3496 -0.0561 -0.1215
11270W        W28794   9.723  10.382   3.040 -0.0515 -0.1120 -0.2368
11271W        W28795  10.318  15.150  14.551 -0.0820  0.1314 -0.0804
11272W        W28796   6.441   3.797   0.381 -0.1811  0.0745  0.1262
11273W        W28797   2.733  14.698   0.717  0.3296 -0.2982 -0.2817
11274W        W28798  15.449  14.385  13.880  0.0415 -0.3380  0.0023
11275W        W28799   0.002  15.014  12.601  0.0796  0.1036 -0.0049
11276W        W28800   3.313   7.401   2.845  0.2272  0.1461  0.0698
11277W        W28801  13.084   8.556  15.517  0.2153 -0.0115 -0.0713
11278W        W28802  13.437   6.463   2.640 -0.1740  0.0378 -0.0067
11279W        W28803   9.816  10.895   2.762 -0.0178  0.0036 -0.1302
11280W        W28804  15.756   8.636  12.196  0.1507  0.1702  0.2458
11281W        W28805   3.705  14.020   1.304  0.3059  0.1083  0.0239
11282W        W28806   7.446  10.390   2.121 -0.0341  0.0883  0.2399
11283W        W28807  15.599   7.277  11.602 -0.3147  0.1011  0.1470
11284W        W28808   8.843   8.103   0.207  0.2123 -0.0217 -0.0015
11285W        W28809   5.423   4.608   0.395  0.1880  0.1002  0.1126
11286W        W28810   6.947   0.605   1.932 -0.0557  0.1185 -0.0481
11287W        W28811   1.884  11.837  15.214  0.0678  0.1714  0.0120
11288W        W28812  16.259   7.726   3.609  0.0025 -0.2049  0.0972
11289W        W28813  10.091  10.432   5.787 -0.0981 -0.3828 -0.0857
11290W        W28814   4.419   8.094   1.586  0.0243 -0.0500  0.0964
11291W        W28815  11.732   6.409  12.062 -0.1299  0.0670 -0.2685
11292W        W28816  13.599  14.954   2.943  0.2258 -0.3836 -0.0043
11293W        W28817   9.468   7.495   0.649 -0.1681 -0.0562 -0.1449
11294W        W28818  11.350   3.181   3.023  0.1878 -0.0851  0.0808
11295W        W28819   1.545  16.458   2.169 -0.1015  0.2203  0.0507
11296W        W28820  17.198  11.428   0.302 -0.1084  0.0968  0.3045
11297W        W28821   4.682  15.061   3.097  0.2125  0.1521  0.0265
11298W        W28822  17.748   9.399   2.438 -0.2948 -0.1686 -0.1533
11299W        W28823   7.632   5.673   1.795  0.0723  0.2780  0.3707
11300W        W28824  16.694  16.755  13.423  0.0598  0.2766 -0.1613
11301W        W28825   7.046   9.225  15.739 -0.0690 -0.2412 -0.2482
11302W        W28826   0.174  17.018   1.714 -0.4408  0.0843 -0.0743
11303W        W28827   1.353  11.930   2.112 -0.0507 -0.2845  0.0336
11304W        W28828   6.616   1.982  11.255  0.2355 -0.0678  0.0757
11305W        W28829   3.520   7.298   4.330 -0.3011 -0.0642  0.1122
11306W        W28830  14.322  13.742  13.980 -0.0988 -0.1035 -0.0853
11307W        W28831   4.007   9.781   2.405 -0.1174  0.0727  0.0257
11308W        W28832   7.487   2.094   4.602 -0.3287  0.0452 -0.1816
11309W        W28833  12.908  13.052   4.653 -0.0003  0.0947  0.0876
11310W        W28834  13.738  16.861   0.140  0.0774 -0.1241  0.0161
11311W        W28835  13.916  15.244  14.172  0.2055  0.0727 -0.0728
11312W        W28836   3.639  15.845   0.454 -0.0950  0.1611 -0.0821
11313W        W28837   0.319  10.378  16.162 -0.0353 -0.1375  0.3180
11314W        W28838   0.729  17.665   2.033 -0.1392 -0.0838 -0.2333
11315W        W28839  16.405   2.354   2.547 -0.2653 -0.2659 -0.0293
11316W        W28840   3.121   6.264  12.485 -0.0187 -0.2375  0.1102
11317W        W28841   4.843   6.530  13.667  0.0136 -0.0550 -0.0118
11318W        W28842  16.137   9.435   1.710 -0.0188  0.1576  0.0991
11319W        W28843   0.922  12.232   3.819 -0.1098 -0.0199  0.3525
11320W        W28844   3.265  15.495   1.147  0.2661  0.1849  0.0146
11321W        W28845   6.422  11.929  15.060 -0.0567  0.0359  0.2050
11322W        W28846   5.259  15.748   5.287  0.1587  0.0318 -0.0456
11323W        W28847   3.198  11.436   0.791  0.0406 -0.1520 -0.1597
11324W        W28848   4.267   9.282  15.179  0.3142 -0.3529  0.1018
11325W        W28849  15.103  17.052   2.481 -0.0708  0.2750 -0.2162
11326W        W28850  17.424  13.875   0.281 -0.0273 -0.0960 -0.2392
11327W        W28851  10.942  12.843  15.696 -0.1791  0.3708 -0.3479
11328W        W28852  12.259  15.175   3.361 -0.3440 -0.2230  0.0957
11329W        W28853  12.450  15.152  13.289 -0.0358 -0.2805 -0.0662
11330W        W28854  11.793   3.398  11.373  0.0583  0.2519  0.0509
11331W        W28855   6.345  13.392  15.868  0.0551 -0.1191 -0.0163
11332W        W28856   6.624   2.870  11.548  0.1625 -0.0553  0.2076
11333W        W28857  16.836   3.763   5.443  0.0375 -0.0714 -0.0684
11334W        W28858  12.859   4.613   2.552  0.0186  0.0841 -0.0953
11335W        W28859   8.275  12.412   0.557 -0.0201  0.2862 -0.0514
11336W        W28860   0.322  15.796  13.130  0.2415  0.0792  0.2458
11337W        W28861   5.085  10.057  13.583 -0.0560 -0.0297 -0.2214
11338W        W28862   5.849  17.320   4.118 -0.2185 -0.0090  0.0656
11339W        W28863   1.870  12.324   2.720  0.1260 -0.2172 -0.0931
11340W        W28864   7.420   6.508   1.430 -0.0673  0.2009 -0.4044
11341W        W28865  16.221  10.305   1.987 -0.3645  0.0857  0.0367
11342W        W28866   0.753   4.549  11.659 -0.2335 -0.0085  0.2393
11343W        W28867   0.778  16.178  13.964 -0.4857  0.0167  0.1521
11344W        W28868   6.891  10.871   0.186 -0.0718  0.1665  0.0310
11345W        W28869  17.931  13.101   1.406 -0.0038 -0.2730  0.2609
11346W        W28870   3.575   6.656   4.799  0.1258 -0.2328 -0.0507
11347W        W28871   0.309   3.498  13.417  0.0555  0.2278  0.2190
11348W        W28872   9.644  14.424   3.019 -0.0764 -0.0351  0.1964
11349W        W28873  10.116  13.500   4.691 -0.0286 -0.2780 -0.0359
11350W        W28874   3.221   2.842  16.239 -0.2044 -0.2688  0.0802
11351W        W28875  12.966   6.794  11.638  0.1006 -0.0486 -0.0078
11352W        W28876   3.948   0.380  10.619  0.1607  0.1188  0.1203
11353W        W28877   9.266   2.786  13.014  0.0418 -0.0192 -0.1798
11354W        W28878   8.013   2.588  11.220  0.3251  0.2364 -0.0996
11355W        W28879  16.343   8.667  15.530 -0.1848  0.2869 -0.4703
11356W        W28880   3.475  11.398   1.216 -0.0214 -0.3031 -0.1038
11357W        W28881   0.418  17.558   3.715  0.1354 -0.1546 -0.0239
11358W        W28882   7.207  14.001   5.541 -0.2474  0.0486  0.1710
11359W        W28883  16.360   0.611   3.120 -0.0250  0.3172  0.2767
11360W        W28884   1.103   9.088   2.990 -0.0336  0.1914 -0.2007
11361W        W28885   0.828   2.830  16.209  0.1336  0.3711 -0.2971
11362W        W28886   6.280   9.469   3.882  0.1126  0.1485  0.1879
11363W        W28887   8.474   1.295   4.200  0.4364  0.1215  0.2448
11364W        W28888  10.669   0.277  13.318  0.0232  0.0622 -0.0858
11365W        W28889   8.498   2.998   0.126 -0.0572  0.2321  0.0101
11366W        W28890   5.660   9.378   5.660 -0.0151 -0.0009  0.4030
11367W        W28891   7.292   3.658  15.522  0.2113 -0.1669 -0.2767
11368W        W28892  14.420  13.666   0.431  0.0332 -0.1825  0.0209
11369W        W28893  15.376   7.955  15.288 -0.2002 -0.2003  0.3898
11370W        W28894   2.147   6.877   5.300  0.0556  0.0937  0.0024
11371W        W28895   8.380  14.005  15.155 -0.2515 -0.0050  0.0075
11372W        W28896   2.313  15.173  14.429  0.0762  0.2132 -0.2438
11373W        W28897  13.332  16.624  14.346 -0.0906 -0.0185  0.0930
11374W        W28898   1.663   6.816   1.000  0.1836  0.2443 -0.1880
11375W        W28899  15.801   2.640  14.376  0.2499  0.0649  0.0106
11376W        W28900  14.083  16.900  12.340  0.0289  0.2013  0.0117
11377W        W28901  11.195  16.286   0.472 -0.0420  0.2284  0.0414
11378W        W28902  13.822   4.862  14.623 -0.0413 -0.0887 -0.2580
11379W        W28903   0.779   1.198  12.455 -0.3551 -0.3990  0.0084
11380W        W28904   1.222   8.020  12.057  0.1968  0.0213  0.0422
11381W        W28905   5.656  15.007  16.171  0.0876 -0.0050 -0.1436
11382W        W28906   2.542   3.106  12.407 -0.1943 -0.0691  0.3981
11383W        W28907   0.660   1.594  13.998  0.0142  0.3280 -0.0661
11384W        W28908   3.663  12.399   2.186 -0.0451  0.0448 -0.1674
11385W        W28909   9.729   8.714   1.738  0.0713  0.1082  0.1778
11386W        W28910   8.922   1.739  13.095 -0.2734  0.0578 -0.4999
11387W        W28911  14.359  17.129   3.564  0.1691  0.0719 -0.0674
11388W        W28912  14.758   3.370   4.537  0.0580 -0.1187 -0.1143
11389W        W28913   1.451   0.568  12.899  0.1876  0.0759 -0.2530
11390W        W28914   7.093  11.938   2.077  0.0569 -0.0978  0.0553
11391W        W28915  16.862  16.306   0.572 -0.3357  0.1774  0.0358
11392W        W28916  14.312  12.919   4.946 -0.1588  0.2307  0.0709
11393W        W28917  12.782   0.685   0.641  0.1059  0.0215 -0.0286
11394W        W28918  11.422  10.895  13.936 -0.0671 -0.1151  0.1075
11395W        W28919   8.383  12.038   1.906  0.1063 -0.1789  0.2954
11396W        W28920  11.103   0.280  14.057 -0.4707 -0.1587  0.1744
11397W        W28921   5.551   3.243  13.291 -0.2173 -0.0625 -0.0561
11398W        W28922   4.002  13.097  14.092  0.2098 -0.3185  0.1149
11399W        W28923   8.547   6.152   4.653 -0.0454 -0.2255  0.0931
11400W        W28924  15.691  15.776  13.212  0.1325  0.0317 -0.1910
11401W        W28925  11.603   0.007  11.366  0.0751 -0.1586  0.4600
11402W        W28926   8.554   2.997  14.821  0.0959  0.0322 -0.0761
11403W        W28927   7.154   7.560   3.431 -0.2355  0.1484 -0.1125
11404W        W28928  16.647   8.759   3.572 -0.0310  0.2046  0.0128
11405W        W28929   2.192   3.573   4.076  0.1405 -0.1028 -0.1256
11406W        W28930  12.574   7.363   2.006 -0.0505 -0.0545  0.1762
11407W        W28931  11.974  13.057   0.798  0.4813 -0.3248  0.0529
11408W        W28932   9.809   1.243  11.967 -0.3080 -0.1485 -0.1978
11409W        W28933   5.988  16.384  15.635 -0.0679  0.0153  0.0343
11410W        W28934  10.449   4.502  16.236 -0.2567 -0.3776 -0.2992
11411W        W28935   0.482   5.344  16.142 -0.1798 -0.0135 -0.3656
11412W        W28936   0.450   1.672   3.434  0.4059 -0.0258 -0.2206
11413W        W28937  12.354  14.139   1.460 -0.0367  0.0252 -0.2008
11414W        W28938   0.967   9.319   0.635  0.2410  0.1270 -0.1217
11415W        W28939   2.341   6.669   5.996 -0.1210  0.2113  0.0798
11416W        W28940   7.566   9.797  12.254  0.0218  0.1718 -0.1444
11417W        W28941   9.560  10.001  10.903  0.1161  0.0351 -0.1368
11418W        W28942   9.258  10.573  16.018  0.2232 -0.0126 -0.0286
11419W        W28943   8.501   4.595  14.367 -0.2009  0.1467  0.2502
11420W        W28944  10.646   8.051   0.852  0.0085 -0.3311 -0.0835
11421W        W28945   6.820  11.132  10.765 -0.1180  0.0437  0.1622
11422W        W28946   9.509   3.783   2.832  0.0286  0.0815  0.3553
11423W        W28947   8.396   8.525  12.434 -0.0833 -0.0876  0.1458
11424W        W28948   9.247  15.496  13.251  0.0974  0.3256  0.1241
11425W        W28949   5.391  12.946  13.595  0.1264 -0.2533 -0.1719
11426W        W28950  15.426   8.193  14.848 -0.0125  0.1336 -0.3018
11427W        W28951   5.812  16.093  12.755  0.0404 -0.0082 -0.1319
11428W        W28952   4.187  10.192  13.734 -0.0277  0.1821  0.3648
11429W        W28953  10.152   5.385  15.281  0.2950 -0.0265 -0.1772
11430W        W28954   2.658  10.799  15.172 -0.1434  0.2502  0.0608
11431W        W28955   7.721   7.399  10.432  0.1377 -0.3168 -0.0248
11432W        W28956   4.132  17.022   4.956 -0.0938 -0.0950  0.1240
11433W        W28957   7.951   6.918  12.679 -0.2412  0.0429 -0.1167
11434W        W28958  10.832  10.803  12.408 -0.2332  0.3176 -0.2915
11435W        W28959  16.252  10.863   0.460 -0.3002  0.0211  0.0743
11436W        W28960  11.708   9.936   2.612  0.0570 -0.3174 -0.1210
11437W        W28961   2.220  10.421   4.774 -0.1115  0.0383  0.0387
11438W        W28962   6.109   1.627   1.293 -0.3190 -0.0975  0.0869
11439W        W28963   9.528   3.938  11.181  0.2845 -0.1562 -0.2811
11440W        W28964  11.684   3.704   1.578  0.1334 -0.1055  0.0764
11441W        W28965   9.810  13.062  13.335  0.2221 -0.1725  0.0637
11442W        W28966   8.604   4.906  13.370  0.2198  0.0020 -0.4318
11443W        W28967  15.912  11.538   3.175 -0.3782  0.0128  0.2656
11444W        W28968   2.817  13.149   3.708  0.0859 -0.1398  0.1283
11445W        W28969  16.913   1.700  12.024  0.4544 -0.1602 -0.0234
11446W        W28970   2.214  16.854   0.202  0.1455 -0.1283  0.1296
11447W        W28971   2.768  15.011   2.538  0.1005  0.0321  0.3202
11448W        W28972   7.208   4.066   1.293  0.0249  0.3341 -0.2724
11449W        W28973  14.227  11.359  13.795 -0.0223  0.0524 -0.1518
11450W        W28974   5.743  12.053  11.442 -0.3170  0.4313  0.0347
11451W        W28975  12.111   7.320  12.413  0.0050 -0.1217 -0.0005
11452W        W28976   9.327  15.167  12.303  0.0536  0.0537  0.1604
11453W        W28977  13.848  16.526   4.121 -0.0101 -0.1385  0.0663
11454W        W28978  17.055  16.373  10.879 -0.2271  0.0554 -0.2612
11455W        W28979  16.480  15.301  12.293  0.0623 -0.0992  0.0142
11456W        W28980   3.699  11.154   0.202 -0.1302 -0.1434  0.2367
11457W        W28981   2.538   5.716   6.295  0.0840 -0.2765 -0.3393
11458W        W28982   9.136  15.326   1.217 -0.1354 -0.1446  0.1093
11459W        W28983  13.202  15.970   4.404 -0.1700 -0.3065  0.0830
11460W        W28984   7.499  16.367  10.451 -0.0655 -0.0632 -0.0081
11461W        W28985   5.081   4.494   3.144  0.2125 -0.2206 -0.2244
11462W        W28986   2.764  16.147  13.654 -0.3030  0.2316 -0.2612
11463W        W28987  17.798   3.628  12.935  0.1452 -0.1474 -0.2344
11464W        W28988  17.548  14.120  12.999 -0.0408 -0.0115  0.2452
11465W        W28989  12.363   8.072  14.318 -0.1554  0.1672 -0.0036
11466W        W28990  15.941  13.747   3.860  0.2663 -0.0910  0.3638
11467W        W28991   3.170   1.926  16.145  0.1067 -0.1152 -0.0860
11468W        W28992   3.645  13.309  12.907 -0.0895 -0.2178  0.1258
11469W        W28993   1.132  13.792   3.899 -0.1174 -0.1131 -0.0126
11470W        W28994   0.454   2.248   1.409 -0.1665  0.0666 -0.2469
11471W        W28995   4.633   4.806  14.717  0.0594  0.1258  0.1014
11472W        W28996  13.330   3.103   2.793  0.1245 -0.0508  0.0218
11473W        W28997   6.251  10.792   4.784 -0.3292  0.2619 -0.2540
11474W        W28998  14.327   9.255   5.089 -0.1498 -0.3215  0.0201
11475W        W28999   8.007  14.969  12.371  0.1704  0.4144 -0.1475
11476W        W29000   8.298  13.502  14.803  0.2383 -0.1303  0.0405
11477W        W29001   7.163   1.611  15.529 -0.4472  0.0350  0.1331
11478W        W29002  16.191  10.710  10.670  0.2405  0.0765  0.1169
11479W        W29003  11.394   4.711   2.573 -0.0464 -0.0794  0.0614
11480W        W29004  15.420   9.688   0.881 -0.0666 -0.1289 -0.1583
11481W        W29005   7.690  16.881  16.175  0.1568 -0.0546  0.2691
11482W        W29006   4.913  14.777  13.294  0.0185 -0.1715 -0.0520
11483W        W29007   3.378  14.938   1.213  0.1177 -0.0199  0.1386
11484W        W29008  11.351   2.409  15.232  0.0410 -0.0949 -0.0143
11485W        W29009  16.644  11.906   1.996 -0.0303 -0.3013 -0.0290
11486W        W29010   7.142   3.802   3.674  0.1708 -0.0689  0.1185
11487W        W29011  10.151   7.787  12.548  0.1681  0.2187 -0.1039
11488W        W29012   4.648   9.028   3.715 -0.0831 -0.0426 -0.2412
11489W        W29013  17.907  14.273  15.755  0.0409 -0.0159  0.1663
11490W        W29014   7.122  16.526  14.263 -0.3376 -0.1884 -0.1692
11491W        W29015  10.007   2.518  13.478  0.0848 -0.0794 -0.1366
11492W        W29016  10.939   0.776  11.819 -0.2313 -0.2295 -0.2192
11493W        W29017   7.072   6.586  12.583  0.0389 -0.1660  0.3513
11494W        W29018  13.582   1.963  10.844 -0.1573 -0.0188  0.1115
11495W        W29019   4.143   4.243  12.861  0.0358  0.0063 -0.1764
11496W        W29020  13.749  12.485   0.796  0.1053 -0.0274 -0.0180
11497W        W29021   8.922   7.080   0.475  0.1150  0.1410  0.1013
11498W        W29022   2.148   0.606   6.028 -0.0786 -0.1535  0.1581
11499W        W29023  16.701   4.261  12.778 -0.1349  0.0223  0.1904
11500W        W29024  10.697  16.734   3.755 -0.2222 -0.1149  0.1477
11501W        W29025   2.798   1.324   1.417 -0.0938 -0.1646 -0.0487
11502W        W29026  15.721  15.282   3.817  0.0341 -0.2255 -0.0791
11503W        W29027   1.034  17.767  11.512  0.1113 -0.0320  0.1892
11504W        W29028   0.622   3.347   2.613 -0.1991  0.1239 -0.1539
11505W        W29029   7.103   0.293   1.119 -0.0434  0.0603 -0.2268
11506W        W29030   5.933   9.476   5.158  0.0346  0.2347 -0.0993
11507W        W29031  11.713   6.124   4.431  0.0915  0.1816  0.0178
11508W        W29032  13.997  12.248   1.211  0.0351 -0.2061 -0.0344
11509W        W29033   9.964   8.297  13.902  0.2702  0.4026  0.2799
11510W        W29034  12.634   7.682   3.468  0.0673 -0.0750  0.0897
11511W        W29035  17.699   3.644  14.128 -0.0651 -0.2778 -0.3228
11512W        W29036   6.193   0.607   3.238  0.1793  0.0614  0.1960
11513W        W29037   7.780   8.440  14.187  0.1061  0.1122  0.1357
11514W        W29038   9.017  15.662   2.051  0.2951 -0.0949  0.0231
11515W        W29039   6.748  15.534  12.253 -0.0570  0.0755 -0.0770
11516W        W29040  13.284  11.565  14.210  0.0758 -0.2655  0.1095
11517W        W29041   1.975  17.449   3.752  0.1383 -0.4709 -0.0818
11518W        W29042   5.455  10.179  13.908 -0.1753 -0.2188 -0.0825
11519W        W29043   6.385   1.725  15.895  0.0738  0.0416 -0.1972
11520W        W29044   2.043   8.166  16.120  0.0400  0.0516  0.2087
11521W        W29045  16.796  11.379   5.500  0.0284  0.0418  0.0655
11522W        W29046  10.211   2.046  13.591  0.2070  0.0689  0.1108
11523W        W29047   3.678  10.545  15.526 -0.0305  0.0563 -0.2003
11524W        W29048  13.687  11.542   0.637 -0.1715  0.2341 -0.3226
11525W        W29049  15.004  17.336   1.668 -0.3931  0.0664 -0.0455
11526W        W29050  15.839   1.553   1.994  0.4267  0.1067 -0.0322
11527W        W29051  12.280   1.476  13.379  0.1820 -0.1484  0.1508
11528W        W29052  17.687   2.988   4.469  0.0730  0.1175 -0.0228
11529W        W29053   1.867  11.413   4.176 -0.0854  0.0367 -0.0805
11530W        W29054   9.007  13.644   3.287  0.1888  0.3741  0.0641
11531W        W29055  10.631   0.768   2.033  0.1890  0.2236  0.1844
11532W        W29056  16.088  10.659   1.580  0.2555  0.3604 -0.0382
11533W        W29057  16.077   9.575   0.305 -0.1947 -0.5355  0.1372
11534W        W29058  10.455   6.730  11.975  0.3112  0.2167 -0.2410
11535W        W29059   7.378  17.672   0.390  0.3445 -0.1467 -0.1095
11536W        W29060  14.812  12.010   1.706  0.0189 -0.0585 -0.3069
11537W        W29061  15.813  16.760  15.286  0.0937  0.0817  0.0164
11538W        W29062   6.738  14.785  12.993  0.1539  0.1267 -0.0767
11539W        W29063  17.811  10.757   2.050 -0.1072  0.1612 -0.0022
11540W        W29064   1.274  10.166   2.520  0.1259  0.0087  0.1707
11541W        W29065   8.484  10.457  14.665 -0.2705 -0.0658 -0.0548
11542W        W29066  14.786   3.891   4.377 -0.1207  0.1135 -0.0474
11543W        W29067   4.488  15.475   1.928 -0.1005 -0.0551 -0.1632
11544W        W29068   1.694  17.490   2.816  0.0301  0.2471  0.1268
11545W        W29069  10.439   6.795   3.287  0.0210 -0.3524 -0.1117
11546W        W29070  16.542   9.448  15.380  0.1053 -0.0547 -0.1531
11547W        W29071  16.505   6.749   4.354 -0.2246 -0.2088  0.0125
11548W        W29072  15.881   9.645   3.545  0.2714  0.0291  0.0786
11549W        W29073   0.890   8.467  15.598  0.1409 -0.3405 -0.1557
11550W        W29074   7.057   5.228  11.877  0.2242 -0.1496  0.1094
11551W        W29075   9.991   8.262   0.293  0.2669  0.0391 -0.0724
11552W        W29076  17.567  15.413  15.054 -0.1031 -0.1028 -0.1137
11553W        W29077   1.056   8.754  14.019 -0.0566 -0.2487  0.0172
11554W        W29078  15.716   8.040  11.421 -0.0978 -0.0981 -0.2935
11555W        W29079   5.986  12.583  11.262 -0.4238 -0.2594 -0.2792
11556W        W29080   6.337   6.208   0.654  0.1228 -0.0227 -0.2602
11557W        W29081   8.850  13.557   2.788 -0.1539 -0.2467  0.0359
11558W        W29082  16.972   2.572   3.022 -0.4403  0.1007  0.1049
11559W        W29083   2.258  17.074   0.685 -0.2182  0.1066  0.1501
11560W        W29084   3.843  12.766  15.492 -0.1664  0.1568  0.3299
11561W        W29085  11.571  14.697   3.525  0.3067  0.0643 -0.3294
11562W        W29086   0.076  17.856   4.926 -0.0691  0.0537 -0.3511
11563W        W29087   4.951   1.765  15.470 -0.2078 -0.1245  0.1983
11564W        W29088   3.785   7.159   0.642 -0.0490  0.0468  0.1035
11565W        W29089  15.433  14.870  11.675  0.1796  0.0240 -0.1315
11566W        W29090  10.628  17.560   1.154 -0.0446 -0.1898  0.5563
11567W        W29091  15.008   5.464  12.727 -0.1280  0.2217  0.0753
11568W        W29092  13.376   9.685  12.849  0.1425 -0.2662  0.1438
11569W        W29093   8.736  12.143   2.209  0.2319  0.0510  0.4113
11570W        W29094   8.317  17.095  14.642 -0.3574 -0.2341 -0.1881
11571W        W29095  13.853  15.478   1.227  0.0529 -0.0321 -0.1320
11572W        W29096  12.355   3.254   0.283 -0.2761  0.0717  0.3205
11573W        W29097   8.182  15.230   0.198  0.0936  0.2294  0.0936
11574W        W29098  10.514   9.290   2.820 -0.2560  0.0430  0.1176
11575W        W29099   6.807   5.774  10.967 -0.2852 -0.1933 -0.0685
11576W        W29100  15.003   3.122   3.354  0.2431  0.2908  0.0511
11577W        W29101   9.593  10.242   3.651 -0.2016 -0.0638  0.0641
11578W        W29102   5.893   4.726  14.860  0.1227 -0.1453  0.0413
11579W        W29103   0.037  14.072  14.610  0.1021 -0.2464 -0.0233
11580W        W29104   3.812  11.159   2.964  0.1123 -0.3552 -0.2334
11581W        W29105   1.280   9.423  15.569 -0.2264 -0.0923 -0.0105
11582W        W29106   3.017   2.458  13.642  0.0027  0.0190  0.1578
11583W        W29107   0.950   7.655  11.477 -0.0815  0.0883 -0.0464
11584W        W29108   0.328   8.178   0.537  0.1520 -0.1774 -0.1465
11585W        W29109   8.349  12.982  14.829  0.1499 -0.2813  0.0598
11586W        W29110  14.589  16.908  10.255 -0.1211 -0.1133  0.2686
11587W        W29111   4.926  13.602   4.411  0.0415 -0.0079  0.4990
11588W        W29112   1.889   3.353   2.588  0.0949  0.0050 -0.1708
11589W        W29113   2.788   8.493   5.642 -0.2913  0.2259 -0.1772
11590W        W29114   4.229   8.564   1.082  0.0719 -0.1202  0.0898
11591W        W29115   6.558   9.128   2.072  0.0392  0.1132  0.0992
11592W        W29116  15.873  12.033   1.477  0.0665  0.1894  0.0571
11593W        W29117  13.167  14.885  14.768  0.0552 -0.0089  0.1251
11594W        W29118  12.296   2.650  14.903  0.0775 -0.0179 -0.1359
11595W        W29119   7.826   9.127  16.035 -0.2185 -0.1632  0.1852
11596W        W29120   7.603  14.892   0.840 -0.0303 -0.1266 -0.0258
11597W        W29121   4.204   5.314  11.772 -0.0646 -0.2331 -0.1721
11598W        W29122   3.972  14.469  14.846 -0.0486  0.2717 -0.2829
11599W        W29123  10.439   6.300   3.316  0.1302 -0.0336 -0.3372
11600W        W29124   2.115  10.378   3.121 -0.2769 -0.0749  0.1054
11601W        W29125   9.145  10.764  12.003 -0.3030 -0.4595  0.0700
11602W        W29126   4.806  11.991  11.956  0.0436  0.1652  0.1756
11603W        W29127  17.678   6.921  11.805  0.1223  0.2377 -0.1649
11604W        W29128   4.511   7.075   4.655  0.0365  0.3852 -0.0175
11605W        W29129   6.831  12.570   2.964 -0.1759  0.0913 -0.1584
11606W        W29130  17.434   8.239  13.052 -0.1388 -0.0327 -0.2851
11607W        W29131   3.513  16.869  13.520 -0.2147 -0.1287  0.1608
11608W        W29132   6.598   7.223  11.428 -0.1501  0.2809 -0.0310
11609W        W29133  12.255   5.565  12.378  0.1293 -0.0788 -0.2262
11610W        W29134   3.638   9.156   1.107  0.3143 -0.1574 -0.1074
11611W        W29135  14.546  12.331   2.021 -0.0597  0.1577  0.2406
11612W        W29136  11.494   4.422   4.065 -0.2278 -0.1562 -0.0446
11613W        W29137  17.600   5.927   4.714 -0.0270 -0.0094 -0.0513
11614W        W29138   5.712  16.444   0.319  0.1188  0.1927 -0.0297
11615W        W29139  10.010   2.756  14.195 -0.2054 -0.2647  0.1193
11616W        W29140  12.563   9.052  13.144 -0.0366 -0.2833 -0.0104
11617W        W29141  10.031  13.672  15.139 -0.1414 -0.5360 -0.2371
11618W        W29142   0.262  17.429   2.004 -0.0234  0.2718 -0.3123
11619W        W29143  17.855  16.061  15.504 -0.1198  0.1298  0.0710
11620W        W29144   6.942  12.130   4.535 -0.1192 -0.2426 -0.1121
11621W        W29145   6.406   6.796   0.322  0.0351 -0.1955  0.1668
11622W        W29146   5.983   5.920   1.772 -0.1928 -0.2360 -0.1169
11623W        W29147   9.704  16.211   0.551 -0.0920  0.2623  0.0525
11624W        W29148   3.015  11.375   2.174 -0.1470  0.0592  0.0549
11625W        W29149  17.483   2.649   3.135  0.3562 -0.0279  0.1687
11626W        W29150   5.464  10.194  10.600  0.0600 -0.1166 -0.0342
11627W        W29151  17.498   0.818  11.927  0.1566 -0.0582  0.0636
11628W        W29152   8.081  11.353  13.733 -0.0156  0.0006  0.1519
11629W        W29153   8.736  16.840   3.914  0.1224  0.0573 -0.0399
11630W        W29154   2.359   1.554   3.596  0.1131  0.0966  0.1166
11631W        W29155  12.864   3.366   2.587 -0.0203  0.0322  0.1540
11632W        W29156  12.161  13.507  12.988  0.0840 -0.0219 -0.1827
11633W        W29157   8.293   0.678   1.078 -0.1890 -0.0732  0.0348
11634W        W29158  11.183   7.898   4.310 -0.0992 -0.0171  0.3111
11635W        W29159  15.394  16.670   3.009 -0.0234 -0.0006  0.0121
11636W        W29160   0.961   4.253  14.619  0.0300 -0.1740  0.2596
11637W        W29161  14.581  12.334   1.197  0.0912 -0.3035  0.0654
11638W        W29162   3.371   6.572  12.820  0.0550 -0.3882  0.0439
11639W        W29163   7.530   1.420  13.472  0.4091  0.2348  0.0570
11640W        W29164   1.441   8.125   3.105 -0.0679  0.0917  0.0841
11641W        W29165   5.738   1.097   0.045 -0.2349  0.0563  0.1560
11642W        W29166   9.632   7.251   5.834 -0.0531 -0.2757 -0.0510
11643W        W29167   3.758   7.403   2.719  0.2401  0.1655 -0.1566
11644W        W29168   2.638   2.124  13.039 -0.1657  0.1070 -0.0808
11645W        W29169   5.733  12.546   3.102 -0.0714  0.1668  0.0802
11646W        W29170   6.885   5.326  15.640  0.0262 -0.0700 -0.0949
11647W        W29171   0.751   9.307  12.358 -0.0215 -0.1611 -0.2026
11648W        W29172   7.285   6.610  11.794  0.1939  0.0629 -0.0243
11649W        W29173  14.009  10.592   3.806  0.0870 -0.1756  0.2341
11650W        W29174  15.598   1.303  15.521 -0.2431 -0.1844 -0.1177
11651W        W29175  14.801   5.766   2.616  0.0552 -0.0935 -0.0713
11652W        W29176  13.056  16.756  13.495  0.0993  0.2543  0.1519
11653W        W29177   6.542   2.577  15.597  0.3922 -0.2034  0.0084
11654W        W29178  16.930  14.371   3.487  0.0546  0.2488  0.2176
11655W        W29179   0.849  11.680  12.545  0.0079  0.0339  0.2674
11656W        W29180   3.035   6.376   2.493 -0.0139 -0.1680  0.1587
11657W        W29181  13.827   1.583   9.950 -0.2506  0.0080  0.1947
11658W        W29182  17.608   1.484  12.998 -0.4113  0.1396  0.0689
11659W        W29183  14.803   2.383   0.547 -0.2009  0.0192 -0.2033
11660W        W29184   1.490  15.714  11.957  0.2736  0.2279  0.0670
11661W        W29185   5.757   5.657  16.194  0.0894 -0.4794  0.0980
11662W        W29186  16.733  10.262   2.783  0.2421  0.0414  0.0586
11663W        W29187   1.056   0.174  13.013 -0.0349  0.0800 -0.1017
11664W        W29188   4.500   2.781  11.412  0.1493  0.2653  0.0177
11665W        W29189   2.350  15.450  14.044  0.1586 -0.1149  0.0579
11666W        W29190   7.324  10.840  16.148 -0.1355  0.0385 -0.2344
11667W        W29191   8.903   8.551  12.428 -0.1621  0.1046 -0.2161
11668W        W29192   4.681   7.026   0.888  0.0769  0.0918  0.1486
11669W        W29193   1.251  13.654  15.713 -0.1668  0.0052 -0.1328
11670W        W29194  11.847  15.211  16.009  0.1230  0.2756 -0.1956
11671W        W29195  10.623  13.993  12.536  0.0147 -0.4560 -0.2780
11672W        W29196   4.153   9.396  13.226  0.2392  0.1158 -0.0154
11673W        W29197  12.616   4.652  13.307  0.0963  0.0179  0.0588
11674W        W29198   4.612  15.580   4.067 -0.1321  0.4297  0.2991
11675W        W29199   4.928   7.885  11.748 -0.1753 -0.2101  0.1902
11676W        W29200  10.269   3.013   3.326  0.0561 -0.1946 -0.0452
11677W        W29201   0.308  10.880  13.078  0.2941  0.0601 -0.0068
11678W        W29202   7.399  12.561   2.931 -0.0422 -0.0477  0.1882
11679W        W29203  13.376  15.509   2.497 -0.2802  0.0590 -0.0805
11680W        W29204   4.829   0.330  14.555  0.1169  0.1904  0.1384
11681W        W29205  13.588  17.435   4.465 -0.2687  0.4366  0.1997
11682W        W29206  17.378   1.701  12.060  0.4996  0.2740 -0.1476
11683W        W29207   2.754  17.038  15.161 -0.0532 -0.0051  0.1046
11684W        W29208  12.478  11.439   3.034 -0.0261 -0.0995  0.1846
11685W        W29209  14.144  17.246  14.258 -0.0736  0.2007 -0.1407
11686W        W29210  14.573   5.676  11.064  0.0954  0.2176  0.0862
11687W        W29211  14.820   3.076   3.847 -0.1632  0.1984 -0.2736
11688W        W29212  11.911  16.514   4.498 -0.0737 -0.0020  0.0341
11689W        W29213   7.897   5.387  15.673  0.0388 -0.2134 -0.1406
11690W        W29214   8.821   9.851   2.380 -0.1093  0.3458  0.3765
11691W        W29215  17.682   8.358  13.643  0.1105 -0.1603  0.0826
11692W        W29216  14.087   1.409   1.078  0.1784 -0.1625 -0.1541
11693W        W29217  14.254  14.482   5.496 -0.2113  0.1395  0.0556
11694W        W29218  15.409   6.962   1.387  0.2617 -0.3524 -0.4005
11695W        W29219   5.856  12.734   4.626  0.1898  0.2424  0.1868
11696W        W29220   1.864   3.922   2.481 -0.0996 -0.0544  0.1835
11697W        W29221  12.961  12.003   4.589  0.1338 -0.2633 -0.2304
11698W        W29222   8.824   2.020  14.298  0.1111  0.1062  0.0155
11699W        W29223   8.959  13.108  15.652  0.4349 -0.0719  0.0627
11700W        W29224  12.206   3.074  14.378  0.2357 -0.1802 -0.0382
11701W        W29225  11.757  17.101  13.720 -0.4481 -0.1501 -0.0008
11702W        W29226  12.608  15.567   3.829  0.1300 -0.0167  0.1773
11703W        W29227   2.671   9.896  15.782 -0.1657  0.1284 -0.2413
11704W        W29228   3.190  14.124   5.232 -0.0049  0.1635  0.1188
11705W        W29229  17.063  10.311   3.816 -0.1355 -0.0728 -0.0128
11706W        W29230  12.154   4.018   4.589 -0.0073 -0.0893 -0.2212
11707W        W29231  17.231   9.079  14.146 -0.2148 -0.3445  0.0122
11708W        W29232  13.022  13.955   3.157  0.1563 -0.0171 -0.0225
11709W        W29233   6.974  10.393   2.248 -0.2658  0.0624 -0.1068
11710W        W29234   5.390   8.377   4.287  0.3370 -0.1754  0.1505
11711W        W29235   0.572   4.470   3.460  0.2072  0.0918  0.0080
11712W        W29236   4.573  14.587   2.070  0.2448 -0.0815  0.1650
11713W        W29237   5.823   7.241  14.847  0.0312  0.1278 -0.1572
11714W        W29238   3.450   6.327  11.999 -0.0296 -0.0822  0.3216
11715W        W29239   8.539  11.848  11.772  0.1645 -0.0452  0.1027
11716W        W29240  14.789   5.291  11.322 -0.1549  0.2580  0.1482
11717W        W29241  17.543   7.492   3.010 -0.2232  0.2553 -0.0499
11718W        W29242   5.830   7.211   1.696 -0.1548  0.2328  0.1193
11719W        W29243   6.885   5.764   3.384 -0.0084 -0.0513 -0.2063
11720W        W29244   1.022   1.923  13.934 -0.0224  0.0378 -0.1038
11721W        W29245  16.700  15.894  14.186 -0.2199  0.0349  0.1243
11722W        W29246   9.251   4.842   5.212 -0.1269 -0.1177 -0.0375
11723W        W29247   0.613  11.493   4.721 -0.1374  0.0403 -0.0612
11724W        W29248  12.580   7.611  15.508  0.1255 -0.1957 -0.0657
11725W        W29249  13.667  15.520  14.635 -0.2143  0.1462  0.0111
11726W        W29250   1.248  14.359   5.329 -0.1669  0.2519 -0.2310
11727W        W29251   1.448  13.926  13.805 -0.0702  0.1692 -0.0198
11728W        W29252  14.651   8.233   1.796 -0.2207 -0.0761  0.1647
11729W        W29253   9.394   0.850   4.543  0.0892  0.1256 -0.0328
11730W        W29254   9.534   8.066  13.723 -0.1918 -0.0798  0.0711
11731W        W29255   7.975   2.096   4.759 -0.0587  0.1814  0.0558
11732W        W29256  15.420  13.142  13.260  0.3590  0.0015  0.0473
11733W        W29257   9.704  16.481  13.360 -0.0514 -0.0761  0.1377
11734W        W29258   5.034   1.016   0.753 -0.1772  0.0728 -0.1273
11735W        W29259  11.251   2.653   1.012  0.1180 -0.3561 -0.1456
11736W        W29260   7.046   4.576  13.096 -0.2450  0.0989  0.0544
11737W        W29261  10.053   9.172   3.040 -0.1073  0.0259 -0.0209
11738W        W29262   1.197   7.821  13.279 -0.1627 -0.0441  0.2343
11739W        W29263  13.531   0.099  13.375  0.1787  0.1498  0.0870
11740W        W29264  16.094  12.810   2.688  0.2310 -0.2532  0.2877
11741W        W29265  10.077  14.398  15.065 -0.1882 -0.1755 -0.1825
11742W        W29266   0.072  14.645  14.576  0.1240  0.2514  0.2755
11743W        W29267   4.150  15.178  12.073  0.0208  0.3343  0.2928
11744W        W29268  12.742  10.858   0.746  0.0932  0.1833  0.0592
11745W        W29269   8.831   6.190  13.315 -0.3803  0.2477  0.0335
11746W        W29270  11.287  11.575  14.650  0.0331  0.0171  0.2432
11747W        W29271   2.522   5.429   1.031  0.0006 -0.1542 -0.0262
11748W        W29272   4.541  13.968  13.734  0.0683 -0.3193  0.1073
11749W        W29273   8.084   5.190  10.172  0.0041 -0.0314 -0.0044
11750W        W29274   4.547   2.809   4.494  0.0731 -0.0215  0.1429
11751W        W29275   1.475  16.579  14.060  0.1417 -0.2574 -0.0617
11752W        W29276   2.821   3.947   4.685  0.0791 -0.2078  0.2449
11753W        W29277  16.424  15.197  11.788 -0.1148  0.0627  0.0531
11754W        W29278  14.659  13.513  15.580  0.2780  0.1351  0.0428
11755W        W29279  14.696  13.013  15.630  0.1584  0.0187 -0.1666
11756W        W29280  15.110   1.986   4.709  0.0771 -0.0739  0.0182
11757W        W29281   5.241   6.945  14.866  0.5117 -0.0505 -0.3381
11758W        W29282  10.626  11.460  13.940 -0.1077 -0.0112 -0.1201
11759W        W29283   7.866   3.930   1.358 -0.0171  0.1510 -0.1209
11760W        W29284   0.571   5.764   3.446  0.1511 -0.0982 -0.0565
11761W        W29285   3.089  12.661   2.928  0.2362 -0.2750 -0.2785
11762W        W29286   2.040   3.371   1.667 -0.3377  0.2234  0.2708
11763W        W29287   5.347  11.949  12.293  0.0756  0.0390 -0.1075
11764W        W29288   3.454   6.440   1.264 -0.0430  0.0012 -0.1749
11765W        W29289   9.376  17.154   4.255  0.1012  0.2535  0.1948
11766W        W29290   7.205  15.178  12.150  0.1046 -0.3230 -0.1405
11767W        W29291   1.451   5.465  14.037  0.3019  0.1529 -0.0769
11768W        W29292   1.369   3.877   0.054 -0.0451 -0.0928 -0.0717
11769W        W29293   8.919   5.923   2.446  0.0854  0.0326 -0.0762
11770W        W29294   4.183   2.073   0.683  0.2646 -0.1193 -0.2033
11771W        W29295   1.708  15.968   4.602 -0.3110 -0.0761 -0.4057
11772W        W29296  14.685   9.989  14.629 -0.3741 -0.1719  0.0694
11773W        W29297  16.493   3.905   3.638  0.4063  0.1227 -0.0204
11774W        W29298  13.715  14.659  12.429 -0.1837  0.1562  0.1169
11775W        W29299   3.736   0.056   4.538 -0.2573  0.0380 -0.1273
11776W        W29300   7.829   5.159  12.976  0.0286  0.3124  0.2219
11777W        W29301  16.442   2.670  12.695  0.1911  0.1647  0.0209
11778W        W29302   8.429  12.815   0.273  0.1695  0.1246 -0.1170
11779W        W29303   5.658   4.690   1.506 -0.0002 -0.2170  0.0554
11780W        W29304   3.374  17.209   4.207 -0.0753  0.0572  0.0869
11781W        W29305   9.845  12.931   3.181  0.2102  0.0724 -0.1124
11782W        W29306  12.633   6.968   1.682  0.3250 -0.0620  0.0521
11783W        W29307  15.614  11.039   2.314 -0.1096  0.0535 -0.0472
11784W        W29308   4.508   8.093   4.038 -0.1466 -0.1659  0.0649
11785W        W29309  11.721  16.417  15.336  0.0005 -0.1578  0.0110
11786W        W29310   9.833  12.910   2.457 -0.0136 -0.3788 -0.2050
11787W        W29311   4.957   6.866   1.455 -0.0782  0.1274 -0.1916
11788W        W29312  15.106   4.202  14.695 -0.0918 -0.2285  0.2320
11789W        W29313  12.543  16.175   5.631 -0.1136 -0.0271  0.0312
11790W        W29314  12.353  12.329   3.789 -0.0594  0.1174 -0.0204
11791W        W29315  14.148  13.163   3.101 -0.0277  0.3178 -0.3805
11792W        W29316   8.536  17.724  14.229  0.0176 -0.0838 -0.1179
11793W        W29317  11.781  10.085   4.063 -0.3383  0.1856 -0.0811
11794W        W29318   1.384  15.998  15.250  0.1353  0.0836  0.0142
11795W        W29319   9.303  11.322   0.152 -0.0450 -0.3956 -0.0498
11796W        W29320  14.867  17.156   3.681 -0.0878 -0.1722 -0.0445
11797W        W29321   6.658  16.912   4.156  0.3124  0.1520 -0.0899
11798W        W29322  14.780   6.346  15.078 -0.0831 -0.1902  0.0218
11799W        W29323   3.985  11.858  13.662 -0.0161  0.0882 -0.2760
11800W        W29324   6.505   4.340  13.160  0.2047  0.0942 -0.0942
11801W        W29325  13.487  15.095  15.654  0.1737 -0.0322 -0.1221
11802W        W29326   5.370  13.339  16.123  0.0580 -0.1814  0.0326
11803W        W29327  10.895   5.833   5.611  0.1131 -0.1878  0.1591
11804W        W29328   6.116   3.545  12.127  0.1761  0.1704 -0.0744
11805W        W29329   4.768   4.756  12.615 -0.2217 -0.0557 -0.1432
11806W        W29330   2.979   6.862  14.110 -0.1915 -0.0869 -0.2140
11807W        W29331   8.191   3.244  15.247  0.0305 -0.1123  0.2189
11808W        W29332  13.858   5.185  13.114  0.0624  0.0568 -0.0621
11809W        W29333   8.735  11.658   4.368 -0.1461  0.0768  0.2278
11810W        W29334   5.977  11.378  13.152 -0.0056 -0.0131  0.1159
11811W        W29335   8.805  11.528   1.400  0.0931 -0.0414 -0.1708
11812W        W29336   9.869   4.457   2.066 -0.0313 -0.2076  0.0724
11813W        W29337   0.006   6.454  12.829  0.1493  0.0158  0.2192
11814W        W29338   7.268  10.160  12.006  0.1194 -0.1058 -0.0524
11815W        W29339  10.691   0.192  11.279  0.1120  0.0080  0.1969
11816W        W29340   7.641  17.144   1.195  0.2110 -0.0888 -0.2344
11817W        W29341  11.261  15.201   1.773  0.1173  0.1422 -0.0081
11818W        W29342  17.401   8.554   0.986 -0.1888  0.0243 -0.1370
11819W        W29343  12.287   0.783  15.923  0.0821 -0.0895 -0.2555
11820W        W29344   9.426  14.932  15.216  0.4079  0.0698  0.1881
11821W        W29345  17.074  12.489   4.944 -0.1839 -0.0418 -0.3348
11822W        W29346   2.297   5.861  11.994  0.0518  0.2783 -0.1036
11823W        W29347   8.587   1.121  13.636  0.0600 -0.1832  0.1057
11824W        W29348   5.493  10.511   1.519 -0.0581 -0.1459  0.0660
11825W        W29349   4.724   7.572  12.608 -0.2828  0.1994  0.2304
11826W        W29350   2.984   3.503   5.906 -0.2810  0.1177 -0.0312
11827W        W29351  14.808   3.080  15.882 -0.2516 -0.1122 -0.2062
11828W        W29352  14.197   2.137   2.232  0.0226  0.1232  0.0223
11829W        W29353  16.634   0.120  15.785  0.0933  0.1597  0.3750
11830W        W29354  16.931   4.485   2.745 -0.2376 -0.2144  0.0315
11831W        W29355  10.272   6.873  14.292 -0.3657 -0.1559  0.0504
11832W        W29356   4.348  16.106   3.491  0.1030  0.2309  0.2926
11833W        W29357   1.423  15.402  15.889  0.0948 -0.0981  0.1202
11834W        W29358   8.829  10.079  15.577  0.1162 -0.4986 -0.0347
11835W        W29359   7.159  13.543   2.597 -0.1042 -0.0723  0.0507
11836W        W29360  17.869   9.676   1.568 -0.2460 -0.0121 -0.2657
11837W        W29361   1.467  17.649   5.118  0.0608 -0.3027 -0.0569
11838W        W29362  17.805   9.281  11.942 -0.0445 -0.0469  0.1079
11839W        W29363  12.063   2.732   3.078 -0.0862  0.5765 -0.3146
11840W        W29364  17.112   5.387  13.460 -0.2534 -0.0547  0.2835
11841W        W29365  12.590   6.468   4.348  0.1036 -0.1959 -0.2955
11842W        W29366   4.539  10.872   4.475  0.0149  0.1566 -0.0960
11843W        W29367   7.850  16.320   3.230  0.0015 -0.0267 -0.0324
11844W        W29368  11.254   8.992  14.432 -0.0486  0.0369 -0.3220
11845W        W29369  12.981  16.189   2.778 -0.0816 -0.0722 -0.1738
11846W        W29370   9.894   8.161  12.181 -0.0603 -0.0708  0.1191
11847W        W29371   3.124   3.153   0.378  0.0682 -0.4239  0.0457
11848W        W29372   0.145   7.594   3.740 -0.2450  0.0649  0.2114
11849W        W29373  11.281   3.849   1.820 -0.0278 -0.0635  0.1995
11850W        W29374   3.993   7.648  12.193 -0.1206  0.1300  0.4411
11851W        W29375   4.552  15.002  13.623  0.0601  0.2851 -0.1853
11852W        W29376  17.618  12.059  12.380 -0.0924 -0.1605 -0.1747
11853W        W29377   6.712   5.345  15.193 -0.0208  0.1007  0.0143
11854W        W29378   8.713   9.641   5.107  0.2052  0.2203  0.0491
11855W        W29379   6.662   6.948   2.366 -0.1730 -0.0871  0.0502
11856W        W29380   3.720   7.827   1.336  0.0317  0.2096 -0.0494
11857W        W29381   8.550   0.719   0.142 -0.1580 -0.0255 -0.2127
11858W        W29382  15.465   1.597  12.490  0.0707 -0.1513 -0.1205
11859W        W29383   1.382   7.935  11.546  0.0576  0.0714 -0.0385
11860W        W29384   3.229  13.247  14.662  0.2707  0.1566 -0.0304
11861W        W29385   0.215  16.561   2.159 -0.1187  0.1433 -0.0581
11862W        W29386  11.033  16.132  12.776  0.1999  0.0947  0.0345
11863W        W29387   7.197   7.477  11.965  0.1551  0.1208  0.2949
11864W        W29388  15.677  16.225   1.392 -0.0903 -0.3342 -0.5339
11865W        W29389   3.465   2.256  15.378  0.0395 -0.3464 -0.1453
11866W        W29390  11.136   7.692   2.478  0.0639  0.0606 -0.0343
11867W        W29391  17.481  12.389   1.419  0.1057  0.0039  0.1788
11868W        W29392   9.130  12.512   1.971 -0.0349 -0.0793  0.2414
11869W        W29393   3.532  14.407   0.566 -0.2584 -0.1557 -0.1501
11870W        W29394  10.432   3.596  13.204  0.0546  0.1475 -0.1794
11871W        W29395   6.781   5.548   2.041 -0.2634  0.0611 -0.0471
11872W        W29396   6.880  12.245  14.989 -0.1116  0.0511  0.0587
11873W        W29397  14.249  11.180  11.470 -0.0030  0.0546  0.2198
11874W        W29398   4.854  12.234  13.119  0.0918  0.0810  0.4490
11875W        W29399  10.214   3.031  14.605  0.0729 -0.0581 -0.0293
11876W        W29400  12.646  10.166   1.604 -0.2496 -0.2174 -0.0169
11877W        W29401   6.373  14.550  13.447  0.4976 -0.0493  0.3182
11878W        W29402   3.502  12.430  12.882  0.2803  0.0191  0.3572
11879W        W29403   1.911  15.736   4.987 -0.0858 -0.3644  0.0905
11880W        W29404  11.951   8.118   0.926  0.0227 -0.0003 -0.0013
11881W        W29405  12.146  17.812   4.173  0.2266 -0.0470 -0.0873
11882W        W29406   1.773  15.283  13.581 -0.2328  0.2171  0.1546
11883W        W29407   6.259   0.447  15.801 -0.3466 -0.1073  0.0996
11884W        W29408   4.376   8.624   3.885 -0.1064 -0.1217  0.1096
11885W        W29409  11.677  11.638  15.678  0.1731 -0.0247 -0.2048
11886W        W29410   5.612   8.321  14.664 -0.3205 -0.1816 -0.0280
11887W        W29411   2.719   5.881  13.167 -0.0689  0.2406  0.1528
11888W        W29412   2.300  10.724   5.195 -0.0609  0.0352 -0.0590
11889W        W29413   1.849  15.633  12.339 -0.2024 -0.1525  0.1815
11890W        W29414   0.768   1.265   3.358 -0.1486 -0.0658 -0.1194
11891W        W29415   1.716  14.266  14.691  0.0002 -0.0356 -0.1290
11892W        W29416  10.911   4.755   4.613 -0.0926 -0.1333  0.1221
11893W        W29417   1.955  17.211  13.519  0.0446  0.0249  0.1005
11894W        W29418   3.490   5.811  16.085  0.1424 -0.2733 -0.0061
11895W        W29419   9.194   8.241  15.280  0.0126 -0.2391 -0.1741
11896W        W29420  11.232   1.217  13.412  0.1742  0.3142  0.0106
11897W        W29421   2.590   0.632   4.745  0.0255  0.3792 -0.2423
11898W        W29422   3.412   5.507   1.236 -0.0206  0.0439 -0.3357
11899W        W29423   9.641   1.580   4.409  0.1716 -0.4790  0.0867
11900W        W29424   5.747  17.578   1.364  0.0148 -0.0299 -0.2802
11901W        W29425  13.240  14.898  12.528 -0.2201 -0.2312 -0.0468
11902W        W29426   3.978  17.126  14.727 -0.2669  0.4311 -0.1892
11903W        W29427   7.541  10.922   3.064 -0.2327  0.0490 -0.1452
11904W        W29428  15.571   2.442  15.195  0.0900 -0.1213 -0.1483
11905W        W29429  10.208  17.901  13.988  0.1222 -0.0551  0.0815
11906W        W29430  12.335  11.093  10.559 -0.0504  0.0623  0.2388
11907W        W29431   1.240  13.802   2.408  0.0354 -0.1572 -0.2747
11908W        W29432   2.838  14.321   1.774  0.0406  0.2058 -0.0216
11909W        W29433  16.748  10.951  11.903  0.0618 -0.1220  0.0617
11910W        W29434   0.557  15.218   0.010 -0.1789 -0.0610  0.0395
11911W        W29435  11.797  15.544   2.566 -0.3106  0.0576  0.3611
11912W        W29436   2.073   9.689   1.460  0.1661 -0.1937  0.0394
11913W        W29437   0.908  10.303   1.727  0.1056  0.1934 -0.0166
11914W        W29438   4.725  16.775  11.885  0.0547 -0.1627  0.2174
11915W        W29439  12.664   7.801   4.915  0.1601  0.0127 -0.0331
11916W        W29440   8.085  15.937  11.785  0.0037 -0.2414 -0.2660
11917W        W29441  13.692   1.881   4.950  0.1892  0.0834  0.2436
11918W        W29442  13.005  16.195   5.353 -0.0612  0.1555 -0.0903
11919W        W29443   1.764  17.047  10.486  0.0078 -0.0287 -0.2815
11920W        W29444   9.178   4.989   0.847 -0.0103 -0.1413  0.2304
11921W        W29445  12.155   3.408  14.787  0.1427  0.0988  0.3333
11922W        W29446   7.593   6.546   1.924  0.0824 -0.0613  0.0912
11923W        W29447   5.090   8.433  11.386 -0.0649  0.1689 -0.1547
11924W        W29448   5.310   2.251   3.934 -0.1383  0.2133  0.0493
11925W        W29449   5.781  16.004   4.650 -0.0163  0.0824  0.0239
11926W        W29450   3.166  10.703   1.539  0.0526 -0.0409  0.0174
11927W        W29451  16.643  12.963   1.724 -0.1206  0.0653 -0.0874
11928W        W29452  17.951  16.130   2.365  0.1100  0.3726  0.2558
11929W        W29453   3.027  14.877  16.169 -0.1743 -0.1752  0.2663
11930W        W29454   7.113  17.427   1.922  0.2699  0.0662  0.3042
11931W        W29455  11.136  15.267   3.150 -0.2020 -0.2150  0.0207
11932W        W29456  14.782   1.229   3.035  0.3294  0.1044  0.3054
11933W        W29457  13.058  11.232   4.327  0.3856  0.2642  0.0878
11934W        W29458  16.668   2.105  14.080 -0.3291 -0.0905  0.0370
11935W        W29459   4.826   9.135   0.757 -0.2198 -0.0774  0.2221
11936W        W29460   2.869   9.957  13.590 -0.1965 -0.1483  0.3750
11937W        W29461  14.309  12.273  15.240 -0.0329  0.0648  0.0992
11938W        W29462  16.258  13.772  12.839  0.1651 -0.2936  0.2064
11939W        W29463  14.364   8.131   4.046 -0.0720  0.0773 -0.0647
11940W        W29464  15.862   9.416   2.117  0.1462 -0.0618  0.0302
11941W        W29465  10.354  11.435   0.945 -0.1442  0.3018  0.2046
11942W        W29466  13.666   3.092   5.836  0.2673 -0.2550 -0.1225
11943W        W29467  17.333  15.435  11.612  0.2669  0.0517  0.1785
11944W        W29468  10.175  10.719   0.934 -0.0276  0.0861  0.2337
11945W        W29469   5.456  14.047   2.456 -0.1849  0.2413  0.3283
11946W        W29470  15.985  15.111   5.110  0.2313 -0.2207  0.2798
11947W        W29471  11.578   1.261   4.678  0.0657 -0.0364 -0.0130
11948W        W29472  17.856  12.957   1.828  0.0229  0.0333 -0.1899
11949W        W29473  16.747  15.991   0.147  0.1287  0.1879  0.1170
11950W        W29474  16.012  16.518   2.313  0.1323 -0.0554 -0.1256
11951W        W29475   8.722  12.349  12.623 -0.2974 -0.0726 -0.3168
11952W        W29476  10.184  16.828  13.953  0.1445 -0.1982  0.0862
11953W        W29477  12.058  12.925  15.798  0.1007 -0.3719 -0.1712
11954W        W29478   1.461   0.870   3.478 -0.0804  0.1937  0.1109
11955W        W29479  15.627   0.686  11.016  0.2658  0.2420 -0.1720
11956W        W29480   2.724   5.001  11.969  0.0067  0.5617  0.2153
11957W        W29481   0.943  13.470   2.731  0.2735 -0.2184 -0.4720
11958W        W29482   8.228   8.304  14.007 -0.3782  0.0797 -0.0272
11959W        W29483  16.107   5.142   3.103 -0.0191 -0.0498 -0.0302
11960W        W29484   6.576   3.432  15.810  0.0081  0.1566 -0.0435
11961W        W29485   8.545   8.682  11.944 -0.0993 -0.0219  0.0110
11962W        W29486   7.708  15.405   2.068  0.0227 -0.0588  0.0629
11963W        W29487   0.059  12.293  13.226  0.2120 -0.1000  0.0628
11964W        W29488  10.345  17.857   4.594 -0.4010 -0.1980  0.1996
11965W        W29489   2.383  13.153  11.640  0.0289 -0.0731  0.0468
11966W        W29490   6.941  14.677  12.473  0.0971 -0.0331 -0.1022
11967W        W29491  13.361  11.090   1.308  0.0019 -0.2077 -0.1557
11968W        W29492   8.241   0.145   0.916 -0.0582 -0.3319 -0.1233
11969W        W29493  11.196   1.234  11.769 -0.1581  0.0712 -0.1230
11970W        W29494  15.651  14.023   3.524  0.1651 -0.1667  0.1403
11971W        W29495   7.232  17.637  12.073  0.0913  0.0705 -0.1673
11972W        W29496   9.045  17.861   4.921 -0.2140 -0.3473  0.0982
11973W        W29497  10.751   4.931   0.679 -0.0574  0.2829 -0.0150
11974W        W29498  12.351  16.278  13.945 -0.0759  0.3176  0.0666
11975W        W29499   8.143   9.168  12.376 -0.0995  0.0334  0.1474
11976W        W29500   4.132  10.402   0.573 -0.1393 -0.2537  0.1144
11977W        W29501   2.631   5.203   0.587  0.0849 -0.0020 -0.0283
11978W        W29502  10.858  10.321  14.856 -0.0859 -0.3827  0.0679
11979W        W29503  13.931   8.306  11.247 -0.2313  0.0306  0.1046
11980W        W29504   8.233   5.812   4.881  0.0615 -0.0660 -0.3389
11981W        W29505  13.366   4.520  16.220 -0.1996  0.0426 -0.0900
11982W        W29506  14.098  15.539   4.078 -0.1241  0.5015 -0.2022
11983W        W29507  11.816  17.063   2.349  0.0713  0.0574  0.0190
11984W        W29508  14.689  14.810   4.053 -0.3640 -0.0123  0.0634
11985W        W29509   6.905  10.342  12.320 -0.2256  0.0888 -0.0163
11986W        W29510   4.145   1.820   4.519 -0.1184 -0.1897  0.0864
11987W        W29511  12.179  14.888  14.691 -0.1474 -0.0349 -0.0966
11988W        W29512  14.704   2.726   0.961  0.0726  0.1107  0.3185
11989W        W29513   6.872  14.729   4.138  0.0117 -0.1232  0.0826
11990W        W29514   9.013   2.980  14.417 -0.2605 -0.1585 -0.1409
11991W        W29515  16.335   1.718   0.413  0.0942  0.0113 -0.0980
11992W        W29516  15.970  13.483  14.129 -0.1684  0.0015 -0.2613
11993W        W29517   3.205  14.021   2.943  0.0525 -0.0392 -0.0577
11994W        W29518  16.605  10.255   0.928 -0.0230 -0.0202 -0.1999
11995W        W29519   7.739  15.390  15.254  0.1555  0.1913  0.0850
11996W        W29520  11.120  11.158  12.763 -0.1238 -0.1660  0.0258
11997W        W29521   8.402   8.402  15.468 -0.1314 -0.1227 -0.0417
11998W        W29522   4.891   0.438  15.046 -0.1980 -0.2811  0.1398
11999W        W29523  11.661   3.947   2.158 -0.4611 -0.1754 -0.2294
12000W        W29524  10.349   1.717  13.180  0.0195 -0.0703  0.1848
12001W        W29525   6.226   8.203   5.276  0.1594  0.0385  0.0884
12002W        W29526   7.689   3.128  13.899 -0.0567  0.0733 -0.0558
12003W        W29527  12.803  16.724   4.729 -0.2973  0.2929  0.0827
12004W        W29528   8.457  10.082   1.657  0.1590 -0.4660 -0.0603
12005W        W29529   0.778  15.868   1.985 -0.3964  0.0013  0.2018
12006W        W29530   1.368   0.354   1.036  0.1694 -0.0461 -0.0274
12007W        W29531   6.921   9.118   3.493  0.1203  0.1777 -0.0332
12008W        W29532   3.241  12.234  11.364 -0.2243 -0.0701  0.1300
12009W        W29533  14.785   1.955   0.325 -0.0611 -0.0533 -0.0993
12010W        W29534  11.039   7.363  14.955 -0.2140  0.0008 -0.2291
12011W        W29535   1.025  15.869  10.674 -0.0692 -0.0568 -0.1925
12012W        W29536   7.229   2.201   5.008 -0.2412  0.0705  0.2934
12013W        W29537  17.454  15.375   4.458  0.3885 -0.0450 -0.1494
12014W        W29538  13.566  12.904  13.347  0.1594  0.2645  0.0743
12015W        W29539  15.549  10.520   2.138 -0.3449  0.0203  0.0979
12016W        W29540  17.386   4.372   0.335 -0.1774 -0.1014 -0.0500
12017W        W29541   9.275  17.252  14.587 -0.3491  0.1710 -0.0040
12018W        W29542   8.601   2.289   0.653  0.4852 -0.0006 -0.0932
12019W        W29543  14.000  10.073   3.966  0.3927 -0.0134 -0.1416
12020W        W29544  17.754   2.397   2.739  0.3589 -0.0984  0.2517
12021W        W29545   9.321   5.118  14.144  0.0150  0.4148 -0.2217
12022W        W29546   4.610   7.483   5.093 -0.0712 -0.0747 -0.1042
12023W        W29547   5.710   7.569   3.212  0.4131 -0.1855  0.0488
12024W        W29548   4.069  11.015  12.165 -0.0445  0.1203  0.2577
12025W        W29549  14.145   3.320  13.798  0.0497  0.1775 -0.1864
12026W        W29550   7.673  15.350  14.694 -0.0004  0.1427 -0.0500
12027W        W29551   8.696   9.258   4.230 -0.0867  0.1324  0.0168
12028W        W29552  15.514   3.462  11.865  0.1515 -0.1939 -0.0036
12029W        W29553  10.434   8.893  13.329 -0.0177  0.1238  0.0204
12030W        W29554   6.337  11.905   5.410 -0.1148 -0.0153 -0.0483
12031W        W29555   6.666   7.141   0.565 -0.0519  0.2501 -0.4618
12032W        W29556  15.393   5.516  15.837  0.0155 -0.2268  0.2193
12033W        W29557  11.501   8.089   4.735  0.1450  0.4052 -0.0085
12034W        W29558   4.094   6.992  12.448  0.0112 -0.0706 -0.1027
12035W        W29559   6.927  14.398   6.245 -0.2837 -0.3190 -0.0527
12036W        W29560   6.738  11.930  14.563 -0.0570  0.2971 -0.0263
12037W        W29561  17.572  17.234  11.795 -0.0064 -0.2851 -0.0619
12038W        W29562  13.666  14.587  15.701 -0.2686  0.0493 -0.0555
12039W        W29563  15.260   8.448  12.645  0.0288 -0.2843 -0.0505
12040W        W29564   1.600   8.137   1.036 -0.0607 -0.0132 -0.4053
12041W        W29565   6.291  13.734   3.508 -0.2909 -0.2563  0.1226
12042W        W29566   4.378   6.247   1.368  0.1904  0.1715  0.1697
12043W        W29567   5.968   9.696  12.788 -0.1081  0.0143 -0.0603
12044W        W29568   6.814  12.316   3.442 -0.1854 -0.0667 -0.4129
12045W        W29569  15.381   9.088  15.882  0.1244 -0.1811  0.3249
12046W        W29570   0.986   2.012  15.912  0.2086  0.2652  0.0027
12047W        W29571  13.866  13.131   5.036  0.0202  0.0988 -0.0308
12048W        W29572   7.904  17.828  15.679  0.0561 -0.1264 -0.1435
12049W        W29573   9.494   4.341   2.974  0.1920 -0.1215  0.2591
12050W        W29574  14.141   1.067   0.303 -0.0827 -0.2877 -0.1700
12051W        W29575   8.579  10.528  13.761 -0.1452 -0.0690 -0.0831
12052W        W29576   0.790  10.323   0.428  0.0217 -0.2725 -0.0472
12053W        W29577   7.157  16.629   1.402 -0.0757  0.0186 -0.0016
12054W        W29578  10.587   3.337  14.532 -0.3939  0.3165 -0.2447
12055W        W29579   4.392  12.358  14.519  0.3026 -0.0144 -0.0325
12056W        W29580  17.298  12.882  12.327  0.0274  0.1582  0.2107
12057W        W29581   2.482   1.235  14.902 -0.0119 -0.2921  0.1140
12058W        W29582  12.808   0.141   0.728 -0.4089  0.1630  0.0771
12059W        W29583   8.359  12.155  12.269  0.2138 -0.0568  0.1585
12060W        W29584  10.886   2.864  12.656 -0.0421  0.1857 -0.2449
12061W        W29585   4.262  17.288  15.530  0.1853  0.0096  0.1653
12062W        W29586   9.810  17.044   1.115  0.3020  0.2912 -0.2512
12063W        W29587  11.442  11.283   2.292 -0.1317 -0.1025  0.0828
12064W        W29588   8.028   4.540  15.429  0.0531  0.0314 -0.1544
12065W        W29589   4.118   6.821   0.210 -0.2586 -0.1514  0.1392
12066W        W29590  17.041  16.342  12.647  0.2704  0.1875 -0.0044
12067W        W29591  12.071  15.249   0.710 -0.0476  0.2209 -0.1163
12068W        W29592   2.790  16.700   2.309 -0.0204 -0.2278 -0.0110
12069W        W29593   1.404   1.560   4.680 -0.0696 -0.1473 -0.0412
12070W        W29594  14.158   0.411   1.032 -0.0642  0.1389  0.0464
12071W        W29595  15.693  11.920   4.359 -0.1124  0.0155  0.1142
12072W        W29596  12.062   8.852  14.641 -0.1728 -0.1277 -0.1433
12073W        W29597  14.556   7.728  14.161 -0.1866 -0.0292  0.3924
12074W        W29598  12.152   5.838   3.414 -0.0688  0.0721  0.2053
12075W        W29599   8.682  15.810   3.385 -0.0830  0.1487 -0.2075
12076W        W29600  14.856  16.398   4.988 -0.2369  0.1132 -0.0041
12077W        W29601   3.552  13.801  12.752  0.2985  0.1133  0.1505
12078W        W29602  17.330   8.695  13.789 -0.0487  0.1075 -0.0809
12079W        W29603   0.874   5.468   1.991 -0.0866  0.4775  0.1740
12080W        W29604  16.065  15.515   2.406 -0.1280  0.0921  0.1401
12081W        W29605  12.827  17.371  15.398  0.0813 -0.1876 -0.2047
12082W        W29606  14.284   4.980  13.195  0.1326  0.3052  0.3556
12083W        W29607  16.409  15.065   2.622 -0.4126 -0.1074 -0.2480
12084W        W29608  17.458   9.422  12.815 -0.0443 -0.0599 -0.2412
12085W        W29609   1.665   5.016   6.054 -0.0086  0.0206 -0.4625
12086W        W29610   3.076  11.062  13.300  0.0356  0.1657 -0.0212
12087W        W29611   0.327  13.503   1.004  0.0966 -0.0299  0.0406
12088W        W29612   5.558   2.745   2.950 -0.1171 -0.0553 -0.0150
12089W        W29613   2.516   9.047  12.369 -0.0378  0.0571 -0.1492
12090W        W29614  15.097   1.962   1.322 -0.0262  0.0452 -0.1005
12091W        W29615   6.808   3.860  15.700 -0.2305  0.0545  0.1713
12092W        W29616   6.718  16.469  11.564  0.1537 -0.1073 -0.2779
12093W        W29617   7.130  14.589  14.981 -0.2746  0.2082 -0.0612
12094W        W29618  10.380   0.107  12.172  0.2369  0.0246  0.0700
12095W        W29619  13.477   4.466  14.634 -0.1193  0.2077  0.0097
12096W        W29620   0.862   4.495   2.545  0.2383  0.1878 -0.1071
12097W        W29621  11.562  11.091  15.524 -0.2277 -0.0218 -0.2498
12098W        W29622  17.326   0.021  13.677 -0.0152  0.0455 -0.0742
12099W        W29623  14.381   3.914  11.267 -0.0539 -0.0143  0.1893
12100W        W29624  13.793   5.715  14.117 -0.2001 -0.0450 -0.1764
12101W        W29625  16.413  13.467   4.369  0.1400  0.0291 -0.0476
12102W        W29626  16.582   2.142  16.073  0.2645 -0.0996 -0.0922
12103W        W29627  16.166   9.530  12.327  0.3280  0.1500  0.0462
12104W        W29628   4.743  11.484  11.891  0.0208  0.1783  0.1103
12105W        W29629   0.938  16.734   2.673  0.0204 -0.1860  0.0772
12106W        W29630  11.932   8.481  15.938 -0.2721 -0.1986  0.1472
12107W        W29631  15.978   7.748   0.959  0.1045  0.1800 -0.0754
12108W        W29632   4.261   5.012   2.001  0.1702  0.1917 -0.1178
12109W        W29633  13.879   3.994  11.708 -0.2866 -0.2805  0.1401
12110W        W29634   6.105  13.097  12.407 -0.0646  0.2738 -0.0243
12111W        W29635  10.351  11.780   4.203  0.1086  0.2205  0.1228
12112W        W29636  17.488   9.448  10.888  0.0148  0.1758 -0.1287
12113W        W29637   8.063   9.050   2.870 -0.4027  0.0339 -0.1460
12114W        W29638   2.888   9.512  15.047 -0.2803 -0.1913 -0.2121
12115W        W29639  12.387   4.645  16.206 -0.4233 -0.0433  0.0227
12116W        W29640  13.277  12.585  13.014  0.4957 -0.0373 -0.0488
12117W        W29641  13.062  17.602   0.886  0.0752  0.0094 -0.0163
12118W        W29642  14.262  17.806  14.160 -0.0199  0.0225 -0.0166
12119W        W29643  15.555  15.474  10.798  0.0340 -0.1293 -0.3133
12120W        W29644   1.004   7.895   2.302 -0.0292 -0.1433  0.2080
12121W        W29645   4.130   5.163  10.722 -0.1391 -0.1292  0.3361
12122W        W29646  13.279  11.265  11.408 -0.0644  0.3063  0.0054
12123W        W29647  13.832   3.199   2.699  0.1209 -0.4646  0.0681
12124W        W29648  17.823   8.346   6.048 -0.1177 -0.1845  0.0975
12125W        W29649   5.751  13.878  12.618  0.0387 -0.0232  0.0833
12126W        W29650   6.368   2.601   4.021  0.0042  0.0692 -0.0503
12127W        W29651  14.528   8.519   4.740  0.1207 -0.0382  0.5484
12128W        W29652   3.819   5.612  15.703  0.1583 -0.0999 -0.0681
12129W        W29653   8.857  11.317   1.878  0.2086  0.1059  0.2361
12130W        W29654   6.321   3.301   3.284  0.3617 -0.0791 -0.1246
12131W        W29655  12.540  11.197   1.671  0.1242 -0.1712 -0.1493
12132W        W29656   9.978   0.501   3.629 -0.3347 -0.2441  0.1458
12133W        W29657   1.296   9.119   3.464 -0.0081  0.2928 -0.0642
12134W        W29658  17.595  15.967  11.581  0.1432  0.3518  0.1523
12135W        W29659   3.230   8.534  14.930  0.2388 -0.0740  0.0050
12136W        W29660   7.664   7.795  15.020  0.0058  0.1234 -0.1006
12137W        W29661   4.436  15.602   5.084 -0.0847  0.1303  0.1726
12138W        W29662  14.204   0.632  13.271 -0.0483 -0.1643  0.2547
12139W        W29663   6.972  13.882   0.100  0.0855 -0.1693  0.1031
12140W        W29664   1.656   0.216   0.661 -0.3364 -0.0269  0.0803
12141W        W29665   2.555   5.196  12.820  0.2171  0.0652  0.2416
12142W        W29666   5.913   6.398   3.540  0.0837 -0.0491 -0.1810
12143W        W29667   1.300   3.503  16.001  0.1136 -0.2432  0.0880
12144W        W29668   4.700   1.405   0.790  0.1870 -0.1029 -0.0443
12145W        W29669   5.663  14.965   0.632  0.2404  0.0381 -0.1488
12146W        W29670  15.662   0.690   1.091 -0.0296 -0.1755 -0.0902
12147W        W29671   6.645  11.335   3.537 -0.2144 -0.0665  0.2170
12148W        W29672   4.390   5.773  15.863  0.0187 -0.0062 -0.1836
12149W        W29673   5.447   7.464   4.553  0.2176 -0.4477 -0.0439
12150W        W29674  11.963  14.379  12.438 -0.1149  0.0401 -0.2785
12151W        W29675   0.508  14.968   5.980  0.1922 -0.0666 -0.2158
12152W        W29676   1.941  15.669   2.805  0.0650  0.3009 -0.0425
12153W        W29677  17.448   4.896  11.758 -0.0295 -0.0028 -0.1208
12154W        W29678   8.486  11.969   3.477  0.1952  0.0860  0.0709
12155W        W29679   9.195   0.180  13.283 -0.0370 -0.1257 -0.0424
12156W        W29680   7.144   4.172  15.242  0.0350 -0.1937  0.0567
12157W        W29681   1.024   2.947  12.420 -0.1053 -0.0678 -0.1388
12158W        W29682   0.813  10.090   4.581  0.1173  0.2400  0.1051
12159W        W29683   5.445   1.408   2.326 -0.0735 -0.1920  0.2573
12160W        W29684   1.513   3.742   1.652 -0.1079  0.1090  0.0297
12161W        W29685  14.646  10.415  15.522 -0.0909 -0.1685 -0.0719
12162W        W29686   6.032   9.183  15.077 -0.5774 -0.1847  0.1951
12163W        W29687  14.614   7.216  15.962  0.0928 -0.0307 -0.0891
12164W        W29688   0.364   2.203   1.896  0.1057  0.0804 -0.2342
12165W        W29689  12.722  10.017   0.626  0.1242  0.0372 -0.0579
12166W        W29690  13.418  16.788  15.999  0.0361 -0.0250  0.2272
12167W        W29691   9.708  15.710   0.333  0.0517 -0.1051  0.1639
12168W        W29692  11.146   7.163  13.146  0.0124  0.1991  0.0174
12169W        W29693   6.660   5.527  12.044  0.0886  0.1091  0.1157
12170W        W29694   4.461   6.819   3.274  0.1545  0.1827  0.1206
12171W        W29695  13.535  12.401   1.297  0.2020  0.1160  0.0912
12172W        W29696   2.653   6.553   1.494 -0.0467 -0.1141  0.0643
12173W        W29697   1.941  12.284  13.198  0.2414  0.2215  0.2696
12174W        W29698  13.098   1.779   4.697 -0.0051  0.0041 -0.2135
12175W        W29699  15.300   7.028  13.098 -0.0246  0.0445 -0.2233
12176W        W29700   1.077   5.837   5.069  0.0812 -0.0199  0.1140
12177W        W29701  12.454  11.389  10.971 -0.2728  0.4346  0.0679
12178W        W29702  15.762   4.310   4.188 -0.1882  0.2348  0.0850
12179W        W29703  11.111   2.124   4.517  0.3801  0.1451  0.0072
12180W        W29704  13.920   1.556  12.383 -0.2450 -0.1937 -0.0960
12181W        W29705  12.528   1.243   1.272  0.2412  0.3125  0.2021
12182W        W29706   0.279   3.901  14.839 -0.1831  0.2154  0.4781
12183W        W29707  13.709   6.432  16.203 -0.1270  0.0668  0.0368
12184W        W29708   0.762   1.782   1.344  0.0476 -0.3097  0.1776
12185W        W29709  15.533   3.377  14.066 -0.0467 -0.1216  0.3306
12186W        W29710   5.982   1.514   3.158  0.1320  0.0402  0.0785
12187W        W29711   7.183  11.069   2.216  0.0452  0.2312  0.0359
12188W        W29712   8.992   7.899  16.034 -0.0059 -0.1550  0.0693
12189W        W29713  12.883  17.200   3.150  0.1060 -0.1230 -0.2317
12190W        W29714  15.838   3.699   0.004 -0.0238  0.0108 -0.2143
12191W        W29715   3.499  17.000  14.635 -0.1168  0.1439 -0.1129
12192W        W29716  13.323   8.490   3.467  0.0215  0.0573  0.0725
12193W        W29717   4.655  14.451  14.612 -0.0421 -0.0446 -0.1015
12194W        W29718  16.538  14.010  12.386 -0.3454 -0.1331  0.0016
12195W        W29719   1.864  14.768  13.202  0.1757 -0.0077  0.0704
12196W        W29720   7.239   3.652  14.529  0.1363 -0.2084  0.0020
12197W        W29721   7.227  11.773  14.929  0.0077  0.0655  0.0912
12198W        W29722  15.045  15.957   3.331 -0.0330 -0.0591  0.1623
12199W        W29723  16.364   9.920   0.610 -0.1112 -0.1179  0.0255
12200W        W29724  12.186  15.843   5.996  0.2223  0.0792  0.0496
12201W        W29725  14.898  16.038   1.608  0.1240 -0.1133 -0.0556
12202W        W29726   3.381  16.023   1.275 -0.2288  0.0067  0.0759
12203W        W29727  10.027   5.781   0.470 -0.4655  0.1208 -0.3243
12204W        W29728   6.196   6.828   1.591  0.3071 -0.2753 -0.0628
12205W        W29729   4.503   2.954   0.755 -0.1891 -0.1952  0.2156
12206W        W29730  14.752  13.443   2.945  0.0544 -0.2484 -0.0445
12207W        W29731   5.443   5.754   5.479  0.4278 -0.2549 -0.0620
12208W        W29732  11.169  14.436  11.730  0.0855 -0.0501  0.2265
12209W        W29733  17.124   6.693  13.781 -0.3049 -0.1501 -0.2108
12210W        W29734  10.323   1.232  10.201 -0.1633  0.0610  0.1191
12211W        W29735  16.176   8.669   1.861  0.1822  0.0253  0.1586
12212W        W29736   4.010   8.765  11.105 -0.0335  0.0708  0.0316
12213W        W29737  15.683   7.019   0.966 -0.2286  0.0473  0.2077
12214W        W29738   7.578  11.632   5.038  0.2239  0.1904  0.1605
12215W        W29739   7.194  15.701   3.375  0.0695 -0.0831  0.0928
12216W        W29740   9.341   6.668  14.127  0.3120  0.1139 -0.0067
12217W        W29741  17.883  15.471  16.210 -0.2836  0.2521  0.1381
12218W        W29742  12.242   4.374  14.982 -0.3083 -0.0062 -0.0588
12219W        W29743  16.321   5.120   1.141  0.0136 -0.1793  0.3931
12220W        W29744   9.214   1.559   0.460  0.1817 -0.2224 -0.0474
12221W        W29745   8.259   5.849  13.649 -0.0811  0.0545  0.2861
12222W        W29746  17.702  10.425  14.353 -0.1079 -0.2125  0.1457
12223W        W29747  17.222   2.844   3.516  0.1375 -0.2673 -0.4034
12224W        W29748  14.932   3.556  15.958  0.0189 -0.1040  0.1183
12225W        W29749  10.310  14.961  12.417 -0.5762  0.2372  0.0159
12226W        W29750   2.075   5.737  13.328 -0.2435 -0.1098 -0.3066
12227W        W29751  10.324  10.193  14.679 -0.3950  0.0693  0.0740
12228W        W29752   9.541  17.295   4.705  0.0811 -0.0294 -0.1373
12229W        W29753   3.235  10.508   4.585  0.0696 -0.2227 -0.0903
12230W        W29754  12.833  11.094   1.206  0.0182  0.2429  0.1637
12231W        W29755  15.550   3.259   5.501 -0.1171 -0.1318 -0.3151
12232W        W29756  12.985   3.767  11.434 -0.2683  0.0984 -0.2617
12233W        W29757   4.335  12.457  13.590  0.0674 -0.0085  0.1304
12234W        W29758  14.213   5.125  14.746 -0.2912 -0.1641 -0.0821
12235W        W29759  15.107  12.131   3.044  0.2882  0.1057  0.1218
12236W        W29760  17.583   1.430  14.731  0.0444  0.0082  0.0808
12237W        W29761   7.871   3.699   1.806  0.0252  0.0992 -0.1259
12238W        W29762   0.196  12.224   4.846 -0.0999 -0.2940  0.2077
12239W        W29763  17.105  16.789  13.739 -0.1553  0.0322 -0.0109
12240W        W29764   1.537   8.102  15.965 -0.0873  0.2718 -0.2782
12241W        W29765   3.521   5.874  14.752 -0.0592 -0.0139 -0.1864
12242W        W29766   2.131  16.017  10.694  0.3798 -0.0589 -0.0542
12243W        W29767   4.136  14.792   4.514 -0.2495 -0.0451  0.0597
12244W        W29768   7.778   4.093  10.826 -0.2605 -0.0641 -0.1401
12245W        W29769   4.242  16.984   3.493  0.1300  0.2998  0.0974
12246W        W29770   5.564   5.241   1.389 -0.0689  0.0630 -0.0617
12247W        W29771   3.890  12.535   1.772  0.1880  0.1390 -0.0877
12248W        W29772   6.463   7.172   3.910  0.1196  0.1317 -0.0038
12249W        W29773  15.759  13.882  15.953  0.0323  0.0192 -0.1912
12250W        W29774  14.699   3.928  12.290  0.0521  0.3055  0.1976
12251W        W29775  13.625   6.298  14.692 -0.0798  0.0669  0.0912
12252W        W29776  17.332  16.583   2.722 -0.1563  0.1163 -0.0366
12253W        W29777   2.767  17.796  15.843 -0.1244  0.1165 -0.2079
12254W        W29778  16.279  12.609   4.720  0.0219  0.1405 -0.1677
12255W        W29779   5.058  17.642  11.347  0.0571 -0.0553 -0.2583
12256W        W29780   6.426  17.361   4.292  0.2112 -0.2705 -0.1825
12257W        W29781   4.717   4.304  14.430  0.1539  0.0451  0.1333
12258W        W29782   9.227  15.264   2.245  0.1173  0.2787 -0.2660
12259W        W29783   2.264  13.793  13.211  0.1363 -0.2203  0.0529
12260W        W29784   3.810   1.026  12.508 -0.0677  0.1018 -0.3310
12261W        W29785  11.588  12.430   4.094 -0.0583  0.1075  0.1533
12262W        W29786   7.804   4.328   2.375 -0.5088 -0.0146  0.1449
12263W        W29787   9.862   3.821   0.417 -0.0566  0.0129 -0.2385
12264W        W29788  13.536   2.712   3.927 -0.0835 -0.0811  0.0733
12265W        W29789   3.598   5.155  10.812 -0.0192 -0.1438 -0.0057
12266W        W29790   5.133  12.518   1.122  0.0893 -0.2255  0.1603
12267W        W29791   7.717  11.224   5.276 -0.1224 -0.1462  0.0149
12268W        W29792  17.381   6.779  14.180 -0.1891  0.0429  0.0556
12269W        W29793  16.205  10.320   5.954  0.1041 -0.2188 -0.3147
12270W        W29794   0.117  10.228   0.943 -0.3017  0.3581  0.0690
12271W        W29795  16.866   6.637   4.022  0.0141 -0.1777 -0.1229
12272W        W29796   4.027   5.319   0.444 -0.0692 -0.0135 -0.0893
12273W        W29797  12.741  12.735   1.040 -0.0024 -0.2754 -0.0545
12274W        W29798  10.340  17.269  13.468 -0.0849 -0.1671 -0.0602
12275W        W29799   6.954  17.768   5.782  0.3334  0.1363  0.0159
12276W        W29800  17.183  15.929  16.111  0.4788 -0.0955  0.1389
12277W        W29801  14.392   1.129   1.855 -0.0739 -0.0985 -0.1010
12278W        W29802  16.977  11.807  11.659  0.1789 -0.0847  0.2001
12279W        W29803  11.242   4.000  13.374 -0.3222 -0.0050  0.0266
12280W        W29804   4.111  10.821   4.223  0.1036  0.1025  0.1099
12281W        W29805  15.156   7.978  12.163  0.1109 -0.0679 -0.1800
12282W        W29806  15.989   7.544  11.723 -0.2142 -0.0771 -0.1542
12283W        W29807  15.318   3.045  12.903 -0.0733  0.0534 -0.0242
12284W        W29808  14.326   8.275  13.396 -0.4323 -0.0198  0.1195
12285W        W29809   6.746   0.488  12.192 -0.2898 -0.1185  0.0602
12286W        W29810   3.635  11.049   4.279 -0.0164 -0.1369  0.0779
12287W        W29811   9.726  12.610  12.973 -0.1352 -0.0055  0.1631
12288W        W29812   8.778   2.023   3.120  0.3141 -0.0167 -0.2365
12289W        W29813   1.100   6.743   1.361 -0.1270  0.0752 -0.0135
12290W        W29814  13.979   7.959   0.325  0.3390  0.0287 -0.0364
12291W        W29815  11.613  17.827   4.166  0.1551 -0.0601 -0.1738
12292W        W29816  14.537  14.587  13.670  0.1734  0.0608  0.0436
12293W        W29817   8.422  12.673  12.331 -0.1564 -0.0889  0.1997
12294W        W29818  10.483   5.778  13.305 -0.0832  0.0415 -0.0984
12295W        W29819  17.285   1.413   1.928  0.1551  0.1534 -0.0015
12296W        W29820   5.725  13.633   3.052  0.1176  0.1907 -0.0148
12297W        W29821   5.799  14.445   1.240 -0.0011 -0.2855  0.1257
12298W        W29822  12.175   0.407   2.016 -0.0973  0.1296  0.0688
12299W        W29823   0.541   6.474   1.907  0.3198  0.2636 -0.0153
12300W        W29824  17.481  13.393   3.715 -0.0642  0.4141 -0.3168
12301W        W29825   2.402   1.592   3.093 -0.0265  0.0359 -0.1139
12302W        W29826   1.013   2.726   2.661  0.2065 -0.1894 -0.1406
12303W        W29827   4.672  16.704  14.391  0.2589 -0.1291  0.2997
12304W        W29828   9.364   2.430  14.712 -0.3095 -0.0986 -0.0203
12305W        W29829   2.985   1.841   0.661 -0.0248 -0.1683 -0.3184
12306W        W29830   4.273  11.985  11.324 -0.1054  0.1600 -0.1597
12307W        W29831  12.194  10.105   2.497 -0.0054  0.0581  0.2000
12308W        W29832  16.915  16.509   0.131 -0.0502  0.1163 -0.1796
12309W        W29833   8.899  11.655   2.270 -0.3285 -0.1503 -0.2301
12310W        W29834   5.436   6.356   6.035 -0.0838 -0.2083 -0.2859
12311W        W29835   6.098  16.469   4.165  0.0111 -0.3841 -0.1350
12312W        W29836   2.869   8.980  15.044 -0.1507  0.3287  0.0172
12313W        W29837  16.597  12.035   3.784  0.1950 -0.0660  0.2412
12314W        W29838  10.555  10.324   4.057  0.2858 -0.3088 -0.2283
12315W        W29839  11.154  16.497  13.831 -0.0653 -0.0257  0.2592
12316W        W29840   2.889   1.536   3.219 -0.1793 -0.0553  0.3291
12317W        W29841   8.203  16.517  14.468  0.0921 -0.2182  0.0087
12318W        W29842  10.264  11.455  14.756  0.1010 -0.1913  0.0636
12319W        W29843   4.691  14.782  14.188  0.1463 -0.0455 -0.1260
12320W        W29844  14.224  16.777  11.809  0.2397 -0.3404 -0.0847
12321W        W29845  15.061   4.211   1.571  0.0279 -0.2344 -0.1397
12322W        W29846   2.019  14.536   6.061  0.0189 -0.2861  0.1951
12323W        W29847  13.979   1.108   1.571 -0.0894  0.0659  0.0383
12324W        W29848  14.186   1.699  12.817  0.0619 -0.0168  0.1623
12325W        W29849   4.831   2.940   2.077  0.5127 -0.1456 -0.1577
12326W        W29850  13.632   0.629   3.591  0.4462 -0.0945 -0.1183
12327W        W29851   4.902  14.003  14.545 -0.0435  0.0179 -0.0381
12328W        W29852   7.634   5.917  12.164  0.0017 -0.0612  0.0689
12329W        W29853   0.721  16.129  12.421  0.0453  0.2436 -0.1642
12330W        W29854   2.447   1.611   2.148 -0.0264 -0.1027  0.2999
12331W        W29855   3.972   8.361  11.570  0.1851  0.2288  0.1762
12332W        W29856   9.030  15.009   0.017  0.1224 -0.1188  0.1647
12333W        W29857   7.172   5.962  13.556  0.2451  0.0803 -0.0951
12334W        W29858  11.274  12.757  13.726 -0.2910 -0.0826  0.2435
12335W        W29859  16.521  16.439  13.012  0.3054  0.0653 -0.1112
12336W        W29860  15.286   8.473   0.748  0.0966  0.0900  0.2461
12337W        W29861   6.754   3.696  12.641 -0.0700  0.1261 -0.0949
12338W        W29862   7.209   2.699   0.339  0.1685 -0.0976  0.1329
12339W        W29863   7.569   0.805   4.684  0.0750  0.1536 -0.3502
12340W        W29864   2.355  11.237   4.103 -0.2018  0.3406 -0.2009
12341W        W29865   1.154   6.517   2.384 -0.0739  0.1843  0.2508
12342W        W29866   4.263  10.716  11.392  0.0666  0.1995  0.2376
12343W        W29867   5.183   8.104  12.195  0.1784  0.0750 -0.2988
12344W        W29868  11.658   1.638   3.859 -0.0038 -0.2241 -0.0941
12345W        W29869   6.601   8.644   1.489  0.0644 -0.0707  0.3553
12346W        W29870  11.687  15.067  14.543 -0.0732 -0.1838 -0.2424
12347W        W29871  16.173   6.438  12.801  0.3073  0.0033  0.1292
12348W        W29872   0.065  14.192   1.194  0.0354 -0.0910  0.3136
12349W        W29873   2.107   4.924   4.966 -0.2263 -0.2096  0.1795
12350W        W29874  12.485   9.530   0.038 -0.1040  0.1021 -0.0805
12351W        W29875   5.071   8.871  15.388 -0.0053  0.0027  0.0598
12352W        W29876   1.966   5.557   5.640 -0.0577  0.0643 -0.0703
12353W        W29877   0.397   9.877   4.726 -0.0805  0.1325  0.0567
12354W        W29878   1.224  11.949  15.246  0.2726 -0.1090 -0.0171
12355W        W29879   1.862   8.284  12.811 -0.0059  0.0396 -0.1855
12356W        W29880   3.622   8.352   4.156 -0.0543  0.2085 -0.2491
12357W        W29881  12.559   4.189   2.610 -0.0647 -0.3834  0.2276
12358W        W29882  10.779   1.982  13.270  0.0086 -0.2013  0.2177
12359W        W29883   4.441   7.472  14.976  0.1729 -0.0490  0.0881
12360W        W29884   1.614  17.193  14.794  0.1031 -0.0535 -0.0986
12361W        W29885  17.713  16.746   3.530  0.0021  0.3771  0.0639
12362W        W29886  10.544  17.098   4.157 -0.5458  0.0211  0.1557
12363W        W29887  11.539  12.640   4.511 -0.1136 -0.0188  0.1813
12364W        W29888   5.575  12.485   5.529  0.3000  0.0974 -0.1472
12365W        W29889  11.682   3.463  12.884 -0.0206  0.1496  0.1639
12366W        W29890  15.430  14.930   4.713 -0.4224  0.2299 -0.2394
12367W        W29891  16.893  16.580   5.118  0.0292 -0.0971  0.2599
12368W        W29892  13.211   5.312  14.386  0.4637 -0.0167 -0.0368
12369W        W29893  11.535  11.380   0.359 -0.3591  0.0019  0.0991
12370W        W29894   9.831   2.625   4.576  0.0986  0.1179 -0.1175
12371W        W29895   7.925  16.578   1.815 -0.0258 -0.3827 -0.1458
12372W        W29896  11.497  11.297   0.899 -0.4346  0.3541 -0.1333
12373W        W29897   2.317  14.644  15.346  0.0465  0.1668 -0.2687
12374W        W29898   8.708   2.709  15.578 -0.0817 -0.0002  0.2324
12375W        W29899  16.579  17.807   2.860 -0.0125  0.2089  0.1471
12376W        W29900   6.308   2.054   3.158  0.0777  0.1799 -0.2264
12377W        W29901   1.743   1.848  10.022  0.2399 -0.1555  0.3194
12378W        W29902   3.790   6.135   1.407 -0.0616  0.0536  0.2531
12379W        W29903   6.305  11.401   2.312  0.2725  0.1573 -0.1035
12380W        W29904   5.808  13.710  15.239 -0.0578  0.2281  0.0316
12381W        W29905   0.056   5.510  15.957  0.1653  0.0687  0.3459
12382W        W29906  17.455   8.089   2.533  0.1716  0.0770 -0.0537
12383W        W29907  11.396  10.547   3.975 -0.0439  0.0822 -0.3684
12384W        W29908   9.086   2.163  12.914  0.0754 -0.1981 -0.0871
12385W        W29909   5.234   9.027  13.527  0.2026 -0.0691  0.0709
12386W        W29910   8.522  11.697   1.021 -0.1702 -0.0183 -0.0235
12387W        W29911   2.979  12.662   3.705 -0.0202 -0.1945  0.0333
12388W        W29912  14.664   4.715   4.805 -0.0288  0.0509 -0.1103
12389W        W29913   1.026   4.885   0.786  0.0691  0.0978 -0.1613
12390W        W29914   4.614   3.821  15.824  0.2419 -0.3042 -0.0053
12391W        W29915   9.581  16.796   3.739  0.1651 -0.5098 -0.2059
12392W        W29916   8.047   8.778  13.728 -0.1061 -0.0399 -0.2552
12393W        W29917   5.879  15.933  15.906 -0.1893  0.3261 -0.0328
12394W        W29918   0.510   1.971  14.644  0.0015 -0.2015 -0.1645
12395W        W29919  10.787   0.471   0.541 -0.0465 -0.1560  0.0719
12396W        W29920   2.469   1.403  13.136  0.1318  0.0920 -0.1890
12397W        W29921   6.046   8.490  11.489 -0.0797  0.0697  0.0471
12398W        W29922   3.973  16.063  11.170  0.0831 -0.1270 -0.0054
12399W        W29923  10.650  13.991   5.518  0.0771  0.1445 -0.0757
12400W        W29924  11.229  10.927  11.848  0.0074 -0.1823  0.0301
12401W        W29925  17.725  10.863  15.420 -0.0426  0.3060 -0.1304
12402W        W29926   2.250   0.227   4.441 -0.1089 -0.3239 -0.0565
12403W        W29927  15.960  15.200   2.860 -0.0495 -0.5946  0.1716
12404W        W29928  15.976  15.730  10.983  0.1187  0.1791 -0.1025
12405W        W29929  13.332  14.420   4.415 -0.0889  0.1550 -0.1107
12406W        W29930   5.410  12.266  11.761 -0.0692  0.0725 -0.1873
12407W        W29931   4.481   0.534   2.448  0.1404 -0.0469  0.0173
12408W        W29932   8.801  12.734  14.965 -0.0261 -0.0172 -0.2458
12409W        W29933   1.347  10.317  14.962  0.1768 -0.2110  0.0188
12410W        W29934  14.873  14.086  12.797  0.1798 -0.0605 -0.5407
12411W        W29935  10.381  11.203  12.377 -0.1078  0.0038 -0.0564
12412W        W29936   3.759  10.982   3.429 -0.3253 -0.2913  0.2065
12413W        W29937  10.558   5.770  13.953 -0.0802 -0.2049  0.3209
12414W        W29938   2.981  10.646   3.165  0.1731 -0.0626  0.2271
12415W        W29939   0.251  13.906  15.945 -0.0234 -0.0654 -0.3741
12416W        W29940   7.055  12.783  13.811 -0.1176  0.3368 -0.0186
12417W        W29941   9.827  15.435   3.743 -0.0945 -0.0828  0.0107
12418W        W29942  13.621   7.797   4.674 -0.0143 -0.0013  0.0614
12419W        W29943  12.848   5.046  10.861 -0.1634 -0.2783  0.0060
12420W        W29944   6.450   3.317   0.451  0.0245  0.1632 -0.0825
12421W        W29945   1.135   6.645   4.609  0.2483  0.2757  0.1842
12422W        W29946  15.381   2.833  15.462 -0.1789  0.0285 -0.0489
12423W        W29947   6.262  13.260  14.561 -0.1546 -0.2209  0.2668
12424W        W29948  16.638   6.596   4.814 -0.0972  0.1328 -0.1932
12425W        W29949  12.724   1.370   4.688  0.2369 -0.3525 -0.1848
12426W        W29950   2.284  10.591   2.664 -0.1561 -0.0644 -0.0531
12427W        W29951  17.463  17.180   0.735 -0.3122  0.0375 -0.1251
12428W        W29952  12.189   5.682   2.854  0.0171 -0.3504 -0.1135
12429W        W29953  15.900  10.599   4.049 -0.1357 -0.1992 -0.1527
12430W        W29954  11.765   5.207  13.655 -0.1071  0.0138  0.2401
12431W        W29955   7.232  11.098  14.634  0.0769 -0.0962  0.0575
12432W        W29956  16.027   4.376   4.648 -0.0634  0.2512  0.3782
12433W        W29957   5.486  15.875  13.570  0.1329  0.1496  0.0395
12434W        W29958   6.473  10.329   3.673  0.1753 -0.0795  0.2245
12435W        W29959  17.743   6.729   1.041  0.1343 -0.0186  0.1619
12436W        W29960   5.887   6.539  15.245  0.0273 -0.3499  0.1745
12437W        W29961   7.476   0.187  15.597  0.0213 -0.1660 -0.1288
12438W        W29962   0.562   9.642   3.496 -0.1619  0.3235 -0.0842
12439W        W29963  16.928   2.700  12.762 -0.1603 -0.1036  0.0177
12440W        W29964  15.307   1.436  11.318  0.0007 -0.1686  0.0962
12441W        W29965   0.355  13.481  14.007 -0.1113 -0.0848  0.0149
12442W        W29966   9.591  11.715  16.250 -0.1566 -0.1327 -0.0905
12443W        W29967  15.593   2.960  14.911 -0.0142  0.0716  0.2792
12444W        W29968   2.015  17.431   0.386 -0.1085 -0.1741 -0.0761
12445W        W29969   1.118   2.499  14.006  0.2331  0.1660  0.1568
12446W        W29970  12.588  10.958   2.876 -0.3689 -0.1004  0.0853
12447W        W29971   3.943   3.749  12.817 -0.1638 -0.2671 -0.0988
12448W        W29972  17.604  12.254  12.857 -0.2441  0.0226  0.1007
12449W        W29973   6.554   8.992   3.800 -0.4545 -0.0585 -0.0653
12450W        W29974  17.419   7.010   1.702 -0.0054  0.1395 -0.1693
12451W        W29975  17.814   8.536   0.701 -0.2690 -0.4640 -0.3146
12452W        W29976  11.611   4.831   1.173 -0.0514  0.2297 -0.0299
12453W        W29977  14.402   4.400   0.476 -0.1580  0.3620  0.1054
12454W        W29978   5.076   5.702  11.493 -0.4437  0.1904  0.2558
12455W        W29979   3.684  11.018   2.450  0.1682 -0.2045  0.1242
12456W        W29980   5.348   5.615  14.099  0.3366 -0.1069 -0.1143
12457W        W29981  17.013   6.066  11.062  0.0272 -0.1038  0.3453
12458W        W29982   7.348  14.441   0.735  0.2008 -0.0087 -0.1916
12459W        W29983  14.437   3.021   3.364 -0.1984 -0.0715  0.0151
12460W        W29984   1.095   8.185   0.263 -0.3013  0.2793  0.0129
12461W        W29985  16.512  11.068   0.870 -0.1052  0.2778  0.1177
12462W        W29986  14.865  17.911  12.058  0.1402 -0.2813 -0.2533
12463W        W29987   2.352   9.746  14.655  0.0232  0.0025  0.2260
12464W        W29988   8.001   3.070  12.973 -0.0482  0.2913 -0.2861
12465W        W29989  13.596   7.314  13.270  0.0026 -0.3178  0.3023
12466W        W29990   5.497  17.474   3.824  0.3023 -0.1254  0.1929
12467W        W29991  15.461  12.681  11.271  0.0326 -0.1101  0.1983
12468W        W29992  11.006  15.653   1.851  0.3180  0.2597 -0.0206
12469W        W29993   0.145   2.313   0.248 -0.0791  0.2411 -0.0671
12470W        W29994  17.095   2.175  11.937 -0.0283  0.1879 -0.0522
12471W        W29995   6.028  17.256   1.055 -0.0511 -0.2264 -0.1132
12472W        W29996   6.980  10.553  15.940 -0.4111  0.0779  0.0842
12473W        W29997   5.774   8.501  10.527 -0.1235 -0.1425 -0.1663
12474W        W29998   8.885  16.254  13.113  0.1840 -0.1146 -0.0556
12475W        W29999  11.841   4.775  14.992 -0.2144 -0.1354  0.2669
12476W        W30000  12.936  17.731   0.429 -0.3249  0.3151  0.0838
12477W        W30001   1.888   6.057   3.330 -0.1004  0.1637 -0.2059
12478W        W30002  16.365   0.439   2.470  0.1922 -0.1449 -0.1689
12479W        W30003   5.357   4.095   2.841 -0.3330  0.1086  0.1957
12480W        W30004   8.901  11.757  13.910 -0.1210 -0.0699 -0.0693
12481W        W30005  13.909   6.050  12.527  0.0079  0.1037 -0.0897
12482W        W30006  16.109  15.541  11.877  0.1086  0.0352 -0.3360
12483W        W30007   0.242   9.316   3.140 -0.1369 -0.0120 -0.0464
12484W        W30008  13.681   1.690  15.453  0.0698  0.1661  0.0994
12485W        W30009   4.272   5.645   5.184  0.0570  0.0980  0.2058
12486W        W30010   8.183  10.014  10.700  0.1713  0.0799  0.0136
12487W        W30011  15.718  16.378  14.850  0.0977 -0.0393  0.0168
12488W        W30012   0.475   8.874   4.342  0.1447  0.0054  0.0615
12489W        W30013  15.710   6.378   5.256 -0.0921  0.2289 -0.0981
12490W        W30014   7.300   9.233  12.922  0.3895 -0.3171  0.3224
12491W        W30015   4.677   2.401  11.724  0.1052  0.0089  0.2034
12492W        W30016   7.958   6.644   0.834  0.0255 -0.2763  0.1666
12493W        W30017   1.882   7.927  11.466  0.0972  0.1120 -0.1880
12494W        W30018  10.835   2.156  16.134 -0.0126 -0.0665  0.0988
12495W        W30019  15.026  15.853  13.812 -0.1091 -0.1513  0.1484
12496W        W30020   5.306   0.803   1.453  0.1598 -0.3331 -0.2379
12497W        W30021   7.676  12.301  13.648  0.2448 -0.0625 -0.0119
12498W        W30022   3.459  10.876   5.858  0.1576  0.0951  0.1998
12499W        W30023   2.793   6.476   2.014 -0.1739  0.0147  0.1327
12500W        W30024   0.807   5.476  12.310  0.0469 -0.0072  0.0690
12501W        W30025  15.865   8.025   3.483 -0.0707  0.2127 -0.1322
12502W        W30026   9.189   7.130  11.152  0.1276 -0.2641  0.0600
12503W        W30027   5.126  15.215  16.212  0.1974  0.0917  0.1200
12504W        W30028   6.727  16.537   0.583 -0.0153 -0.1747 -0.1128
12505W        W30029   0.586   3.829   0.228  0.2042 -0.0618  0.2202
12506W        W30030  12.143   6.381   4.140 -0.1964  0.1007 -0.0433
12507W        W30031   7.774  15.961   0.383 -0.1226  0.0465  0.0224
12508W        W30032   1.278   8.033  13.691  0.0251 -0.4059 -0.0813
12509W        W30033  13.943   9.118   2.253  0.1161  0.1933 -0.2159
12510W        W30034   0.815   2.594   1.398 -0.0759 -0.0096 -0.3057
12511W        W30035   3.910  16.367   0.524 -0.3085 -0.4245  0.0832
12512W        W30036  12.221  11.000   2.071  0.1235  0.3524 -0.1230
12513W        W30037   0.422  12.055   3.658  0.1046 -0.1155 -0.0335
12514W        W30038   9.785  11.829   3.486 -0.0337  0.0742 -0.1412
12515W        W30039   2.170   4.514  12.439  0.1266 -0.1533 -0.2461
12516W        W30040   0.330  13.240   0.400  0.0909 -0.0114 -0.1379
12517W        W30041  15.172   3.135   4.219  0.2006  0.0248  0.2251
12518W        W30042  17.351   1.902  12.993 -0.2823  0.0839  0.4819
12519W        W30043   2.933  10.818   0.324  0.3864  0.2284  0.0403
12520W        W30044   8.564   3.325  10.900  0.2118  0.0174  0.4792
12521W        W30045   7.614  13.067  12.597 -0.2321  0.1861 -0.1957
12522W        W30046   9.970  10.779  12.695 -0.2719 -0.0126  0.4712
12523W        W30047   2.089  17.724   3.104  0.2340 -0.0088 -0.0181
12524W        W30048   8.752   4.712  15.205  0.0565  0.0957 -0.0917
12525W        W30049   2.384  15.649   4.914  0.0410 -0.0907 -0.0836
12526W        W30050   8.084   2.803  13.935  0.0387  0.1238 -0.1879
12527W        W30051   1.272  14.345  14.395  0.0611 -0.0455 -0.1744
12528W        W30052   6.175   1.280   3.545  0.0659  0.2619  0.0883
12529W        W30053   0.612  11.224  13.415  0.2526  0.0496 -0.2984
12530W        W30054   2.379  11.389  15.923 -0.0989  0.0543  0.0700
12531W        W30055   4.766  11.638   4.020  0.0698 -0.1624  0.2747
12532W        W30056   7.310   3.467  14.057 -0.2588 -0.0237 -0.5031
12533W        W30057   8.099  17.467  14.341 -0.0185  0.1167 -0.2256
12534W        W30058   2.828  11.332   0.444  0.3171  0.0297 -0.1299
12535W        W30059   7.424  12.666  12.399  0.0014  0.2548  0.0659
12536W        W30060   1.672   7.488   1.154  0.0264 -0.2063 -0.3469
12537W        W30061   3.165   6.797   5.023  0.2006  0.2608  0.0562
12538W        W30062   8.435   5.430   4.113 -0.0846  0.0718 -0.0383
12539W        W30063   4.202   5.464  11.248 -0.0530  0.1258  0.4307
12540W        W30064   9.564  11.214   3.907  0.0942  0.0411 -0.0293
12541W        W30065  12.775   2.209  14.191 -0.0533 -0.0688  0.0869
12542W        W30066   3.269  15.485  14.872 -0.1398  0.2008 -0.1156
12543W        W30067  13.517  15.709   4.831 -0.0343 -0.1137  0.0582
12544W        W30068  12.458  15.664   3.376  0.1049  0.0775 -0.0672
12545W        W30069   5.005   1.952   0.779 -0.1716 -0.0742  0.1404
12546W        W30070  16.271  15.919   4.497 -0.0473 -0.0334 -0.0517
12547W        W30071   2.297   4.653   2.762 -0.0898  0.0421 -0.1004
12548W        W30072  17.959   5.605   4.530  0.4355  0.1908  0.3345
12549W        W30073   4.067   0.033   1.331  0.0851 -0.0567 -0.0363
12550W        W30074  17.016  14.545  15.439 -0.1097 -0.1041  0.1603
12551W        W30075   1.480   3.104  12.148  0.0290 -0.4026 -0.4426
12552W        W30076   2.670  11.939   5.830  0.0494 -0.3163 -0.0647
12553W        W30077  13.534  17.405   3.039  0.1425 -0.1867 -0.0067
12554W        W30078  10.312   4.519   1.216  0.2915  0.3210  0.2882
12555W        W30079   0.039  16.002  13.527 -0.0782 -0.2509  0.1005
12556W        W30080   4.252   9.015   4.657 -0.0406 -0.0957 -0.0256
12557W        W30081  16.631  10.938   4.476 -0.3115 -0.5493 -0.1513
12558W        W30082   8.194   9.136  11.865 -0.0450  0.0689 -0.0974
12559W        W30083   1.871  10.830  13.832  0.1681  0.5384 -0.0917
12560W        W30084   9.138  12.317  15.108  0.0968 -0.0902  0.1447
12561W        W30085  16.446   2.286   3.580  0.1031  0.0790  0.1357
12562W        W30086   8.704  10.014   4.656  0.1459  0.0591  0.0867
12563W        W30087   1.550  10.189  15.400  0.2454  0.1895  0.0840
12564W        W30088  10.223   1.899   1.062  0.1066  0.1228  0.0712
12565W        W30089   0.379   7.315  13.107 -0.1712  0.0451 -0.0531
12566W        W30090   3.718  13.891   4.604  0.0297  0.1085 -0.1591
12567W        W30091   1.663  12.175  15.555 -0.0809  0.0865  0.3515
12568W        W30092   1.368   7.485  13.566  0.1757 -0.0677 -0.1031
12569W        W30093  14.174   9.781   5.059  0.1334 -0.1499  0.0471
12570W        W30094  10.247  16.280  12.166 -0.1003  0.1677 -0.0435
12571W        W30095  17.343  10.195  11.915 -0.0594  0.0575  0.0709
12572W        W30096  14.655  15.059  12.110 -0.1801  0.0098 -0.2908
12573W        W30097  14.094  14.087   2.885  0.0040  0.1012  0.1057
12574W        W30098   2.843   8.398   4.682  0.0104 -0.1840 -0.0655
12575W        W30099   7.819   4.812   1.468 -0.0485  0.1028  0.3848
12576W        W30100  12.156  11.642  11.229 -0.1458  0.0641  0.0626
12577W        W30101   4.653  15.402  16.170  0.0886  0.0827  0.4763
12578W        W30102  11.359  16.021   1.345 -0.2325  0.0995 -0.1455
12579W        W30103  17.081  15.520  15.182  0.1129  0.0696 -0.0711
12580W        W30104  14.633  14.292   1.648 -0.1150 -0.4427 -0.1207
12581W        W30105  17.637   0.036   3.984  0.1054 -0.1736 -0.4731
12582W        W30106   4.623   3.451   3.515 -0.0350  0.1110 -0.3282
12583W        W30107   0.819   1.671   3.043  0.0747 -0.0882 -0.2018
12584W        W30108  14.549   5.360  13.485  0.2922  0.0671 -0.2541
12585W        W30109   3.772   8.636   4.578  0.1639 -0.2533 -0.0663
12586W        W30110  11.282   0.664  13.067 -0.1728  0.0327  0.0810
12587W        W30111   6.374   6.253   2.441  0.0068  0.1463 -0.0531
12588W        W30112   9.106   1.002   1.094 -0.0073  0.0532  0.1566
12589W        W30113   6.685  16.481  13.361  0.3616 -0.0913  0.2335
12590W        W30114  13.960   9.297   0.794 -0.1768  0.1571 -0.1162
12591W        W30115  10.278   8.125   4.666  0.0397  0.1041 -0.0539
12592W        W30116  11.892  14.658   1.728 -0.1192 -0.0443 -0.2105
12593W        W30117  16.306   7.167  10.658 -0.1920 -0.0382  0.3217
12594W        W30118  12.944  10.640   2.749 -0.0054 -0.2592  0.2188
12595W        W30119  14.170  11.154   0.919 -0.0967  0.0258  0.2107
12596W        W30120   8.548   8.863   2.700 -0.0462 -0.2345  0.0050
12597W        W30121   2.022  14.636  15.736  0.2877 -0.0269  0.2670
12598W        W30122  16.406  16.765   4.208 -0.0130 -0.1243 -0.1512
12599W        W30123   8.106  14.838   2.930 -0.0593  0.0961 -0.1047
12600W        W30124   7.447   4.077  13.809 -0.0514 -0.0532  0.3503
12601W        W30125   9.607   8.314  10.320  0.2094  0.0751 -0.4236
12602W        W30126  13.102   3.862   4.333  0.3052  0.0864  0.0900
12603W        W30127  13.584  14.040   3.657 -0.0605 -0.0561 -0.3655
12604W        W30128   0.240   1.087  13.121  0.2506 -0.0034  0.0397
12605W        W30129  14.712  15.369   0.263  0.4847 -0.1728 -0.1582
12606W        W30130  16.413   6.237   3.403  0.0364 -0.2173  0.1220
12607W        W30131   6.671  12.708   1.171  0.2851  0.2769  0.2620
12608W        W30132  15.017   0.833  16.239  0.0295  0.1088 -0.1256
12609W        W30133  12.841   0.504  12.507 -0.0296  0.3828 -0.0696
12610W        W30134   9.596  17.530  11.745 -0.2652 -0.0467 -0.2850
12611W        W30135  10.718   3.651   3.483  0.0736  0.2122  0.0220
12612W        W30136  14.198  17.250  15.095 -0.1794  0.0490 -0.0663
12613W        W30137  17.614   1.227  15.606  0.0838 -0.1462  0.2718
12614W        W30138  11.139   5.347   0.641  0.0278  0.1099 -0.3336
12615W        W30139  16.128   9.409   5.865 -0.0268  0.1181  0.1444
12616W        W30140   6.845  17.675  15.587  0.0690  0.2961 -0.1022
12617W        W30141   3.882   9.832  13.401  0.0170  0.2589  0.1149
12618W        W30142  10.371   4.167  12.449 -0.1175  0.1010  0.1055
12619W        W30143   9.189  14.541   2.915  0.1037 -0.0618  0.1451
12620W        W30144  16.600   6.046  13.911  0.1349  0.1035  0.3101
12621W        W30145   7.427  11.947   4.608  0.2315 -0.2912  0.1787
12622W        W30146   4.561  10.714  15.122 -0.1691 -0.0738 -0.2068
12623W        W30147   4.504   3.660   2.995 -0.0376  0.1472  0.4785
12624W        W30148   2.215   7.249  15.665  0.3529 -0.2236 -0.1217
12625W        W30149   4.846   8.458   2.768  0.0455  0.1812 -0.0093
12626W        W30150   0.056  15.927   4.851  0.0240  0.1082  0.2576
12627W        W30151   5.619  10.168   0.421  0.0309 -0.0906 -0.1311
12628W        W30152   7.371   1.123   0.523  0.0680 -0.0200 -0.0311
12629W        W30153  10.883   2.874  11.674 -0.3165  0.1375 -0.0912
12630W        W30154  15.220   2.974   0.900  0.0965 -0.0182 -0.0098
12631W        W30155   2.849  11.229   3.965 -0.0219 -0.0630 -0.1667
12632W        W30156   9.714  11.550   4.253  0.0286 -0.0428 -0.1596
12633W        W30157  14.225  12.256   0.774 -0.1123 -0.2351  0.2322
12634W        W30158  13.886  11.844  15.537  0.0211  0.0025  0.2227
12635W        W30159  17.722   4.084   5.255 -0.0214  0.0215  0.2022
12636W        W30160   0.219  12.667   4.108  0.0343 -0.1617 -0.0961
12637W        W30161   2.208   2.743   4.950 -0.0913  0.0367 -0.0514
12638W        W30162   4.999  10.015  15.791 -0.0416  0.0715  0.3695
12639W        W30163   7.122   5.599  14.341  0.0039 -0.1759 -0.1297
12640W        W30164   5.493   8.657  15.671 -0.0465 -0.0446 -0.2354
12641W        W30165  11.931  15.664  15.053  0.0414 -0.2766  0.2493
12642W        W30166   3.406   6.689   3.367  0.1800 -0.2379  0.1926
12643W        W30167   5.243   6.193  13.503 -0.1666  0.0778  0.0466
12644W        W30168  12.313   8.888  11.371 -0.2768 -0.3096 -0.2210
12645W        W30169  12.367   5.021   1.888  0.1830  0.0799  0.0570
12646W        W30170   0.076   1.269  14.571  0.2327  0.2188 -0.0789
12647W        W30171  10.187   4.050  14.669 -0.1121  0.2109  0.3447
12648W        W30172   6.839   1.020  12.236  0.2682 -0.1355 -0.0101
12649W        W30173   1.519  14.018  15.195  0.1162  0.0997  0.2388
12650W        W30174  14.155   5.391  12.201  0.1064  0.2622  0.1958
12651W        W30175   5.784  12.676   4.093 -0.1202 -0.1477 -0.3263
12652W        W30176   2.078  15.252   0.906 -0.3035  0.0151  0.0632
12653W        W30177   2.689   0.264  14.802 -0.0655 -0.0864 -0.1572
12654W        W30178   2.660  10.109  14.909  0.0819 -0.0587 -0.1470
12655W        W30179  12.105   2.893   3.590 -0.3361 -0.0904  0.1857
12656W        W30180   5.142  10.022   3.759 -0.0837 -0.2430 -0.1102
12657W        W30181  15.102   3.701  12.018  0.2392  0.2645  0.0197
12658W        W30182   1.354  17.573  15.704  0.0070  0.2018 -0.1944
12659W        W30183  10.070   3.521   1.178  0.0089  0.0424 -0.0786
12660W        W30184   8.813   3.809  13.646  0.0402 -0.2858 -0.0452
12661W        W30185  15.401  12.789   0.106 -0.1194  0.3671  0.2602
12662W        W30186  13.303  15.946   3.616 -0.1352  0.2597  0.1171
12663W        W30187   4.608  12.332  14.105 -0.0737 -0.0135  0.0840
12664W        W30188   6.311   6.022  15.493 -0.2829  0.2084  0.0165
12665W        W30189   7.595  15.162  11.429  0.2339 -0.0512 -0.1215
12666W        W30190   3.466   1.710  15.698 -0.1337  0.2767 -0.0946
12667W        W30191   4.548   9.509  12.501  0.4708  0.1551 -0.1784
12668W        W30192  13.139   5.064   3.892  0.0307 -0.1064  0.1880
12669W        W30193   5.654   1.803  13.332 -0.2483 -0.1228 -0.4873
12670W        W30194  16.866  11.370   1.028  0.3379 -0.1726 -0.0324
12671W        W30195  13.388   8.943  11.741 -0.0410  0.1392 -0.2014
12672W        W30196  12.692  17.305   0.226  0.3441 -0.1776 -0.0217
12673W        W30197   8.405   3.520  14.880 -0.1092  0.0027 -0.2587
12674W        W30198   2.085   0.727   2.478 -0.2501  0.0155  0.1195
12675W        W30199   7.897   8.155   2.742 -0.0670  0.1227  0.3224
12676W        W30200   4.076   0.626  12.375 -0.0665  0.0465 -0.1351
12677W        W30201   4.607   2.380   4.132 -0.0801  0.2792 -0.0941
12678W        W30202   9.915   0.782   0.821  0.0186  0.2320  0.1357
12679W        W30203   0.390   3.120  15.982  0.1376 -0.0596 -0.0342
12680W        W30204  10.020   9.226  14.506  0.2121  0.2625  0.3021
12681W        W30205  10.466   9.593  12.030  0.1874 -0.3662 -0.2734
12682W        W30206   1.059   8.986   1.496 -0.0251 -0.1405 -0.1407
12683W        W30207  16.195  14.443  12.361  0.0616  0.1957  0.0217
12684W        W30208   9.857   6.740  13.980  0.1249 -0.1101 -0.2339
12685W        W30209  13.350   0.302  15.673 -0.1286  0.2459  0.0454
12686W        W30210   4.337  17.325  12.346  0.0207  0.0814 -0.2002
12687W        W30211  17.610  16.144   4.048  0.2038  0.0795  0.1102
12688W        W30212   1.715   2.476  14.442 -0.0434  0.0482  0.1592
12689W        W30213   3.150   2.875   1.108  0.1574 -0.0097  0.1041
12690W        W30214   0.270   0.610  11.283 -0.0163  0.1252  0.2667
12691W        W30215  12.702   0.180   3.534  0.1045  0.1832 -0.1357
12692W        W30216  17.688   9.013   4.781 -0.2061 -0.0274  0.0242
12693W        W30217   0.628   4.707   0.449  0.0504  0.2235  0.0156
12694W        W30218   9.393  13.218  14.700  0.1012 -0.2366 -0.3595
12695W        W30219   3.733  16.353  14.364 -0.1099 -0.0423  0.0779
12696W        W30220   4.917   5.015  13.411  0.2927 -0.2175  0.1049
12697W        W30221   3.503   0.894  15.960 -0.2430 -0.0305  0.2034
12698W        W30222  11.680   5.123   2.769 -0.1096  0.1367 -0.4146
12699W        W30223   1.727  16.323  13.642  0.2585  0.2030  0.1312
12700W        W30224  17.388  13.906  10.548  0.3769 -0.2689 -0.0775
12701W        W30225  10.467   8.050   0.409  0.0226 -0.0737 -0.0499
12702W        W30226   1.859   4.078   1.941  0.1750 -0.1819  0.0838
12703W        W30227   8.080   6.997  14.101 -0.0341  0.0426  0.0554
12704W        W30228  16.464  13.745   3.970 -0.0752 -0.1308  0.2223
12705W        W30229   3.455  14.723  11.742  0.1719  0.1277 -0.0174
12706W        W30230  10.313  14.618   6.154 -0.1107 -0.2872 -0.1043
12707W        W30231  14.755   5.687  14.246 -0.1196  0.1741  0.0463
12708W        W30232   2.412  16.745  11.674 -0.0216  0.2593  0.4162
12709W        W30233  14.390   7.847  11.662 -0.0584  0.2285  0.2523
12710W        W30234  17.353  14.251   3.726  0.0357 -0.0134 -0.1091
12711W        W30235  16.451  11.540   2.357 -0.2029 -0.0857 -0.1757
12712W        W30236   6.178   6.662  10.379  0.1335  0.1212 -0.0204
12713W        W30237   6.777  15.412   4.658  0.0558  0.5890 -0.1264
12714W        W30238   1.625  12.531   1.031 -0.0107  0.2269  0.2921
12715W        W30239   6.881   8.174  11.577  0.0134  0.1083 -0.3405
12716W        W30240  14.090  15.926  13.437  0.1855 -0.2040  0.0679
12717W        W30241   6.607   5.052  11.706  0.1192 -0.0884 -0.0986
12718W        W30242   0.815  16.402  15.849  0.1661 -0.0012  0.0025
12719W        W30243   5.009   9.178   4.053  0.1819 -0.2058 -0.1006
12720W        W30244  17.309   6.602   1.246 -0.0492  0.1658 -0.3124
12721W        W30245  17.232   9.156   3.247 -0.1699 -0.2353  0.2668
12722W        W30246  11.946   4.140  13.692 -0.0687  0.1162  0.0004
12723W        W30247   3.105   0.473   4.897  0.2704  0.0122 -0.0627
12724W        W30248  14.672   4.985   4.386 -0.1056  0.0486 -0.0524
12725W        W30249   9.925   9.891   0.897  0.0113  0.1039 -0.1365
12726W        W30250  17.143   3.368   5.378  0.3202  0.0088 -0.0827
12727W        W30251  10.663  15.568  11.071  0.1469  0.0670  0.0804
12728W        W30252  14.308   6.056  12.858 -0.1433 -0.1242 -0.1577
12729W        W30253  10.160   4.070   0.057 -0.0627  0.0547 -0.1814
12730W        W30254  10.776  17.077   3.286  0.2552 -0.3587 -0.0194
12731W        W30255   0.673   0.484   2.421 -0.3307  0.1454  0.2004
12732W        W30256  17.419   2.850  13.613 -0.0314 -0.3345 -0.1395
12733W        W30257  14.916   6.636  13.196  0.1438  0.1813  0.3251
12734W        W30258   8.331   3.102  12.487 -0.4135 -0.1404  0.1396
12735W        W30259  15.389   0.779   2.277 -0.1206  0.0821  0.2230
12736W        W30260   9.479   6.445   0.568 -0.3466 -0.1662 -0.1039
12737W        W30261   0.377  13.284  12.851 -0.0375  0.0365 -0.2703
12738W        W30262  14.259   6.065  14.760  0.2333  0.1478 -0.0126
12739W        W30263   9.916  11.993   3.974  0.1070  0.1640  0.0784
12740W        W30264   0.705  12.197  12.642  0.0054 -0.0094 -0.0135
12741W        W30265   7.523   1.919   3.051 -0.3591 -0.1155  0.0519
12742W        W30266  13.355  17.902   2.193  0.0130 -0.0279 -0.0624
12743W        W30267  17.708  16.603  12.715  0.4174  0.2217 -0.0558
12744W        W30268  15.387  17.792   1.882 -0.3028  0.3424 -0.0585
12745W        W30269  11.228  17.810  12.215 -0.0683  0.1285  0.0653
12746W        W30270  16.712   6.074   3.786  0.1367  0.0328  0.1557
12747W        W30271   2.470  13.562  13.573  0.0504 -0.0562 -0.1044
12748W        W30272  11.982  12.969  14.800  0.2137 -0.0271 -0.1188
12749W        W30273   5.909   1.817  12.293 -0.1025 -0.0835  0.0467
12750W        W30274   5.361   1.674   2.992 -0.0815 -0.0487  0.0176
12751W        W30275  10.722  13.034   2.382 -0.1039  0.1246  0.4278
12752W        W30276   1.169   1.424  14.140 -0.1952  0.1903 -0.0875
12753W        W30277   1.835   1.271   2.542 -0.0297  0.1398 -0.1744
12754W        W30278   1.870  15.537   3.404  0.0821 -0.0805  0.0009
12755W        W30279   9.949   5.326   1.884 -0.0030 -0.1862  0.0023
12756W        W30280   3.899  14.013   5.729  0.1766 -0.1085  0.1333
12757W        W30281   8.742  14.713   0.836  0.1712 -0.0602 -0.2163
12758W        W30282  10.147  10.916  14.648 -0.0049 -0.0129  0.1508
12759W        W30283   4.817  13.276   4.039 -0.0367  0.0852 -0.0576
12760W        W30284   3.164   5.347  16.105 -0.1589  0.3595 -0.0896
12761W        W30285  17.088  17.323  11.593 -0.1218  0.0993  0.1882
12762W        W30286   8.557   8.696  13.330 -0.1444 -0.2374 -0.0856
12763W        W30287  17.085   8.515  13.384 -0.2785 -0.0738  0.1906
12764W        W30288   0.204   4.329  13.634  0.0917 -0.0573  0.0273
12765W        W30289   8.646  13.711  12.264  0.2502 -0.2091  0.0950
12766W        W30290   8.952   7.544  12.686 -0.1381  0.1578  0.0166
12767W        W30291   1.775  11.090  11.877  0.4203 -0.1817  0.0288
12768W        W30292   7.441   9.413  15.439  0.3708  0.2818 -0.0919
12769W        W30293  10.191  15.448  13.628 -0.2213  0.0341 -0.0363
12770W        W30294   1.432   8.444   0.535  0.1362 -0.0017 -0.1018
12771W        W30295   9.124   8.465  16.138  0.1263 -0.2465 -0.0343
12772W        W30296   6.854  15.556  14.089  0.0831  0.2639 -0.0259
12773W        W30297  17.705   0.082   0.839 -0.1006  0.0770 -0.2829
12774W        W30298   7.384   1.281  12.964  0.2255  0.0871  0.2443
12775W        W30299  12.710   5.998   4.367  0.1061  0.0630  0.0314
12776W        W30300   6.845  17.846   0.793 -0.0010 -0.1004 -0.1743
12777W        W30301   8.328  15.346  13.097  0.0009  0.0021 -0.0312
12778W        W30302   8.548   5.118  16.030 -0.0420  0.2421 -0.0821
12779W        W30303   5.573   5.262   5.453  0.0945  0.2146  0.0413
12780W        W30304  13.053   7.905   0.441  0.0048  0.1314  0.1945
12781W        W30305  15.368  11.239  15.473 -0.1460  0.1203 -0.0281
12782W        W30306  11.764   4.426   2.933  0.0656  0.0718 -0.0748
12783W        W30307  14.579  10.906  14.283 -0.0235  0.2195  0.1454
12784W        W30308   2.378   5.725   2.889 -0.0344  0.0563  0.4393
12785W        W30309  17.650   7.176   5.431  0.0503 -0.2754  0.3192
12786W        W30310   2.515  12.827   1.246  0.0136  0.1858  0.0123
12787W        W30311  15.565  11.381   2.708 -0.4141 -0.1100  0.1877
12788W        W30312   1.083  14.826   3.324 -0.2382  0.1921 -0.2190
12789W        W30313   5.414   8.130   0.600 -0.0044  0.3178  0.1042
12790W        W30314   5.461   6.312  12.441 -0.1034  0.3415 -0.2790
12791W        W30315  15.960  17.424  13.423  0.0941  0.1803  0.2467
12792W        W30316   9.362   7.593  13.971 -0.0308  0.2800  0.0021
12793W        W30317  10.508   1.273  14.598 -0.2751 -0.0317 -0.1255
12794W        W30318   5.737   6.738   4.451 -0.2061 -0.1706  0.0686
12795W        W30319   4.325   2.203  15.590 -0.1901  0.0234  0.1686
12796W        W30320   2.121   8.932   1.034 -0.0555  0.0102  0.1563
12797W        W30321  13.405  15.860  14.847 -0.3174  0.0370 -0.0053
12798W        W30322   0.334  13.068  13.738  0.1801  0.1791 -0.2248
12799W        W30323   2.400  15.473   3.219 -0.0129 -0.0906  0.3171
12800W        W30324  15.614   2.854   1.198 -0.2034  0.2688 -0.0034
12801W        W30325  10.385   3.471   3.081  0.0493 -0.0025  0.2893
12802W        W30326   2.179   5.813  15.739 -0.1126 -0.0609  0.2098
12803W        W30327  11.054  14.068  15.853  0.0899 -0.1852 -0.2923
12804W        W30328  15.767  17.849   1.426 -0.0804 -0.1707 -0.1361
12805W        W30329   3.540  12.407  15.683  0.1148  0.1343 -0.1173
12806W        W30330  15.352   9.121   2.817 -0.0849  0.1080 -0.0462
12807W        W30331   5.478  10.016  14.408  0.0126  0.0682 -0.2315
12808W        W30332   7.933   7.227   4.999 -0.0002 -0.1882  0.0080
12809W        W30333   8.885  10.097   0.885 -0.2853  0.3309  0.0872
12810W        W30334   3.069   1.884   5.296  0.0627  0.1885  0.0350
12811W        W30335   6.273   8.952  11.451  0.1506  0.0186  0.0182
12812W        W30336  12.751   9.168  11.339 -0.0696  0.0844  0.1620
12813W        W30337  15.615   1.034  11.410  0.0917 -0.0027 -0.2142
12814W        W30338   5.458   9.503   5.210 -0.0338  0.0274  0.0664
12815W        W30339  16.342  14.963  13.165  0.0106 -0.1250 -0.2072
12816W        W30340   4.406   7.289  14.151 -0.3740  0.1756 -0.0561
12817W        W30341   0.832   0.901   2.856 -0.0029  0.0733  0.1517
12818W        W30342   2.434  14.932   4.369 -0.0755 -0.0466  0.2969
12819W        W30343  10.479  17.735  13.608  0.1075 -0.0645  0.0332
12820W        W30344   3.426   8.759   3.876 -0.0478  0.1201  0.1114
12821W        W30345   3.758  15.215  14.265 -0.1174 -0.1522 -0.1293
12822W        W30346   0.288  14.809  14.150 -0.1606  0.2655 -0.2513
12823W        W30347  14.497  10.304   3.841 -0.0087  0.0955 -0.0502
12824W        W30348   3.833  15.400  13.744  0.1126  0.2321 -0.0012
12825W        W30349  16.232   3.759   1.097  0.0471 -0.1932  0.1977
12826W        W30350  17.554   0.608   0.805 -0.0434 -0.0118 -0.1348
12827W        W30351   0.337   6.905  15.216 -0.1320 -0.2962 -0.0800
12828W        W30352  13.978  17.565   4.859  0.0569 -0.1684  0.1957
12829W        W30353  12.795   8.791   3.545 -0.0471 -0.1168 -0.0145
12830W        W30354   9.795   3.545   5.662 -0.1393  0.1847 -0.0554
12831W        W30355   1.988  11.125   1.360 -0.3557  0.0180 -0.0505
12832W        W30356  17.857   0.173   3.577 -0.1288  0.3603  0.3112
12833W        W30357   0.171  13.907   3.446  0.1584  0.1424 -0.2587
12834W        W30358  16.492   2.140  11.139 -0.1647  0.0570 -0.1783
12835W        W30359  17.131   3.864  14.640 -0.2127  0.1596 -0.0487
12836W        W30360  15.086   3.617  10.744 -0.0142  0.0466  0.1160
12837W        W30361  17.687  13.983  15.037  0.2575  0.0386 -0.0363
12838W        W30362   9.382  13.382  15.665 -0.2084 -0.1232  0.1221
12839W        W30363  10.117   4.937   5.026  0.0282 -0.1710  0.0983
12840W        W30364  15.290   3.362  15.133  0.1414 -0.0206 -0.1355
12841W        W30365   2.227  17.648   1.670 -0.0481  0.1389  0.1870
12842W        W30366  14.555  10.614  10.120  0.3084  0.2127  0.0613
12843W        W30367  14.714  17.081  15.048  0.1322 -0.0087  0.0296
12844W        W30368  16.654  13.050   4.211  0.1707  0.1196 -0.3322
12845W        W30369   2.092   0.195  11.828 -0.0843 -0.2883 -0.1228
12846W        W30370   3.896   6.141  14.966  0.1079  0.0202  0.0058
12847W        W30371   1.415  14.145  13.331 -0.1851 -0.3585 -0.1684
12848W        W30372   6.004   5.095   2.276  0.1403  0.1706 -0.1811
12849W        W30373  10.956   7.315  12.643  0.0938 -0.0521 -0.0752
12850W        W30374  14.805   8.456  12.274 -0.1748  0.0779  0.4063
12851W        W30375  10.670   1.945   1.379 -0.0468  0.0598 -0.2419
12852W        W30376   0.398  15.696  16.170 -0.1151  0.1308  0.1155
12853W        W30377  16.844   3.052   0.733  0.5458 -0.0293  0.2111
12854W        W30378   4.347  11.503   1.085  0.1260  0.1135  0.2391
12855W        W30379   4.138   9.854   4.233 -0.0941  0.0124  0.2838
12856W        W30380  14.577  10.882  11.827 -0.2291 -0.3606  0.2286
12857W        W30381   2.932   4.460  15.138  0.0806 -0.2680 -0.2268
12858W        W30382  13.478   5.172   2.634 -0.3396 -0.1474 -0.0503
12859W        W30383   4.615   2.831   3.437  0.2319 -0.0006  0.0030
12860W        W30384  12.460   5.061  14.797 -0.1613  0.0001  0.1481
12861W        W30385  16.712   9.016   4.611 -0.0402 -0.0979 -0.0268
12862W        W30386  12.122  16.801  12.483  0.2953  0.0233  0.1446
12863W        W30387  10.649   7.145  13.448 -0.1056  0.1163 -0.1164
12864W        W30388   6.716  17.657   4.567 -0.0090 -0.3231  0.2699
12865W        W30389   0.692  14.843   1.328  0.0722  0.1866 -0.0903
12866W        W30390  14.157  16.229  14.264  0.0077  0.1845  0.1662
12867W        W30391   4.122   9.540  15.583 -0.1344  0.2248 -0.2210
12868W        W30392  13.133   2.062   4.093 -0.1253  0.0342  0.1231
12869W        W30393  13.685   9.611  13.218  0.1673  0.0111 -0.0324
12870W        W30394  14.205  11.650  11.586 -0.2674  0.0650  0.0511
12871W        W30395  14.421   3.495  15.860  0.0182  0.1750 -0.3115
12872W        W30396  12.218   3.091  11.469 -0.2081 -0.1257  0.0629
12873W        W30397   6.840   1.104  14.749 -0.1360  0.2236  0.1746
12874W        W30398   2.958  12.032  14.399 -0.0308  0.0917  0.0385
12875W        W30399   1.334   6.963   6.158  0.1598 -0.0983  0.0697
12876W        W30400   2.458   2.576   3.471 -0.0760  0.0043  0.0532
12877W        W30401  17.962  10.861   4.673 -0.0252 -0.1068  0.3750
12878W        W30402  15.568   6.337  16.014  0.1589  0.3616 -0.0897
12879W        W30403  13.464  14.930   1.221  0.1221  0.5702 -0.2778
12880W        W30404  11.719   5.165  16.022 -0.1448 -0.0195  0.0363
12881W        W30405   0.665  17.732   0.862  0.0912  0.0919 -0.2088
12882W        W30406  17.155  17.687   3.111  0.1031  0.0017  0.0875
12883W        W30407   3.038  10.831  16.009 -0.3966  0.0413 -0.1953
12884W        W30408   8.585   9.523  12.207 -0.0142  0.4657  0.1738
12885W        W30409   7.700   9.914   0.413 -0.1021 -0.3089 -0.1464
12886W        W30410  13.590   3.033  15.006 -0.0023  0.2405  0.3197
12887W        W30411   4.078   8.652  11.973 -0.1790 -0.0746  0.4957
12888W        W30412   3.103  15.149   1.590 -0.0245  0.0770 -0.1279
12889W        W30413  17.746  16.064  14.929 -0.0114  0.0626  0.1963
12890W        W30414   6.046  12.329   0.330 -0.0993  0.1060 -0.2259
12891W        W30415   7.578   4.219  11.377 -0.2449 -0.0567 -0.0960
12892W        W30416   0.473   0.677  13.325  0.2798 -0.1287  0.3154
12893W        W30417   8.870  13.240  14.818 -0.0199 -0.1053 -0.0689
12894W        W30418  10.525  17.282  15.954  0.1490  0.1183  0.0370
12895W        W30419   1.603  11.352   3.096  0.0432 -0.1441  0.0252
12896W        W30420   7.325   8.007  12.090 -0.0236 -0.1959 -0.2162
12897W        W30421  17.410   6.274  14.027 -0.1146 -0.1468 -0.2538
12898W        W30422  12.901   9.876  14.295  0.0881  0.0338  0.3006
12899W        W30423  12.520  12.940   2.184  0.1452  0.0908 -0.1182
12900W        W30424   3.784   3.662   4.329  0.1946  0.0804  0.1434
12901W        W30425   8.327  17.444  12.025  0.2818 -0.0547 -0.1644
12902W        W30426   5.579  13.737   0.052 -0.1197  0.2125 -0.0316
12903W        W30427   4.222   7.746   4.247  0.1033  0.0771  0.2325
12904W        W30428   8.909   1.039  15.462 -0.2955 -0.1218 -0.0318
12905W        W30429   0.013  17.078   0.523  0.4192 -0.1220 -0.1147
12906W        W30430  16.015  10.013  15.897  0.0909 -0.2730 -0.0857
12907W        W30431  16.296  13.089  14.074 -0.0729 -0.3253  0.1174
12908W        W30432  17.408   3.266   2.531 -0.1113  0.2368  0.0153
12909W        W30433  12.533   6.710   2.257  0.1482  0.0262 -0.1042
12910W        W30434  11.509  14.127  12.534 -0.2115 -0.4468  0.2752
12911W        W30435   0.605   3.306   4.241 -0.2257  0.2459  0.0839
12912W        W30436  10.242  15.449   2.878  0.0083  0.2063 -0.2393
12913W        W30437   1.310  14.897   0.574 -0.4741  0.2606 -0.0619
12914W        W30438  14.371   9.624   0.786 -0.1256 -0.1061  0.1104
12915W        W30439   8.591  12.692   2.048  0.1561  0.0926  0.0449
12916W        W30440   1.984  17.139  15.563 -0.2767 -0.0281  0.0819
12917W        W30441   3.369   3.438  13.414  0.1651 -0.1460  0.1359
12918W        W30442   6.692  13.174   4.858 -0.0970 -0.2507  0.3283
12919W        W30443   0.368   2.694   1.111  0.2815 -0.0090 -0.1645
12920W        W30444  14.795   2.676  12.128  0.0087 -0.1960 -0.0410
12921W        W30445   9.465  14.824   4.702 -0.0457 -0.0695  0.2720
12922W        W30446   2.613  16.960  14.119  0.2927 -0.1112  0.1924
12923W        W30447   2.821   7.349  14.023  0.0330 -0.3324 -0.0918
12924W        W30448   2.377   2.206  11.861  0.0612 -0.0511 -0.0640
12925W        W30449   9.561   8.490  15.801  0.1096 -0.0185  0.2087
12926W        W30450  16.161   1.636  14.726  0.2276  0.1545  0.3757
12927W        W30451  10.794  11.509   4.486 -0.1129  0.1528 -0.2864
12928W        W30452   4.588   8.678  15.399 -0.1423 -0.1562  0.0040
12929W        W30453  16.522   4.985  12.139 -0.0396  0.3205 -0.0213
12930W        W30454   7.116  11.209  13.675 -0.0817  0.0224 -0.2186
12931W        W30455   4.412   7.591   4.647 -0.3180 -0.2223  0.0169
12932W        W30456  16.794  10.192   1.926  0.1521 -0.0908 -0.0896
12933W        W30457   1.280   7.566   2.016  0.1698  0.1937  0.0560
12934W        W30458  17.217   0.524   1.933 -0.1689  0.0699 -0.0473
12935W        W30459  15.905   5.701   0.851  0.3728  0.0636  0.1479
12936W        W30460   6.727  10.957  14.453  0.2595 -0.0529  0.1218
12937W        W30461  16.714   2.491  13.180  0.0214  0.0265 -0.0801
12938W        W30462  13.898   3.826   0.791 -0.1786 -0.1390  0.1431
12939W        W30463   8.349   3.440   0.829  0.1785  0.2543  0.0526
12940W        W30464  16.753  17.475  12.071 -0.2922 -0.0253 -0.0599
12941W        W30465   6.846   3.019   2.539  0.0591 -0.0280  0.3777
12942W        W30466   3.285  10.336   1.125 -0.2684 -0.2277  0.1581
12943W        W30467  13.156   5.299  13.858  0.0941 -0.1803  0.0059
12944W        W30468  10.465  10.641  14.941 -0.0541 -0.3080  0.1049
12945W        W30469   8.507  14.414   1.134  0.3058  0.4178 -0.2772
12946W        W30470  16.334   8.201  13.962  0.1510 -0.0212 -0.1770
12947W        W30471   0.140   3.233   3.319 -0.1370 -0.1227 -0.1187
12948W        W30472  16.077   9.861   3.120 -0.0941 -0.0645  0.1250
12949W        W30473   2.601   5.268  11.557 -0.2192 -0.0142 -0.0101
12950W        W30474  13.167   0.444   4.474 -0.3574 -0.2181 -0.0067
12951W        W30475  17.245   1.621  10.368  0.0651 -0.2094  0.0048
12952W        W30476   5.668  14.828   1.497  0.0399  0.1760 -0.2125
12953W        W30477  14.533  11.819   0.775  0.3458 -0.0205 -0.1039
12954W        W30478  13.887  13.200   3.551  0.0349 -0.1481 -0.0440
12955W        W30479   0.082   9.351   4.927 -0.2672 -0.3318 -0.0229
12956W        W30480  12.731   3.003  12.462  0.1367 -0.1820  0.1925
12957W        W30481   4.333   2.139   4.893  0.0502  0.1441 -0.1210
12958W        W30482  16.084  11.593  11.751 -0.1017 -0.0224  0.2455
12959W        W30483  14.091  14.415   0.964 -0.1904  0.1677 -0.0996
12960W        W30484   6.983   2.605   2.769 -0.2712  0.2071  0.1421
12961W        W30485   4.642  10.747   2.289  0.1059 -0.2571  0.0443
12962W        W30486  13.668  11.408  12.339 -0.1446  0.0043  0.0373
12963W        W30487  14.461  10.402  13.138  0.0316  0.2328  0.3572
12964W        W30488  11.562   5.041  12.694  0.0603 -0.3150 -0.0326
12965W        W30489  17.890  12.044   0.059 -0.0296  0.0235 -0.0008
12966W        W30490   9.944  12.502  14.058 -0.4418  0.0127  0.0353
12967W        W30491   8.764   5.598  12.936  0.0116 -0.4626  0.0510
12968W        W30492   6.733  13.947  13.227  0.3980 -0.1441  0.1115
12969W        W30493  17.717   5.104   2.753  0.2169  0.1645 -0.1359
12970W        W30494  11.460  10.641  11.521  0.1698  0.2401  0.0084
12971W        W30495  16.314   8.005   0.508 -0.3209  0.0237  0.2231
12972W        W30496  14.501  14.648  15.918  0.0435  0.2783 -0.1313
12973W        W30497  12.785   6.345  15.477  0.0523 -0.1760  0.1485
12974W        W30498   6.182  15.775  14.912 -0.0773 -0.2006  0.0321
12975W        W30499  13.797   9.869   1.629 -0.1015  0.0864 -0.0352
12976W        W30500  16.296   4.646   1.140 -0.1370 -0.0490 -0.3978
12977W        W30501  12.579  15.590   2.177 -0.3594 -0.0559  0.2794
12978W        W30502  14.257  16.139   2.494  0.1546  0.0749 -0.0649
12979W        W30503  14.593  13.169  12.578  0.0907 -0.1136 -0.0184
12980W        W30504   7.305  12.636  14.223 -0.0356 -0.2664  0.1141
12981W        W30505   4.893   3.589  15.026  0.0763 -0.1173  0.4965
12982W        W30506   6.596   9.261  16.017  0.3247 -0.2287 -0.0612
12983W        W30507   7.582   3.910   2.193 -0.1109  0.1090 -0.1719
12984W        W30508   2.226   0.671  11.670 -0.2447 -0.0455  0.0219
12985W        W30509  10.684   3.845  14.532  0.0521  0.2659 -0.0481
12986W        W30510   4.718  16.345  15.487  0.1304 -0.1971  0.3234
12987W        W30511  16.773  17.753  12.953 -0.1998  0.1917  0.0753
12988W        W30512   3.066   5.391   3.708 -0.0801 -0.0565  0.0811
12989W        W30513  14.687   1.052   0.273  0.1983 -0.1783  0.1421
12990W        W30514  13.157   5.588  15.265 -0.0048  0.2364 -0.0732
12991W        W30515  12.731   7.904   4.369  0.0504  0.0225  0.0064
12992W        W30516   8.672   5.231  12.109 -0.0562  0.5282 -0.2639
12993W        W30517   5.656  16.145  11.496 -0.2865 -0.0988 -0.1592
12994W        W30518   0.426  12.573   1.358 -0.0143  0.0574  0.0970
12995W        W30519   1.738  11.988  13.519  0.0297 -0.0722  0.0307
12996W        W30520   9.507  10.748  12.854  0.0832 -0.5094  0.1259
12997W        W30521   9.926  17.579  15.373 -0.1982  0.2742 -0.2892
12998W        W30522  14.006  13.543  10.424 -0.1302  0.3296  0.1559
12999W        W30523   4.625   2.595   2.322 -0.0394  0.0751  0.2889
13000W        W30524   6.471  17.501   3.341 -0.3469 -0.0052  0.0787
13001W        W30525   3.023   0.470   0.758 -0.3200  0.2069  0.0719
13002W        W30526   4.143  12.475   4.638 -0.0031 -0.0923  0.0048
13003W        W30527  13.010   3.878  12.104  0.0416 -0.1017 -0.2187
13004W        W30528  15.235   8.161   5.484 -0.0884  0.0975  0.0479
13005W        W30529  16.141   5.687  11.556 -0.0527 -0.2584 -0.1603
13006W        W30530   5.632   6.459  13.504 -0.2220  0.2027  0.0540
13007W        W30531   7.557  13.999   3.615 -0.0763  0.0655  0.2635
13008W        W30532   1.946   9.653   2.115  0.0597  0.3446 -0.0972
13009W        W30533   7.653   7.659  11.912  0.1154 -0.1400 -0.2236
13010W        W30534   2.801  15.474  12.892 -0.0802  0.2169 -0.0534
13011W        W30535  16.743  13.675   0.936  0.0955  0.2745 -0.0593
13012W        W30536  12.823  15.256   2.547 -0.0794 -0.0473  0.1080
13013W        W30537   1.594   8.275   1.565  0.1204 -0.0599  0.2586
13014W        W30538  14.944  12.490   1.664  0.0673 -0.1978  0.1242
13015W        W30539   8.386   8.022   2.687  0.2087 -0.1580  0.0391
13016W        W30540  12.035   3.168   1.752  0.1803  0.1979 -0.0463
13017W        W30541  15.154   0.751   1.235  0.2355 -0.1252 -0.0619
13018W        W30542  17.924   2.076   1.578 -0.0054 -0.0221  0.0066
13019W        W30543   0.454   0.802   4.727 -0.0121 -0.3405  0.0889
13020W        W30544  14.784  11.857   4.326  0.2219 -0.1278 -0.1993
13021W        W30545  14.335   5.084   4.773  0.1579 -0.0063 -0.2789
13022W        W30546   3.606  12.840   3.641 -0.2678 -0.3110 -0.1043
13023W        W30547  17.821  10.238   1.977 -0.0901 -0.1117  0.0495
13024W        W30548  17.799   4.996   3.620 -0.0561 -0.3189 -0.0869
13025W        W30549   9.790  11.056  15.576 -0.0184  0.1537 -0.1289
13026W        W30550  13.933   2.089   4.576 -0.0866 -0.0706  0.0229
13027W        W30551  14.947   1.541  12.692  0.2942  0.2523  0.3005
13028W        W30552   8.513   8.665   4.425 -0.0570  0.0243 -0.2858
13029W        W30553   5.813   7.937  11.628  0.3041  0.3148 -0.0192
13030W        W30554  10.087  17.419  11.707 -0.2048  0.0023  0.2040
13031W        W30555  17.782  11.411  10.740 -0.2368 -0.0292  0.1069
13032W        W30556   0.693   1.806  13.575 -0.3084  0.0208 -0.1708
13033W        W30557   4.058   7.827   1.889  0.1489 -0.1257  0.2018
13034W        W30558   7.523  10.435   2.983 -0.2311 -0.1075  0.0119
13035W        W30559   1.745  13.007  12.082  0.1824  0.0093 -0.0553
13036W        W30560   8.229  15.929  12.655 -0.1921 -0.0569 -0.0884
13037W        W30561  10.487   3.644   4.052 -0.0895  0.1282  0.1334
13038W        W30562  12.321   9.605   2.497 -0.1725  0.0713  0.3003
13039W        W30563  14.320  10.043   5.462  0.0328  0.2416 -0.2301
13040W        W30564   8.679   8.681  15.827  0.4969  0.0569  0.0927
13041W        W30565  14.745   9.614  14.248 -0.1768  0.0513  0.0087
13042W        W30566  10.671  14.018   1.292  0.2835 -0.4118 -0.0613
13043W        W30567  17.665   9.551  15.247 -0.0929 -0.3071 -0.0605
13044W        W30568  14.396  11.250  12.548 -0.2412 -0.2535  0.1837
13045W        W30569   6.386  14.291   2.780 -0.1538  0.2627 -0.0458
13046W        W30570  13.194   2.982   0.165 -0.0317 -0.1248 -0.2163
13047W        W30571   8.952   3.096  11.158  0.4955 -0.0555 -0.1698
13048W        W30572   9.128  11.895   0.234  0.0149  0.1830  0.0254
13049W        W30573   7.328   6.328  12.225 -0.2026  0.1603  0.0490
13050W        W30574  14.233   5.034   0.091 -0.3126  0.1371  0.2076
13051W        W30575  11.938   7.863  15.393 -0.1848  0.0533  0.1719
13052W        W30576  16.787   4.924  15.229 -0.3128 -0.1774  0.2935
13053W        W30577   5.955  14.009   3.214  0.0833 -0.2045  0.1025
13054W        W30578   5.013   6.718   2.079  0.2483  0.0665  0.0074
13055W        W30579   0.663   3.036   4.649  0.1070  0.1903 -0.0577
13056W        W30580   3.342   6.940   1.525  0.4265  0.0879  0.1568
13057W        W30581  14.827  11.172  12.130 -0.0621  0.2399 -0.2629
13058W        W30582  12.425  12.435   4.559  0.0534  0.0643  0.2655
13059W        W30583  16.922   5.457  12.923 -0.0232 -0.3446  0.0454
13060W        W30584   7.591   6.899  15.101 -0.0166 -0.2617  0.2075
13061W        W30585   6.671   0.242  14.386  0.2256  0.2269  0.0873
13062W        W30586  11.256   3.430   0.212 -0.2410  0.0604 -0.2721
13063W        W30587   0.190   0.233  12.611  0.0267  0.0051 -0.5241
13064W        W30588  10.967   8.152  15.432  0.0279 -0.0751  0.1953
13065W        W30589  11.781  13.532   0.870  0.3095 -0.2471 -0.5241
13066W        W30590  17.857   4.949  15.990  0.0652 -0.1990 -0.0741
13067W        W30591  15.491   0.680  15.077 -0.1361 -0.1634  0.0428
13068W        W30592  13.417   7.235  12.655  0.1216 -0.2417 -0.0413
13069W        W30593   1.896   0.433   2.043  0.0583  0.1735 -0.2360
13070W        W30594   9.796  14.079  13.014  0.0838  0.0627 -0.2148
13071W        W30595  11.761   1.461  12.535 -0.2666 -0.1603  0.0636
13072W        W30596   8.574  11.861  14.389  0.1027 -0.0727 -0.1496
13073W        W30597   6.178   9.455   0.748  0.1457  0.1130 -0.1893
13074W        W30598  10.799   4.796   3.638 -0.1057 -0.3127  0.0064
13075W        W30599  16.655  10.146  14.023 -0.2606  0.0818 -0.0936
13076W        W30600  15.309  17.292   1.118 -0.3182  0.1372  0.0753
13077W        W30601  17.223   0.844  13.902  0.2308 -0.0223  0.0572
13078W        W30602   3.987   8.989   0.393 -0.0161 -0.1093  0.0277
13079W        W30603  13.466   2.112  16.065  0.1114 -0.1101  0.1785
13080W        W30604   1.629   1.107   4.529 -0.4243 -0.3703  0.0697
13081W        W30605  10.254  13.808  12.816 -0.2131  0.1126  0.1995
13082W        W30606   2.884   3.368   4.071 -0.0708 -0.1637  0.2141
13083W        W30607   6.950   8.621   3.568  0.0688 -0.2400 -0.3416
13084W        W30608   9.671   0.623  14.342 -0.1969  0.4057  0.1550
13085W        W30609  12.809  14.430  15.947 -0.0094 -0.0147 -0.2918
13086W        W30610   3.564  15.010  13.132  0.2438 -0.0752 -0.0185
13087W        W30611  11.699  11.303   4.254  0.1942 -0.1433 -0.1402
13088W        W30612   9.362  13.805  11.616 -0.3646 -0.0849  0.1316
13089W        W30613   9.778   7.783  12.998 -0.2351 -0.1883  0.0379
13090W        W30614   4.154   2.116  10.940 -0.0572 -0.0462  0.3220
13091W        W30615   3.536   7.213  15.190  0.3018  0.2022 -0.2587
13092W        W30616   6.907   7.015  13.803 -0.0435 -0.1306  0.1582
13093W        W30617   5.439   7.651   0.998 -0.2362  0.0331 -0.1022
13094W        W30618   0.182   9.157   2.574 -0.0625  0.1529 -0.2446
13095W        W30619  15.618   4.817  12.962  0.3686 -0.2385  0.1062
13096W        W30620   7.886  11.740   2.730  0.0641  0.0264  0.1326
13097W        W30621   5.093   5.372   3.009 -0.1399 -0.2651  0.1980
13098W        W30622  13.003  16.187   4.858  0.0163  0.2369 -0.0733
13099W        W30623   4.530  15.539   1.385 -0.1125 -0.2509 -0.0336
13100W        W30624   1.898   2.998   0.932 -0.0484  0.0129  0.0460
13101W        W30625   4.732   7.813   0.397 -0.0945  0.0664  0.0598
13102W        W30626   8.157  16.416  12.000  0.2314 -0.1726 -0.2831
13103W        W30627  16.982  11.994   0.183  0.1735 -0.0564 -0.0055
13104W        W30628  12.327   3.192   1.223  0.0412  0.3753  0.1235
13105W        W30629   4.461  16.410  13.307  0.0023 -0.1229 -0.0016
13106W        W30630  15.590  12.310  11.617  0.0310  0.0758  0.1532
13107W        W30631   0.672  17.888  15.337 -0.2008 -0.1499  0.0491
13108W        W30632   2.600  15.554   0.269  0.1018  0.2133 -0.0916
13109W        W30633   9.057   5.810  14.508  0.0376 -0.0642  0.0841
13110W        W30634  11.516   4.654  14.487  0.1477  0.2627  0.1977
13111W        W30635   1.698   2.504  15.374 -0.1747 -0.1953  0.2541
13112W        W30636  12.071   4.567  13.210  0.1378 -0.0344  0.0898
13113W        W30637  12.247  17.842   2.817  0.0638 -0.1075 -0.3319
13114W        W30638   7.812  10.042   3.263  0.3439 -0.0615  0.1259
13115W        W30639   0.911  17.659   3.810  0.0491 -0.0478  0.1575
13116W        W30640  13.423   1.472  14.583 -0.2997 -0.0288  0.0600
13117W        W30641  12.239  15.571   4.296 -0.2791  0.1033  0.2108
13118W        W30642   9.342  17.525   0.333 -0.1368  0.3394 -0.1407
13119W        W30643   0.132  10.917  10.651 -0.1929  0.2913  0.1273
13120W        W30644   8.253  14.206  14.091 -0.1384  0.0616  0.2920
13121W        W30645   7.460  11.691   5.502 -0.0566  0.1497 -0.0355
13122W        W30646  12.720   6.406  11.808 -0.2542 -0.1842 -0.2330
13123W        W30647  17.566  14.356  14.631  0.2202  0.1822  0.0130
13124W        W30648   0.003   9.318  14.901 -0.0427 -0.1076 -0.1317
13125W        W30649  12.592  12.142  14.803 -0.2711 -0.1587  0.0377
13126W        W30650   2.944  10.514  11.196  0.0682  0.1170  0.0065
13127W        W30651  13.375   0.539   1.223  0.0157  0.2065 -0.0861
13128W        W30652   1.363   0.141  11.695 -0.1609 -0.1505  0.1179
13129W        W30653   6.114  12.711   3.548  0.0048 -0.1819 -0.2270
13130W        W30654   7.445   1.643   1.272 -0.0764 -0.0774 -0.0071
13131W        W30655  15.625   3.855  13.830 -0.1917 -0.2519 -0.1775
13132W        W30656  12.241   7.103   2.965  0.1256  0.0455  0.0534
13133W        W30657   9.454  15.672   2.297 -0.3088 -0.0447 -0.0680
13134W        W30658   9.773  14.856   4.098 -0.4140 -0.0791  0.1659
13135W        W30659   2.551   7.025   5.457 -0.3031 -0.2047 -0.1679
13136W        W30660  15.871   9.340  16.005  0.1890 -0.2299  0.0560
13137W        W30661   1.134  10.898  15.759  0.1252  0.0205  0.0478
13138W        W30662  16.167   0.023   3.797 -0.1450 -0.1792  0.1298
13139W        W30663  10.244  12.587   3.148  0.1332  0.2041 -0.1935
13140W        W30664   7.838  12.664   2.597  0.1052  0.3181 -0.3846
13141W        W30665  10.167  15.365   4.422  0.3578  0.2168 -0.3411
13142W        W30666   8.194   8.600  16.090  0.0758  0.0114 -0.0096
13143W        W30667  11.959   1.561  15.813  0.1514 -0.2185 -0.2132
13144W        W30668  14.181  16.490  13.776  0.1263 -0.0452 -0.1490
13145W        W30669   3.914  17.249  13.357  0.0011 -0.2594  0.0707
13146W        W30670   6.199   5.991  15.997  0.0811  0.0063  0.3955
13147W        W30671   6.538   3.904   3.889 -0.0140 -0.1437  0.1827
13148W        W30672  14.710  16.144  14.756  0.0346 -0.0970  0.0985
13149W        W30673   5.903  17.897   2.405 -0.1074 -0.2032  0.0422
13150W        W30674  13.067   4.739  15.544  0.0264  0.0919  0.2028
13151W        W30675  17.792   7.010  13.459 -0.2502 -0.2837  0.0924
13152W        W30676   0.390  15.580   4.721 -0.0135 -0.0773 -0.0032
13153W        W30677   3.909  16.465  11.495  0.0609 -0.0461  0.0249
13154W        W30678  14.428  13.336  14.247 -0.1678 -0.0821 -0.1211
13155W        W30679  16.273   7.615   4.693 -0.0439  0.0172 -0.1639
13156W        W30680   3.101   7.063  15.511 -0.1454  0.2881 -0.2620
13157W        W30681   2.167   0.591  13.567  0.1547 -0.1545 -0.1987
13158W        W30682  14.395   5.550  15.537  0.0179  0.0526  0.0927
13159W        W30683   8.011   7.453   3.195  0.1972  0.3388 -0.2605
13160W        W30684   2.650   9.755   1.470 -0.1047  0.0130 -0.0333
13161W        W30685   3.184   3.057  11.946  0.1531  0.3068  0.3407
13162W        W30686  14.729  13.120   3.330 -0.1938 -0.4577  0.1639
13163W        W30687   4.045  10.413   1.785 -0.1095 -0.3525  0.0838
13164W        W30688   9.242   0.877  15.012  0.1438 -0.0830 -0.0376
13165W        W30689  10.251   0.615  15.947  0.1400 -0.2656  0.0594
13166W        W30690   7.499   8.675   1.061  0.1153  0.1003 -0.1490
13167W        W30691   9.107   5.199   2.846 -0.0125 -0.2075  0.0081
13168W        W30692  15.864   3.931   1.994  0.0756 -0.0394 -0.1566
13169W        W30693  11.132  13.117   3.212  0.1318  0.2188 -0.1491
13170W        W30694  11.967   5.630  16.085 -0.1318  0.5502  0.1193
13171W        W30695  16.126   1.555  15.730  0.1649  0.1878  0.1376
13172W        W30696  14.500   4.966   2.217  0.0088  0.1108  0.0240
13173W        W30697  12.776  10.974  15.234 -0.0034  0.2279 -0.2970
13174W        W30698   2.967   7.397   1.242  0.2069 -0.0802 -0.2386
13175W        W30699   2.605   2.198   3.053  0.2156  0.2135  0.1031
13176W        W30700  14.154  12.759   2.857  0.2033  0.1378 -0.0244
13177W        W30701  11.234   1.844   3.805 -0.2875 -0.0914  0.1905
13178W        W30702  13.061   8.323   2.918  0.2864  0.1015 -0.0654
13179W        W30703  12.525  11.588   4.434 -0.0930  0.1625 -0.2482
13180W        W30704  12.054   9.874  14.747 -0.0790  0.2836  0.2026
13181W        W30705   2.446   3.442  13.227 -0.1132 -0.0751  0.1580
13182W        W30706  12.370  10.938  11.492 -0.1222  0.0372  0.3979
13183W        W30707   7.690   4.384  14.589  0.1969 -0.1752 -0.1381
13184W        W30708   4.449  17.685   2.264  0.0077  0.0612  0.0439
13185W        W30709   6.964  10.457   3.745  0.3911  0.3102 -0.0008
13186W        W30710   8.307   8.784   3.258  0.2245 -0.0278 -0.0356
13187W        W30711   3.961  11.304  14.357  0.1835  0.2478 -0.0236
13188W        W30712  14.723   1.574  11.320 -0.3009  0.3787 -0.0111
13189W        W30713  17.004   0.621  11.903  0.0041  0.2390 -0.2874
13190W        W30714   4.856  10.401   3.585 -0.3323  0.0832 -0.1345
13191W        W30715  12.289  11.848  11.880 -0.1001 -0.1281  0.0349
13192W        W30716   7.746   1.504   4.782  0.0371  0.1574 -0.3292
13193W        W30717  10.135  17.932   1.347  0.0053 -0.0032 -0.0590
13194W        W30718   4.370  14.342  12.988 -0.1268  0.2189 -0.0183
13195W        W30719  17.863   3.048  16.171 -0.3231 -0.0742  0.0584
13196W        W30720  10.603  10.884   2.908 -0.1231 -0.1157 -0.2657
13197W        W30721  15.173  15.441  15.201  0.4026 -0.4539 -0.0490
13198W        W30722  10.817  13.281  15.460  0.1847  0.1782 -0.1320
13199W        W30723   3.487  12.551  13.386 -0.0238 -0.0766 -0.0813
13200W        W30724   5.862  13.785  13.651 -0.0690 -0.1516 -0.0766
13201W        W30725   9.832  11.216   0.258 -0.1854 -0.0714  0.1413
13202W        W30726   4.333  14.944   5.125 -0.2803  0.0186  0.0752
13203W        W30727  15.037  11.135   0.234 -0.2724  0.1480  0.1415
13204W        W30728  12.591   7.927  11.208  0.3173 -0.1134 -0.1592
13205W        W30729  14.715   1.276  12.233  0.0129 -0.0909 -0.0875
13206W        W30730  14.554  11.766   3.531 -0.1107  0.3287  0.0629
13207W        W30731  16.281  11.405   5.362  0.0188  0.0366 -0.0473
13208W        W30732  16.641  15.365  14.030 -0.2319  0.0627 -0.1432
13209W        W30733  11.674  10.046  14.512  0.0208 -0.2064  0.1412
13210W        W30734  12.861  11.845  14.034  0.2099  0.0985  0.2384
13211W        W30735   1.289   2.992  16.124 -0.0086  0.0670  0.6129
13212W        W30736  10.734  14.495   2.771 -0.2759 -0.0718  0.0368
13213W        W30737  15.299   3.870  11.594 -0.0032  0.1362  0.1106
13214W        W30738  13.843  11.451  15.814 -0.1299  0.3045  0.2563
13215W        W30739   9.826  10.921  13.233  0.2560  0.2241  0.0895
13216W        W30740  13.869   0.302   3.264  0.0163 -0.0795  0.2452
13217W        W30741   2.210   2.224  12.713 -0.2449 -0.2291 -0.2501
13218W        W30742   2.467  13.236   2.602 -0.3728  0.1689  0.1930
13219W        W30743  14.713  14.742   1.422  0.2586  0.4166 -0.0435
13220W        W30744   3.526   8.036   3.757 -0.0030 -0.1420  0.1290
13221W        W30745  10.658   7.930   5.524 -0.0417  0.0164  0.1246
13222W        W30746   6.396   2.661  13.817 -0.1395 -0.1902  0.2170
13223W        W30747   5.540  15.047  14.443  0.1174  0.1649 -0.1959
13224W        W30748  11.283   4.781   2.031 -0.0368  0.0735  0.1111
13225W        W30749   2.236   1.446   5.109  0.0575  0.0006  0.0171
13226W        W30750  16.819   8.541   4.647  0.0111 -0.0241  0.3002
13227W        W30751   2.821  16.393  16.038  0.2109  0.0322 -0.0328
13228W        W30752   5.086   3.574  15.497  0.2188 -0.0506 -0.0838
13229W        W30753  14.838  15.740  11.425  0.1271  0.0441 -0.2686
13230W        W30754  16.153  15.972   1.518  0.0809 -0.0274 -0.1906
13231W        W30755  13.247   3.154  14.043 -0.1847 -0.1766 -0.0053
13232W        W30756   0.108  11.387   4.521 -0.4065 -0.3218 -0.1799
13233W        W30757  10.398  10.190  13.200  0.0660  0.0719 -0.1200
13234W        W30758  16.652  14.596   2.675  0.1417 -0.2699  0.1549
13235W        W30759  10.597  17.432   2.406  0.1462 -0.2258  0.1662
13236W        W30760   9.896  16.009  14.353 -0.1528 -0.2034 -0.4282
13237W        W30761   1.935  16.033  16.216 -0.1479  0.2304 -0.1616
13238W        W30762  14.357   8.779   3.583 -0.2651  0.3423  0.0307
13239W        W30763   5.598  14.001  11.799 -0.2418  0.1121  0.0593
13240W        W30764   1.096   8.997   2.051 -0.0096 -0.0664 -0.3033
13241W        W30765   4.834  13.969   0.320  0.2066 -0.0463  0.1341
13242W        W30766   3.194   7.594   0.130 -0.0734  0.1205  0.3337
13243W        W30767  17.581   9.529  13.853 -0.1149  0.2720  0.1858
13244W        W30768   5.267   5.207   0.916 -0.0308  0.1384  0.1169
13245W        W30769   1.167   1.886  13.387 -0.1018 -0.2032  0.0502
13246W        W30770   3.640   3.382   0.469  0.1365 -0.0894  0.0418
13247W        W30771   6.942  15.379  15.360  0.1194 -0.0416  0.1111
13248W        W30772  15.412   1.913  10.572  0.0757  0.2354 -0.0525
13249W        W30773   2.405  16.769   4.554  0.1135 -0.1469 -0.3500
13250W        W30774   6.972   0.872   4.342 -0.2021  0.1282  0.1747
13251W        W30775  12.095   1.298   2.472  0.0442  0.1428  0.0452
13252W        W30776  15.629  12.847   4.161  0.0197  0.2426 -0.1017
13253W        W30777  11.073  17.653   2.340 -0.1570 -0.2424  0.0581
13254W        W30778   6.474   7.840  12.971  0.1388  0.2280 -0.0387
13255W        W30779   3.895  16.451   2.616  0.3360 -0.0630 -0.0900
13256W        W30780  12.050  13.152   4.374 -0.0162  0.0195 -0.0082
13257W        W30781  10.724   4.017   4.323 -0.0658 -0.1255 -0.0301
13258W        W30782  15.355   9.302  12.386 -0.1329 -0.3276  0.2476
13259W        W30783  16.837   5.293   5.000 -0.0307  0.2104 -0.0909
13260W        W30784  13.313   1.987  13.414 -0.1820  0.1507  0.3609
13261W        W30785   9.676   3.949   1.854 -0.1917  0.0500 -0.0624
13262W        W30786   7.221   3.289   3.757  0.1109 -0.1306 -0.3184
13263W        W30787  15.916   5.977  13.816  0.0789 -0.2958 -0.1905
13264W        W30788   0.309   5.459  11.066  0.1382  0.0737 -0.0333
13265W        W30789  17.145  11.869  11.223  0.1162  0.0200 -0.0785
13266W        W30790   6.756   3.705  16.204  0.2561  0.0065 -0.0735
13267W        W30791   7.090  10.689   1.389  0.0057 -0.0182 -0.3683
13268W        W30792  11.957  13.056   2.512 -0.1527  0.1164  0.0945
13269W        W30793   2.930   3.154   5.159  0.0455 -0.0364 -0.1507
13270W        W30794   4.539   3.614   2.071  0.1257 -0.0233  0.1050
13271W        W30795   6.701  13.189   3.995 -0.2757  0.1189  0.0155
13272W        W30796   3.766  14.166   3.175  0.0907  0.0898  0.2241
13273W        W30797   8.620   4.605   0.076  0.1645  0.1816 -0.0763
13274W        W30798  13.956  11.506  13.423 -0.0945 -0.0276 -0.1543
13275W        W30799   3.643  15.922  11.546  0.1650  0.2029 -0.1180
13276W        W30800  16.466  14.737   5.104 -0.0905  0.0587  0.1331
13277W        W30801  16.678  11.396  13.313 -0.0116  0.1712 -0.1205
13278W        W30802   9.584   3.670   1.412 -0.3777  0.2811  0.0430
13279W        W30803  12.011   3.948   1.307  0.1910  0.0251  0.0476
13280W        W30804   3.210  15.726   0.310  0.0087 -0.2250 -0.1475
13281W        W30805   6.014  13.869  15.668  0.0288  0.0743 -0.1425
13282W        W30806   9.666   0.970  14.769 -0.0914 -0.0919  0.2172
13283W        W30807   1.249   9.834  12.296  0.3014 -0.0694  0.0059
13284W        W30808  11.489  14.884   3.035  0.0786  0.2046  0.1573
13285W        W30809   4.803   0.619   4.038  0.2331 -0.3559 -0.1980
13286W        W30810  12.534  12.989  12.357 -0.2018 -0.2862  0.1062
13287W        W30811   5.216   8.369  10.892 -0.0322 -0.3243  0.3135
13288W        W30812  16.804  13.021  12.648  0.4043  0.0753  0.1397
13289W        W30813   6.289   7.566  14.000 -0.0606 -0.2514  0.0766
13290W        W30814  17.057   1.493  11.279 -0.1026 -0.3085  0.1255
13291W        W30815   1.915  13.507  14.386 -0.2381  0.0912  0.2874
13292W        W30816   9.875  10.371  14.636  0.1770  0.3792  0.2758
13293W        W30817   0.479   4.372   4.430 -0.1518  0.0544  0.4204
13294W        W30818  11.189   2.283   3.473 -0.0497 -0.1428 -0.3530
13295W        W30819  17.117   9.936  13.973 -0.2429 -0.1487 -0.1239
13296W        W30820  17.171   8.420   4.325 -0.1584 -0.0196 -0.1574
13297W        W30821  16.380  10.314  15.547  0.0789  0.1376  0.3321
13298W        W30822   7.621  11.205  12.476  0.3013  0.3031  0.0821
13299W        W30823   9.906   1.366  13.833  0.2249 -0.1896  0.0078
13300W        W30824  17.106  15.073  15.966  0.3578  0.0525 -0.1056
13301W        W30825  11.327   4.763  15.229 -0.0649 -0.0505  0.2674
13302W        W30826  12.027   3.290   3.333  0.1027 -0.0300  0.2592
13303W        W30827  11.802  14.141   4.330  0.1064 -0.1891  0.2091
13304W        W30828  13.589   5.792   3.279 -0.0392  0.2548 -0.1189
13305W        W30829  12.500   3.012   2.441  0.1885  0.1742  0.0231
13306W        W30830   9.931  12.646  14.560 -0.1984  0.1649 -0.0135
13307W        W30831  12.279  12.009  13.341 -0.2110 -0.0540 -0.0247
13308W        W30832  16.434   0.458  13.420  0.2429 -0.0510  0.1492
13309W        W30833  13.494   2.703  14.070  0.2031 -0.1305  0.1472
13310W        W30834  10.298   5.138   0.845 -0.1217  0.2721 -0.0643
13311W        W30835   5.200  14.299  11.987  0.0125  0.1827  0.1790
13312W        W30836   0.039   5.022   2.360  0.0960  0.1465  0.0864
13313W        W30837  15.315  17.194  12.169 -0.0054  0.2743  0.0847
13314W        W30838   7.126   6.562  13.810 -0.1655 -0.1720  0.3312
13315W        W30839   2.300  16.049  15.407 -0.2399 -0.0146  0.1983
13316W        W30840  10.001  16.868   2.512 -0.0525  0.0510  0.3152
13317W        W30841   1.668   6.983  11.612 -0.0263  0.0401  0.4053
13318W        W30842   5.570  14.804  11.473 -0.2238  0.0499 -0.0362
13319W        W30843   5.872   6.685  13.113 -0.1321  0.1490 -0.0454
13320W        W30844   9.442  10.633  15.461 -0.4177 -0.0488 -0.2554
13321W        W30845  15.002  11.922   0.884  0.2701 -0.1064 -0.2724
13322W        W30846   1.490   4.729   0.638 -0.3439  0.1598  0.2215
13323W        W30847   6.321  15.392  12.456  0.1708 -0.1581 -0.0428
13324W        W30848   3.398   0.377  13.431 -0.1930 -0.1469 -0.0089
13325W        W30849   0.440   5.158   2.102 -0.2276  0.0096 -0.0143
13326W        W30850   1.258  16.337  15.633  0.1065 -0.1911 -0.0721
13327W        W30851   1.399   7.296  14.365  0.1113  0.3033 -0.0649
13328W        W30852   4.754  16.086  13.633 -0.0562  0.0874  0.2742
13329W        W30853  13.951  13.347   4.593  0.3339  0.0667  0.4370
13330W        W30854  17.856  12.388  15.552 -0.0465 -0.0955  0.1539
13331W        W30855  13.213  12.578  11.165  0.1205 -0.1929 -0.1014
13332W        W30856  15.796  10.250  12.944 -0.0724  0.1511  0.0948
13333W        W30857   3.176  12.931   3.300 -0.3238  0.1806  0.0656
13334W        W30858  16.007   7.303  13.464 -0.0826 -0.0377 -0.0463
13335W        W30859  11.406  14.597  14.220 -0.1624 -0.2051 -0.0680
13336W        W30860   8.134   4.867  15.966 -0.1123 -0.2745 -0.2990
13337W        W30861   2.925  15.474  15.179  0.0568 -0.0506  0.3347
13338W        W30862  14.168  17.250  13.174  0.1236 -0.3889  0.2404
13339W        W30863   6.104  15.638   4.816  0.1669  0.1956 -0.3213
13340W        W30864  16.798   2.258  14.997  0.3072  0.0544 -0.0687
13341W        W30865  17.949   4.082  15.358 -0.1709  0.2674  0.1561
13342W        W30866   4.580  10.508   1.357 -0.1143 -0.1001 -0.0135
13343W        W30867   7.376   9.339  14.647 -0.0461  0.0913  0.0008
13344W        W30868  12.627   2.794  16.050  0.0932 -0.1500  0.0318
13345W        W30869  14.394   4.905  12.227 -0.1940  0.1570 -0.1300
13346W        W30870   2.268  10.089   5.628  0.0066 -0.0561 -0.1109
13347W        W30871  10.144   7.151   1.791 -0.1098  0.0804  0.1122
13348W        W30872  13.355   1.336   4.254  0.3639 -0.0838 -0.3020
13349W        W30873   4.159  16.611   1.197 -0.0261 -0.1441  0.2622
13350W        W30874  15.305   0.742   4.609 -0.0367 -0.0190  0.1370
13351W        W30875  17.227   1.981   1.820  0.0647  0.1437  0.1435
13352W        W30876  15.489   3.689   0.565  0.0352 -0.1435 -0.1433
13353W        W30877  10.502   4.146   0.467 -0.0890 -0.1153 -0.0275
13354W        W30878  16.455   1.617  12.235  0.1482  0.1879  0.3310
13355W        W30879   1.234   2.406   3.290 -0.1438 -0.0441 -0.3397
13356W        W30880  17.220   8.740  14.653  0.1942 -0.3960  0.0765
13357W        W30881   2.330   1.023  12.182 -0.1432  0.0480  0.1305
13358W        W30882   8.514   9.274  13.992 -0.0832 -0.3832 -0.0822
13359W        W30883   6.459   2.531   4.572 -0.1343 -0.1244  0.3313
13360W        W30884  14.554  14.198  13.990  0.1499  0.1498  0.4530
13361W        W30885   1.175   7.322   3.666  0.2084  0.3320 -0.1791
13362W        W30886  16.172  10.112   1.059 -0.1230  0.1104  0.2396
13363W        W30887  14.267  12.895   2.338 -0.0783 -0.0929  0.2022
13364W        W30888   9.100   4.619   0.498  0.1430 -0.2564 -0.0355
13365W        W30889  16.274  10.402   4.312 -0.0194  0.1093  0.0987
13366W        W30890  15.296   0.463  16.046  0.0157  0.1042  0.1294
13367W        W30891   7.907   8.028   4.780 -0.0680  0.1955  0.0765
13368W        W30892   9.343   0.822  14.058  0.0769  0.1944  0.0307
13369W        W30893   1.064   3.599   1.945  0.0919  0.1652  0.2314
13370W        W30894   2.961  10.575   2.312  0.2812 -0.3692 -0.0358
13371W        W30895   9.439  11.832  11.581 -0.0466 -0.0004 -0.2081
13372W        W30896   6.469  12.904   2.746 -0.0363 -0.0474 -0.1643
13373W        W30897  12.313   7.598   3.069  0.2811 -0.1881  0.1091
13374W        W30898  10.454  15.076   4.672 -0.1734  0.1565 -0.1412
13375W        W30899   6.122   1.852   3.545 -0.1858  0.0076  0.2562
13376W        W30900   1.715  14.147  12.365 -0.0602 -0.1305 -0.0975
13377W        W30901  15.626   9.773   0.409 -0.1937 -0.1468 -0.2148
13378W        W30902   7.185   7.142   2.439  0.2544  0.0327 -0.1225
13379W        W30903   8.134   2.249  12.933  0.0068 -0.2143  0.3268
13380W        W30904  14.086   3.586  11.909 -0.1103  0.0835  0.0309
13381W        W30905   5.516   3.325  15.649  0.1800 -0.0753 -0.0351
13382W        W30906   9.855   5.046   4.417 -0.3636 -0.1140 -0.1525
13383W        W30907   8.626  17.203  14.282 -0.0335 -0.1002  0.1779
13384W        W30908   5.624   3.673   2.995 -0.1495  0.0828 -0.2267
13385W        W30909  16.982  17.599  12.522 -0.2266  0.0921  0.3487
13386W        W30910   6.782   4.595   0.715 -0.5025  0.1490  0.1592
13387W        W30911   9.031   2.785   4.722 -0.2561  0.2851 -0.2270
13388W        W30912  10.898  15.904   0.662  0.1830 -0.3375 -0.2840
13389W        W30913   2.787   5.956   2.150 -0.0549  0.0777 -0.2255
13390W        W30914  12.841   2.003   0.580 -0.3714  0.2571  0.0925
13391W        W30915  16.917  14.745   3.135 -0.2098 -0.0756  0.1234
13392W        W30916  10.308   7.629  13.121  0.1078 -0.3622  0.0727
13393W        W30917  11.052   1.960  12.883  0.3516  0.0186  0.0085
13394W        W30918   5.902   4.416   1.142  0.0714 -0.2477 -0.0475
13395W        W30919   6.572   7.156   3.423 -0.0393  0.1364 -0.1607
13396W        W30920  12.087  10.418  14.549  0.1307 -0.3653  0.2919
13397W        W30921  17.321   4.870  14.937  0.1209  0.3571  0.0952
13398W        W30922  16.659   1.410  14.664  0.0929 -0.0798 -0.0760
13399W        W30923   1.053   7.238   1.274  0.0621  0.0869  0.3992
13400W        W30924   7.365   2.531  14.403 -0.1925 -0.1983  0.1288
13401W        W30925   7.601   8.382  12.176  0.1749  0.0074  0.2751
13402W        W30926  13.160   1.965   1.530 -0.0205  0.0513 -0.1696
13403W        W30927   2.399   2.871  13.226  0.1400 -0.3558 -0.0097
13404W        W30928   1.445   2.830  13.018 -0.4233 -0.1294 -0.2803
13405W        W30929  12.723  17.337   2.415 -0.1720  0.4588  0.0505
13406W        W30930  15.758  14.753   3.785 -0.4902 -0.0012 -0.2085
13407W        W30931   5.924  13.580  11.747  0.0900 -0.1007  0.0439
13408W        W30932  15.414  12.435   4.442 -0.1280 -0.2813  0.2441
13409W        W30933  10.822   6.198  14.077 -0.0205  0.2261  0.2050
13410W        W30934   5.290   4.961   3.177  0.0388  0.0176 -0.0158
13411W        W30935  10.820   3.983   3.821 -0.1449 -0.2931  0.1239
13412W        W30936   1.869   4.934  12.227 -0.0989  0.1223 -0.2346
13413W        W30937   9.061  12.458   3.795  0.0396  0.0080 -0.2008
13414W        W30938   0.367   8.936  13.538  0.1714  0.2040 -0.0365
13415W        W30939  17.593   8.649   3.071  0.2242  0.0786  0.0261
13416W        W30940  10.421  11.847  13.663 -0.3146  0.2089 -0.0519
13417W        W30941   6.292   6.500   1.216  0.0140  0.1351 -0.0544
13418W        W30942   4.131   7.253   3.471 -0.3911  0.0308 -0.2947
13419W        W30943   6.486   8.161  15.247 -0.0838  0.1744  0.0961
13420W        W30944   9.431   8.038   4.005  0.0912  0.2818  0.0407
13421W        W30945  13.669   9.704   4.160 -0.1729 -0.1117  0.1561
13422W        W30946  17.209  12.370  12.543  0.0473 -0.1753 -0.0677
13423W        W30947   1.832   8.945   2.844 -0.0261 -0.0493 -0.2775
13424W        W30948   6.102  17.934  15.036 -0.1000  0.2894  0.0336
13425W        W30949   0.362   5.840  12.223 -0.1058 -0.1347 -0.1874
13426W        W30950   1.719   6.060  13.340  0.1140 -0.0785 -0.1284
13427W        W30951   7.683   4.459   2.823 -0.0438 -0.0829  0.1108
13428W        W30952   2.408  11.678  12.598  0.0078  0.1010  0.0188
13429W        W30953   4.147  12.364  12.633 -0.0789 -0.1261  0.1045
13430W        W30954   0.788   3.966   3.425  0.1559  0.0131 -0.1058
13431W        W30955   6.294  17.738   3.748 -0.1086 -0.0910 -0.0669
13432W        W30956  15.473  10.079  15.721  0.1365  0.0064  0.0133
13433W        W30957  10.116  15.766   5.039  0.0637 -0.5293 -0.0027
13434W        W30958  10.489  10.861  12.794 -0.1133 -0.0484  0.0379
13435W        W30959   7.711  10.605  14.155  0.2543 -0.1584  0.0458
13436W        W30960  11.089  13.355   4.408 -0.0377 -0.1047 -0.0283
13437W        W30961   3.075   1.439  14.145 -0.0058 -0.1526  0.0246
13438W        W30962   9.792  13.782   1.276  0.0582 -0.1965  0.2225
13439W        W30963  11.156   0.913   3.310 -0.0962 -0.3234 -0.0478
13440W        W30964  16.716  16.975  14.999  0.1153  0.1251 -0.2728
13441W        W30965   2.058   8.478   5.045  0.0896 -0.1136 -0.0944
13442W        W30966  11.885   6.990   4.218 -0.1509 -0.1916 -0.0291
13443W        W30967   3.192  15.671  15.579 -0.0332 -0.1406 -0.0751
13444W        W30968  12.597  11.565  10.459  0.0982  0.0452 -0.3206
13445W        W30969   2.113   9.003   5.170  0.1971 -0.0720 -0.3946
13446W        W30970  10.406  15.648  12.949 -0.2402  0.2871 -0.1906
13447W        W30971   7.000   0.955  14.291  0.3739  0.2431 -0.0895
13448W        W30972  15.707  11.130   5.554 -0.0646 -0.0147 -0.1393
13449W        W30973  11.270   5.141  10.274 -0.1879  0.0043  0.0697
13450W        W30974  13.693   3.427   4.160 -0.2345  0.1922  0.2842
13451W        W30975   4.765   5.731   0.002 -0.1215 -0.0224 -0.0117
13452W        W30976  13.698   5.198  13.999 -0.0451  0.2888 -0.0601
13453W        W30977   3.252  13.333  11.996 -0.0269 -0.0292  0.0598
13454W        W30978  16.412   8.568   3.147  0.2796 -0.0272  0.1431
13455W        W30979  17.149   1.223  14.730 -0.0418 -0.0840 -0.0924
13456W        W30980   9.688   2.786  15.137 -0.0155 -0.1209  0.0081
13457W        W30981   5.967  15.124  14.249 -0.1003  0.1903  0.1286
13458W        W30982  10.035   4.934  15.251  0.0654 -0.3222 -0.4500
13459W        W30983  12.595  14.261   4.829  0.0368  0.0986  0.2202
13460W        W30984  10.868  17.156   2.795 -0.1614  0.0475 -0.1221
13461W        W30985  15.440  17.779  15.596 -0.1652  0.2589  0.0821
13462W        W30986  15.470  14.257  13.355  0.0080 -0.1724  0.0519
13463W        W30987  16.626   4.871  13.627 -0.0445 -0.0475 -0.0590
13464W        W30988  12.363   9.196  14.292  0.1241  0.2698 -0.2282
13465W        W30989  14.915   4.676   2.775 -0.1697  0.1816 -0.0206
13466W        W30990   7.798  14.324   4.403 -0.1739 -0.0505 -0.1194
13467W        W30991  14.302   8.159  15.890  0.0867 -0.0263  0.0024
13468W        W30992   1.623   9.664   2.638 -0.2528  0.2268  0.1579
13469W        W30993  16.039   4.190   3.028 -0.1186 -0.3699 -0.1439
13470W        W30994  16.679  14.000  16.128  0.0238  0.3118 -0.2376
13471W        W30995  17.757   3.609  14.610 -0.0939  0.0455  0.1997
13472W        W30996   4.507   9.530  10.531 -0.1298 -0.2537  0.2376
13473W        W30997   4.798   6.126  15.963  0.0167  0.0668  0.1387
13474W        W30998   1.152   0.893   1.502  0.1842  0.1896 -0.1987
13475W        W30999  13.716  16.178  15.095 -0.2437 -0.0043  0.1261
13476W        W31000  14.426   3.301  12.867  0.2296  0.0964 -0.1970
13477W        W31001   4.273   5.571   0.814 -0.1513  0.0027  0.1626
13478W        W31002  14.167   8.291   4.444  0.0878  0.1792  0.0544
13479W        W31003  12.399   6.051  14.012 -0.0902  0.3247  0.0516
13480W        W31004  17.476   8.487  14.190  0.2898 -0.0348 -0.0728
13481W        W31005  16.166   3.889  13.785 -0.1628 -0.0970  0.2859
13482W        W31006   3.305   4.449  12.550 -0.1445  0.1469  0.1304
13483W        W31007  10.103  16.407   0.351 -0.2066 -0.2293  0.2539
13484W        W31008  12.248  17.243   0.378 -0.1636 -0.1045  0.0231
13485W        W31009  16.208  13.855  11.385 -0.1753 -0.0330  0.0698
13486W        W31010  11.928   3.212   4.722 -0.2130  0.0181  0.1464
13487W        W31011  10.812   8.140   2.686  0.0034 -0.0337  0.0637
13488W        W31012  13.896   4.320   2.576 -0.0159  0.1830  0.1160
13489W        W31013   6.247  17.020   5.334  0.0824 -0.2738  0.1446
13490W        W31014   9.052   1.491  14.409  0.3878  0.0143 -0.0021
13491W        W31015  11.832   4.347  12.791  0.1064  0.3554 -0.2970
13492W        W31016  11.839   0.546   3.064  0.0757 -0.0195  0.1309
13493W        W31017   4.185   1.309   0.787  0.0906  0.3281 -0.1063
13494W        W31018  12.131  13.105  11.836 -0.0603 -0.1292  0.0054
13495W        W31019   9.591   5.394   3.936  0.0601 -0.0579 -0.0004
13496W        W31020   8.098  17.224   1.034 -0.0763 -0.1623  0.1803
13497W        W31021  16.354   0.225   0.055  0.1900  0.1263 -0.0817
13498W        W31022   8.896   5.599  15.904 -0.0678 -0.1119 -0.0642
13499W        W31023  17.162   7.258  13.935 -0.2747 -0.1576  0.3659
13500W        W31024   2.009   6.290  15.272  0.0397 -0.1853 -0.0558
13501W        W31025  17.049   9.122  15.457 -0.2434  0.1733 -0.1305
13502W        W31026  14.238   4.157  15.111 -0.1032 -0.1996  0.0336
13503W        W31027  11.721  13.559  14.903  0.2014 -0.2210 -0.1252
13504W        W31028  10.014  17.584   3.768  0.0552 -0.0292 -0.0907
13505W        W31029   5.505   4.932  15.785 -0.1526 -0.0340  0.3253
13506W        W31030  13.968  11.009  12.684 -0.1405  0.1397 -0.0682
13507W        W31031   9.426  11.950   3.091 -0.1404  0.0357 -0.2106
13508W        W31032  10.430   2.216  12.169 -0.1203 -0.3840 -0.1117
13509W        W31033  17.848  14.963  13.301  0.0223 -0.1319 -0.1788
13510W        W31034   4.073   8.826   4.217  0.1213  0.1106  0.0792
13511W        W31035  11.507   7.370   3.257  0.1838 -0.4866  0.0320
13512W        W31036   8.013   2.754   3.499 -0.0548 -0.0178 -0.0589
13513W        W31037  16.415   9.079  15.107  0.0396 -0.1669 -0.2764
13514W        W31038   1.331  14.975  12.550  0.1886 -0.1419  0.0879
13515W        W31039  10.275   5.160  11.234 -0.1971  0.0249  0.2047
13516W        W31040  17.073   4.888  14.406 -0.1946  0.3537  0.1853
13517W        W31041  17.247  14.199  11.767 -0.0185 -0.1606 -0.0131
13518W        W31042   3.129  16.525  15.310  0.0443 -0.0115  0.2099
13519W        W31043   6.987  10.647  13.739 -0.1300  0.2265  0.2393
13520W        W31044  14.029   7.396  12.966  0.0462  0.2195  0.0648
13521W        W31045   6.220  12.116   2.388  0.0975 -0.2100  0.1246
13522W        W31046  15.122  16.196   4.202 -0.0857  0.2330  0.1350
13523W        W31047  14.587   4.733  12.688  0.1699 -0.0341  0.1387
13524W        W31048  12.791   4.164   1.436 -0.0769 -0.2514  0.0383
13525W        W31049   7.626  11.960  14.643  0.1107 -0.2364 -0.2188
13526W        W31050   6.280   3.525  10.888 -0.0871 -0.0772  0.0460
13527W        W31051  13.551  12.561   2.123 -0.0394 -0.2924 -0.2493
13528W        W31052   5.162   3.544  13.023 -0.1277  0.0172 -0.0421
13529W        W31053   2.119   0.383   3.899  0.1205  0.4888  0.4770
13530W        W31054   1.669  14.722   3.248  0.3430 -0.0058 -0.2717
13531W        W31055  11.422   4.752   4.740 -0.3215 -0.3264 -0.3353
13532W        W31056  13.656  11.989   4.135  0.0670  0.4517  0.1746
13533W        W31057  14.433  12.565  12.455  0.2232  0.0584  0.1961
13534W        W31058   1.978  15.152   1.507 -0.2099 -0.2399 -0.0586
13535W        W31059   9.297  16.416   4.923  0.2563  0.0756  0.0513
13536W        W31060   2.234  11.274  12.226 -0.2471 -0.2264  0.2019
13537W        W31061   1.552  16.353  16.098  0.0093  0.0364 -0.2115
13538W        W31062  16.392  11.276  15.299 -0.0461 -0.1394  0.2001
13539W        W31063   7.729   2.115  14.769 -0.0330 -0.1067  0.1347
13540W        W31064  10.392   9.699   0.695  0.1695 -0.6411  0.2057
13541W        W31065   4.486   7.127  13.623  0.0871  0.0331  0.1602
13542W        W31066  14.424   8.604   0.500  0.1216 -0.2085 -0.0871
13543W        W31067   5.989   6.580   3.039 -0.0758 -0.1763  0.2697
13544W        W31068   9.576  14.478   4.365  0.2107 -0.1335  0.0078
13545W        W31069   0.448   1.199   0.781 -0.0142 -0.1255  0.1632
13546W        W31070  16.612   8.001  10.749 -0.0083 -0.0404  0.0403
13547W        W31071   9.291   6.024   3.328 -0.4865  0.2840 -0.2002
13548W        W31072   9.760  11.348   1.957  0.1574 -0.0632 -0.2369
13549W        W31073  10.105  14.228   1.173  0.2490  0.0227  0.2395
13550W        W31074  17.587  15.250   5.030 -0.3523 -0.1140  0.1870
13551W        W31075  15.016   0.354   4.459 -0.0702  0.0468 -0.3209
13552W        W31076   9.555   5.102   3.392  0.1197  0.2215 -0.0905
13553W        W31077   3.268   2.511   2.486  0.4023 -0.1239  0.3979
13554W        W31078   5.654  17.266  15.992 -0.0180  0.1219  0.2359
13555W        W31079   6.435  10.800  12.535 -0.3040  0.1613 -0.0569
13556W        W31080   0.233   3.412  14.095 -0.0217  0.0836  0.0212
13557W        W31081  16.038   5.250  14.956 -0.1604 -0.0271 -0.0242
13558W        W31082  10.261   8.482   0.664 -0.3413  0.2208  0.0023
13559W        W31083  13.902  15.195  15.271 -0.1831 -0.0576  0.0981
13560W        W31084  13.663   3.061  16.002  0.1548  0.1534  0.2712
13561W        W31085   6.762   7.493  12.268 -0.1243  0.2201 -0.0889
13562W        W31086  17.590   5.660   0.473 -0.0590  0.2327  0.5647
13563W        W31087   0.783  16.748   0.955 -0.0335 -0.0618 -0.0476
13564W        W31088   1.157   9.905   4.193  0.0964  0.3185 -0.0079
13565W        W31089   1.401   8.976  14.788  0.2432 -0.0683 -0.0689
13566W        W31090  16.185  14.467  10.716 -0.2234 -0.0307  0.0276
13567W        W31091  12.825  13.652   3.488  0.1470  0.1400 -0.3476
13568W        W31092  15.683   6.514   0.988 -0.3077 -0.1173  0.1857
13569W        W31093   2.401  14.505   0.410 -0.0310  0.2836 -0.2793
13570W        W31094   6.971   9.849  12.334  0.4123 -0.2040  0.0854
13571W        W31095   1.962   9.012  16.248  0.3151  0.3772  0.1666
13572W        W31096   6.011  16.034  11.134  0.0581  0.3067  0.3166
13573W        W31097  14.734   5.985  14.626  0.1924  0.5389 -0.1845
13574W        W31098   5.237   6.968   4.594 -0.1964  0.0586  0.2317
13575W        W31099  12.801   2.603  12.776 -0.3235 -0.0432  0.1438
13576W        W31100  17.040  13.393  12.451 -0.2470 -0.2853 -0.0040
13577W        W31101  15.790   5.040   4.678 -0.0892  0.0100 -0.1138
13578W        W31102   8.337  14.290   2.068  0.6842  0.2319 -0.1448
13579W        W31103  16.243   6.831  14.126  0.0053  0.3634  0.1032
13580W        W31104   0.597  16.833  15.114  0.0158  0.0963  0.1224
13581W        W31105   6.802  16.445   1.800 -0.1241 -0.1803  0.0122
13582W        W31106  17.184   4.294   0.799  0.0501 -0.0214  0.1245
13583W        W31107   4.368   4.499  15.401  0.1386 -0.1372  0.0824
13584W        W31108  10.359  14.323   5.172 -0.0443  0.4023 -0.2240
13585W        W31109   2.107  12.350   3.560 -0.0231 -0.1224  0.1916
13586W        W31110  12.576  11.176  12.450 -0.0753 -0.2120 -0.2720
13587W        W31111   1.839   7.687   3.969 -0.1577  0.1444  0.0880
13588W        W31112   7.003   0.406   2.610  0.2347 -0.1902  0.1603
13589W        W31113   6.167   7.722   4.595  0.0618 -0.0569 -0.2786
13590W        W31114   7.213   4.313   3.517  0.0453  0.1169  0.1023
13591W        W31115   9.489   0.319   2.797  0.0519  0.0008 -0.0188
13592W        W31116   9.360  15.483   3.409  0.5274  0.0600  0.0915
13593W        W31117  11.521  16.078  12.691 -0.0970 -0.1185  0.0365
13594W        W31118  13.200  13.241  15.377  0.2757 -0.3347  0.0315
13595W        W31119  12.777   3.306  12.077 -0.3003  0.2641  0.1663
13596W        W31120  17.926   0.529  11.682 -0.1568 -0.1484  0.1829
13597W        W31121   5.200  17.623  12.400  0.2010  0.1890  0.2747
13598W        W31122  16.529  11.814  14.680  0.0031 -0.0414  0.3902
13599W        W31123  17.136   7.465   0.921 -0.1521  0.2949  0.0255
13600W        W31124   8.860   3.047   2.373 -0.1120 -0.1766 -0.1191
13601W        W31125   2.543   1.455  12.274 -0.0924  0.2586 -0.0420
13602W        W31126   3.080   6.902   3.682 -0.0382 -0.1964  0.0432
13603W        W31127  13.214  14.411  13.365  0.3399  0.1196 -0.0012
13604W        W31128   6.983  11.568   5.569 -0.0660 -0.0397  0.0020
13605W        W31129   0.457  14.005  11.923 -0.1932 -0.1121 -0.1058
13606W        W31130   8.329  11.396   4.585  0.0146 -0.2856 -0.0831
13607W        W31131   2.801   2.519   4.551 -0.2686 -0.2608  0.1371
13608W        W31132  15.978   1.607   0.084 -0.0373  0.1831 -0.0683
13609W        W31133   5.436   1.681   1.870  0.0243  0.1625 -0.0515
13610W        W31134   9.282   9.961  12.465  0.0914  0.0024 -0.1286
13611W        W31135   0.105   3.547   1.696 -0.1668 -0.0707  0.1914
13612W        W31136  14.600   3.607   3.591 -0.3925  0.0834 -0.0137
13613W        W31137  12.032   3.921  14.208 -0.0625 -0.3362  0.2043
13614W        W31138   5.857   2.716  16.139  0.1988  0.2970  0.3434
13615W        W31139  14.775  11.328   2.131  0.0925 -0.0225 -0.2556
13616W        W31140  17.325  16.899   2.071 -0.0230 -0.1506  0.0018
13617W        W31141  17.012   0.190  11.160 -0.1070 -0.0781  0.0678
13618W        W31142   4.454   9.151  14.297  0.0490 -0.0244 -0.0821
13619W        W31143  15.200  17.596   0.177  0.0171 -0.0123  0.0484
13620W        W31144   3.661  11.951   3.212 -0.0321  0.1743  0.1190
13621W        W31145   5.723   9.947  11.426  0.2160  0.0471 -0.1170
13622W        W31146   8.431  10.951  12.829 -0.1193  0.5304 -0.0816
13623W        W31147  16.233  16.137  12.520  0.0559 -0.0299 -0.0667
13624W        W31148  12.707  12.745   1.601 -0.0279  0.0574 -0.2151
13625W        W31149   6.672  14.498  14.794 -0.0790 -0.2571  0.1618
13626W        W31150   8.574   7.298  12.789 -0.0571 -0.0482 -0.3322
13627W        W31151  11.841  11.020   2.468  0.3021  0.0263  0.2296
13628W        W31152  13.291   6.204  15.063  0.1893 -0.1649  0.0638
13629W        W31153  11.166   1.382  13.927 -0.1347 -0.0654  0.0251
13630W        W31154   3.076   1.750  15.014 -0.0098  0.1307  0.0813
13631W        W31155  13.556   1.634   3.822  0.2211 -0.3161  0.0449
13632W        W31156   0.357   6.240   5.690 -0.1630 -0.0123  0.2087
13633W        W31157   3.583   7.628   4.758 -0.2665  0.2121  0.1426
13634W        W31158   0.830   3.359  16.172 -0.3796 -0.1822  0.1968
13635W        W31159   3.074   5.048  11.682  0.0379 -0.0050  0.1462
13636W        W31160   3.449  15.116   5.109 -0.0473 -0.3091 -0.0463
13637W        W31161  16.763  13.813   4.330 -0.2995 -0.4196 -0.0575
13638W        W31162   7.696  13.145   1.921 -0.0127 -0.2005  0.1640
13639W        W31163   4.737  13.294   1.188 -0.1937  0.2347  0.0441
13640W        W31164  13.718  12.123  10.655  0.0991  0.2595  0.0092
13641W        W31165   1.912   0.182  12.682 -0.0832  0.0867 -0.2732
13642W        W31166   9.007   8.607  11.670 -0.0989  0.0072 -0.1348
13643W        W31167  14.687   9.300   2.141 -0.0047 -0.2461 -0.0994
13644W        W31168   5.909   5.570   2.108 -0.1638  0.1071  0.1235
13645W        W31169  10.214   0.102   3.504 -0.2212 -0.1005 -0.0198
13646W        W31170  13.992   4.681   0.389 -0.1377  0.0247 -0.0146
13647W        W31171  17.916  12.172   0.888 -0.0038  0.0209 -0.1130
13648W        W31172   5.954   9.937  13.295 -0.0143  0.0828 -0.0684
13649W        W31173   1.277  15.219   3.034  0.2642  0.2337 -0.0425
13650W        W31174  16.885   2.650  11.148  0.0931 -0.1320  0.1226
13651W        W31175   2.131   0.409   4.936  0.1494  0.0829 -0.1670
13652W        W31176  14.688   4.804  13.533  0.1040  0.0658  0.3229
13653W        W31177  10.279  12.037  11.761  0.1183 -0.4116 -0.0292
13654W        W31178  15.184  11.689  15.303  0.1846  0.0382 -0.0170
13655W        W31179   9.350   8.997   2.381 -0.0200 -0.0388  0.1678
13656W        W31180   4.263  15.002   2.832 -0.3501  0.1249 -0.1397
13657W        W31181   0.315   0.812   0.314  0.2963 -0.1704 -0.1083
13658W        W31182  14.124  13.155  12.514  0.0786 -0.1468  0.2460
13659W        W31183   5.890   7.493  12.663  0.1299 -0.0620 -0.0268
13660W        W31184  12.531  13.332   3.913  0.2754  0.0856 -0.0647
13661W        W31185   5.617   7.991   4.526  0.0285  0.2702 -0.1567
13662W        W31186  11.534  11.796   4.841 -0.0429  0.0857  0.3922
13663W        W31187  12.922  10.688   1.489 -0.2160 -0.0399  0.1370
13664W        W31188   9.339   5.495   3.115  0.0761  0.0455  0.2070
13665W        W31189  16.883  14.418   4.375 -0.0378 -0.0601  0.2357
13666W        W31190   0.224  16.841   4.441 -0.0671  0.6011 -0.2357
13667W        W31191   9.284   1.264   1.439 -0.1568  0.0628  0.3436
13668W        W31192   4.429  12.862  14.260 -0.2914  0.0191 -0.3327
13669W        W31193  14.251  10.864   1.462 -0.1487 -0.3603 -0.0379
13670W        W31194   1.986   1.708   1.409 -0.0800  0.1825 -0.1625
13671W        W31195   8.428  12.362   3.119  0.0397 -0.1199  0.3162
13672W        W31196  12.690   2.312   0.094  0.1880 -0.2080 -0.0216
13673W        W31197  10.222   4.614   2.525  0.0417  0.4020  0.1076
13674W        W31198   8.799  15.206  10.722 -0.1357  0.0278  0.0417
13675W        W31199  16.359   3.331   2.828 -0.0368  0.0549 -0.0355
13676W        W31200  12.403   1.371   3.304  0.2821 -0.1850  0.4335
13677W        W31201  11.685   6.553  13.683 -0.4510  0.0766  0.2002
13678W        W31202  16.336   3.514  15.056  0.0587  0.2258  0.0339
13679W        W31203   7.300  16.143   3.800 -0.2844 -0.0002  0.1194
13680W        W31204  16.988  10.110   3.225  0.2229 -0.1675 -0.0089
13681W        W31205   0.478  14.060  15.505 -0.0259 -0.0203  0.3521
13682W        W31206   3.914   3.382  16.209  0.0848 -0.2093  0.0184
13683W        W31207  15.587  12.053  15.380 -0.0829 -0.0431  0.4723
13684W        W31208  17.167  12.463  13.377  0.0969  0.1058  0.1564
13685W        W31209  15.182   5.186  11.792 -0.1945  0.2677  0.0604
13686W        W31210   7.210   2.119   2.687  0.0422  0.0717  0.2712
13687W        W31211   7.941   5.244   1.144 -0.0030 -0.0110 -0.0212
13688W        W31212   8.929   0.582  14.216  0.2168 -0.0351 -0.1453
13689W        W31213  14.409  16.331   5.989  0.4098 -0.1602 -0.0801
13690W        W31214   6.532  11.112  15.372  0.3012 -0.0012  0.1581
13691W        W31215   1.519  16.186  11.787 -0.0592 -0.2462  0.3052
13692W        W31216   2.447   7.990   0.696  0.2338 -0.0841 -0.0126
13693W        W31217   5.551  11.601  13.319  0.2760 -0.2051  0.0174
13694W        W31218  11.948  14.303   5.615  0.1384 -0.1312 -0.1590
13695W        W31219   0.900  11.557  15.113 -0.0257 -0.3097 -0.1305
13696W        W31220  12.994   9.314  14.273 -0.2212  0.1386 -0.1261
13697W        W31221   9.646  15.214   0.185 -0.0643  0.3017 -0.2343
13698W        W31222  14.397  16.231   4.678  0.2732  0.3909  0.2113
13699W        W31223  12.586  17.572   3.127 -0.0583  0.1385  0.4320
13700W        W31224   6.237   2.951   0.680  0.1889  0.1237 -0.2121
13701W        W31225   4.735   5.550   5.186 -0.3073  0.0619  0.2836
13702W        W31226  15.201  16.072  16.187  0.3685 -0.2606  0.1841
13703W        W31227  16.315  17.547   2.487  0.1138  0.2006  0.0659
13704W        W31228   8.868   4.399   5.572 -0.0277 -0.1038  0.1094
13705W        W31229  13.267   9.704  16.173  0.0120 -0.0671 -0.0011
13706W        W31230   7.352  16.024  12.565 -0.1986 -0.0915 -0.0910
13707W        W31231  14.620   4.236  12.700 -0.1708  0.1894 -0.0891
13708W        W31232  10.587   3.196  12.982 -0.0344  0.3024  0.0793
13709W        W31233   6.411   5.949   4.244 -0.1635 -0.2041  0.1962
13710W        W31234   4.102   7.149   2.988 -0.1363 -0.1855  0.0635
13711W        W31235   9.453   1.792  13.119 -0.1469  0.1227  0.6091
13712W        W31236  14.624  14.395  13.158 -0.2805 -0.2158  0.0544
13713W        W31237   5.428  17.387  11.619  0.0396  0.1223  0.1664
13714W        W31238   8.400   6.570  13.951  0.0864  0.1967  0.2168
13715W        W31239   2.742   3.116  12.929  0.0241 -0.2168  0.2659
13716W        W31240  14.900  17.166  12.516  0.0159  0.0004  0.0930
13717W        W31241  15.682  16.433  13.951 -0.1962  0.1850 -0.0070
13718W        W31242  11.617  11.620   3.908  0.1969  0.2354  0.0612
13719W        W31243  11.028   4.422   4.001 -0.1341 -0.0463 -0.0253
13720W        W31244  16.666   9.992  13.098 -0.5147  0.1990 -0.3878
13721W        W31245  14.393  16.373  12.064 -0.0593 -0.2008 -0.0237
13722W        W31246   7.081   4.125   0.755  0.1689  0.0674 -0.1318
13723W        W31247   1.090  17.311   1.732  0.1080 -0.0768  0.0596
13724W        W31248   5.784   3.019   0.901 -0.1474  0.2895  0.2008
13725W        W31249  10.804   2.476  11.370  0.0902  0.1000  0.4654
13726W        W31250  11.498  10.885   0.568  0.1760 -0.2162  0.1320
13727W        W31251  10.541  15.434  14.922 -0.0493  0.0414  0.1046
13728W        W31252   7.781   5.770   4.466  0.2462 -0.1793  0.1942
13729W        W31253   9.788   3.238  10.781 -0.0491 -0.0272  0.0329
13730W        W31254   1.988  10.850   3.956  0.1619 -0.1169  0.1198
13731W        W31255   5.552   2.184   4.359 -0.1135 -0.2211  0.3189
13732W        W31256  14.285  12.214   3.595  0.0788  0.0663  0.3100
13733W        W31257   5.664  13.091   0.331 -0.2325 -0.0091  0.0729
13734W        W31258  15.998   2.019   3.747 -0.2574  0.1946  0.0381
13735W        W31259  11.968   0.918   2.808  0.1562  0.2183  0.3230
13736W        W31260   7.246   7.432  11.267 -0.1891  0.2790 -0.1493
13737W        W31261  14.482  13.593   4.022  0.1195 -0.1437  0.0531
13738W        W31262  15.529   2.947   3.092  0.0116  0.0988 -0.2037
13739W        W31263   2.843   7.657  15.087 -0.1969 -0.1630  0.0296
13740W        W31264  14.002  11.851   0.524  0.0377 -0.0219 -0.1209
13741W        W31265  11.564   8.613   3.782  0.0487  0.0900 -0.1456
13742W        W31266   5.896   2.949  15.656  0.1936 -0.0249 -0.0721
13743W        W31267  14.338   9.969  11.197 -0.2881 -0.1169 -0.0016
13744W        W31268   2.478   3.258   2.801 -0.3191  0.0703 -0.2571
13745W        W31269   8.959   4.203   0.197 -0.0664  0.0212 -0.0105
13746W        W31270   9.908  15.806   4.600 -0.0403  0.4327 -0.2110
13747W        W31271   1.523  10.672  12.810 -0.3301 -0.0608  0.0828
13748W        W31272   5.702   7.133   4.872 -0.0128  0.1146 -0.3317
13749W        W31273  17.815  16.374  14.022 -0.0798 -0.0535  0.1849
13750W        W31274   1.516  10.254   3.361  0.0553  0.1212  0.1245
13751W        W31275  11.098  13.786  12.656 -0.1853 -0.0721  0.1420
13752W        W31276   0.055   0.819   1.784 -0.0084  0.1400  0.1372
13753W        W31277   6.834   3.860  14.555 -0.0623  0.0240  0.3299
13754W        W31278  13.871  15.245   5.567 -0.2441 -0.0610 -0.1799
13755W        W31279   6.947   1.423   2.832  0.1459  0.0896 -0.1297
13756W        W31280  17.650   1.743  13.806 -0.2222  0.0547  0.0678
13757W        W31281  15.545  15.123  12.678 -0.0545  0.0015  0.0129
13758W        W31282  15.500  11.304  11.601 -0.0758 -0.2846  0.0076
13759W        W31283   4.869   5.259  11.261  0.1687  0.0014 -0.0264
13760W        W31284   0.161  16.305  14.694 -0.0474 -0.1602  0.3707
13761W        W31285  12.377  14.800  12.474 -0.0517 -0.0019 -0.0204
13762W        W31286  17.329   1.012  12.765  0.1132  0.1452  0.0300
13763W        W31287   7.314   9.567   0.555  0.0312 -0.0293 -0.1645
13764W        W31288   8.913  10.744   2.673 -0.1839  0.0762  0.2130
13765W        W31289  15.841   1.976  13.941  0.0167  0.0830  0.0553
13766W        W31290  10.334  11.915   0.927 -0.2550  0.2064  0.3157
13767W        W31291  13.572  13.002   3.237  0.0686  0.3585  0.1583
13768W        W31292  16.918   5.707  14.736 -0.2460  0.1566  0.0768
13769W        W31293   5.143  10.520   2.320  0.0942 -0.1549  0.4077
13770W        W31294   5.766   5.512  12.297 -0.0016 -0.1659  0.0921
13771W        W31295   5.692  11.151  13.508  0.1949  0.1566  0.0586
13772W        W31296   0.685  13.201   0.756 -0.2845 -0.0262 -0.1793
13773W        W31297  17.685   4.051  14.922  0.0796  0.0132  0.0032
13774W        W31298   5.627  10.393  16.235  0.0962 -0.3264  0.2171
13775W        W31299  12.148   5.195   2.785 -0.1614 -0.0371 -0.1862
13776W        W31300  14.305   1.470  16.077  0.0031  0.0299 -0.2001
13777W        W31301   5.455   6.607   3.329 -0.3643  0.0669 -0.1241
13778W        W31302   4.202  10.107   1.407  0.1927 -0.3183  0.0387
13779W        W31303   6.893   6.500   0.405 -0.1178  0.1359 -0.1204
13780W        W31304  11.784   2.801   0.489  0.3028  0.1738 -0.4649
13781W        W31305   4.807   2.299  13.078  0.1646 -0.0914  0.1982
13782W        W31306  17.712   8.950   1.065 -0.1729  0.3359  0.2156
13783W        W31307   4.499  10.525   2.762 -0.1400  0.0446 -0.2514
13784W        W31308  14.168  14.252  15.785 -0.0651 -0.2650 -0.2002
13785W        W31309  17.367   9.179   4.399  0.1502 -0.0545  0.1588
13786W        W31310   5.240   3.951   3.887 -0.2832 -0.0040 -0.0662
13787W        W31311   5.238   2.147   1.770 -0.0303  0.1435 -0.1454
13788W        W31312   1.371   4.799  16.070 -0.2143 -0.0053 -0.1393
13789W        W31313   4.641  10.019  13.854  0.2602  0.0569  0.0990
13790W        W31314   7.882   5.217   1.718 -0.2233 -0.1597  0.1411
13791W        W31315   7.830   8.169  15.384 -0.2523  0.2967 -0.0812
13792W        W31316  17.144   4.577  15.323  0.0580  0.1277  0.0137
13793W        W31317   2.641   7.650  12.634 -0.0388 -0.2078  0.0898
13794W        W31318   5.929   9.086   2.520  0.0333 -0.0101 -0.1728
13795W        W31319   7.178  16.230   2.767  0.3236 -0.4048  0.0382
13796W        W31320   7.669  10.972  13.343  0.0967 -0.1291  0.1566
13797W        W31321   0.408  11.815  14.696 -0.0871  0.1142 -0.0900
13798W        W31322  14.095  13.311   0.123  0.0869  0.2073  0.0156
13799W        W31323   2.958  15.681  13.324  0.4839 -0.0112 -0.0123
13800W        W31324   8.666   1.880  13.478 -0.1383  0.2317  0.0211
13801W        W31325   6.547  11.454  14.315  0.0606  0.2269  0.0001
13802W        W31326   5.570   2.995   4.715 -0.0615  0.3276  0.2896
13803W        W31327   2.040  14.086   4.374  0.0948 -0.2914  0.0839
13804W        W31328   8.009   2.415  14.490  0.0783  0.1776  0.0844
13805W        W31329  15.398   2.402   1.385 -0.1409 -0.0109 -0.2165
13806W        W31330   6.574   2.435  15.134 -0.1828 -0.1506  0.0682
13807W        W31331   9.788   3.243  14.441  0.2043  0.0701 -0.0945
13808W        W31332  13.074   5.022   1.144  0.2889  0.1309 -0.1120
13809W        W31333   8.644   1.932  12.205 -0.2007 -0.0324 -0.0077
13810W        W31334  16.667   8.423  14.564 -0.0882 -0.0184  0.2368
13811W        W31335  12.353  14.879   2.874 -0.0350 -0.0961  0.1849
13812W        W31336   2.266  13.392  14.912 -0.1013  0.2128 -0.0629
13813W        W31337  12.605   0.971  10.984 -0.3389  0.1628 -0.0491
13814W        W31338  13.127  17.835  15.363 -0.2112 -0.0118  0.1826
13815W        W31339   0.765  12.681   2.779  0.0926 -0.1613  0.1377
13816W        W31340  15.195  17.587   2.378  0.1758  0.0298  0.0641
13817W        W31341   4.464  13.799   3.107 -0.0819 -0.0472 -0.1962
13818W        W31342  13.579  16.878   6.027 -0.3551 -0.0226 -0.0320
13819W        W31343  12.714  12.879   3.155 -0.3466  0.1801 -0.2391
13820W        W31344  12.403  10.688  15.344 -0.3365 -0.2888 -0.0542
13821W        W31345  16.828   3.216   2.644  0.0191  0.1070 -0.2377
13822W        W31346  13.418  14.635   0.323 -0.1250  0.0560 -0.0498
13823W        W31347   2.231  13.727  15.312 -0.0531  0.1251  0.1461
13824W        W31348   9.622   0.610   4.079 -0.1333 -0.0470  0.1266
13825W        W31349   0.922  10.331  12.996 -0.0782  0.0751  0.1587
13826W        W31350  10.475   6.489   1.291  0.0543 -0.3642  0.0318
13827W        W31351  15.735  11.484   0.746 -0.2141  0.0573  0.1508
13828W        W31352  16.651   9.530   3.951  0.1519 -0.3115 -0.1984
13829W        W31353   6.971   9.383  13.675  0.2171 -0.1446  0.2776
13830W        W31354   2.283  10.072   3.475 -0.2009 -0.2042 -0.0288
13831W        W31355  10.637  13.107  12.976 -0.0095 -0.1086  0.2077
13832W        W31356  15.755   6.797  11.752  0.1613 -0.2093 -0.2711
13833W        W31357  12.624   9.103   5.170 -0.0045  0.1605 -0.1464
13834W        W31358  15.303  15.790  14.376 -0.0812  0.0996 -0.0092
13835W        W31359   8.233   2.688   1.487  0.4019 -0.1307 -0.0407
13836W        W31360   1.802   6.651  12.128  0.5586  0.0705  0.1704
13837W        W31361   6.615   5.376   3.603 -0.2715  0.1072  0.1993
13838W        W31362   2.010  13.337   2.418 -0.0623  0.1891 -0.0240
13839W        W31363  11.427   9.752   0.962 -0.0934  0.1425 -0.1329
13840W        W31364   9.716  17.536  14.550 -0.1097 -0.4104 -0.0995
13841W        W31365   2.647  12.356   3.353  0.4224  0.2126 -0.0118
13842W        W31366   7.807  16.232   3.831  0.4156  0.3350 -0.1123
13843W        W31367  10.559   4.238  14.937 -0.0308  0.2533  0.1726
13844W        W31368  12.390   0.615  13.815 -0.2074 -0.0073  0.0484
13845W        W31369  11.727  11.966   1.082  0.0450 -0.1767 -0.2469
13846W        W31370   2.287  17.021  15.126  0.0319 -0.1973  0.1595
13847W        W31371   2.590  11.048  13.342 -0.0290 -0.0159 -0.0810
13848W        W31372  15.437  16.008  12.887  0.0556 -0.3284  0.2166
13849W        W31373  11.287  15.675  15.355 -0.0022  0.1591 -0.2208
13850W        W31374   8.963  12.283   3.333 -0.0321  0.0379  0.2049
13851W        W31375  10.683  16.173  11.595 -0.0549  0.1422  0.1697
13852W        W31376  12.876  11.540   0.841 -0.2050 -0.0522  0.0151
13853W        W31377  17.417  11.588  15.079  0.3470  0.1296  0.2778
13854W        W31378  11.072  10.551   2.049  0.0897  0.2034 -0.0146
13855W        W31379  13.984   1.100  13.288 -0.0583 -0.0883 -0.2150
13856W        W31380   2.025  14.533   3.599 -0.1960 -0.0121 -0.0537
13857W        W31381  13.945   7.037  14.366 -0.0569 -0.0770  0.2478
13858W        W31382  14.177   2.431  15.158  0.0499  0.2165 -0.1611
13859W        W31383   7.386   5.095  14.073 -0.1051 -0.3140  0.3214
13860W        W31384  12.417   1.825  15.961 -0.1662  0.4772 -0.0395
13861W        W31385  10.771   1.527  12.841 -0.1877 -0.0987 -0.3638
13862W        W31386  17.543  15.755   4.771 -0.1885  0.1506 -0.1482
13863W        W31387  12.432   7.182   1.036 -0.2455 -0.1664  0.2409
13864W        W31388   2.872   4.539   2.050 -0.3266 -0.3302 -0.4471
13865W        W31389   6.883   8.998   1.710  0.0614 -0.0485 -0.2295
13866W        W31390   4.856  10.805   0.439  0.0355  0.4637 -0.1316
13867W        W31391   6.237   1.587   4.083  0.0918  0.0345  0.0603
13868W        W31392  17.421   3.883  15.424 -0.0698  0.2368 -0.2586
13869W        W31393   3.629   2.687  12.661  0.3070  0.0807 -0.3903
13870W        W31394   6.882   5.149  14.178 -0.0428  0.0468  0.4998
13871W        W31395   1.165  12.689  16.245  0.0409 -0.0071  0.0922
13872W        W31396  15.705  14.021  14.566 -0.2191 -0.0112 -0.0070
13873W        W31397  10.959   8.751  16.131  0.3305  0.0532  0.0735
13874W        W31398  16.231   1.911  11.548  0.3616  0.3589  0.0996
13875W        W31399  11.170  11.731  11.923  0.1711 -0.5344 -0.1238
13876W        W31400  12.997  12.048   3.800 -0.0529  0.0689 -0.0671
13877W        W31401  15.895  13.020  13.165 -0.0088  0.0437  0.2843
13878W        W31402   6.190  17.919  11.848 -0.1516  0.0117  0.0679
13879W        W31403   2.588   6.118  15.884 -0.0046 -0.1878 -0.0080
13880W        W31404   4.183   6.986   1.058  0.0733  0.0539 -0.2183
13881W        W31405   1.999   5.768   3.758 -0.1622  0.0074  0.0158
13882W        W31406  14.665   2.195   0.991  0.0207 -0.0347 -0.1252
13883W        W31407   6.509   5.634  15.820 -0.2002 -0.1417  0.0616
13884W        W31408   5.692   8.156  15.693  0.1503  0.2255 -0.0665
13885W        W31409  10.377   3.400   2.574  0.0064 -0.2012 -0.0270
13886W        W31410   5.358   4.884  13.173  0.3987 -0.2295  0.0400
13887W        W31411   9.223  13.553  10.623 -0.0093 -0.1693  0.3376
13888W        W31412   3.013   2.233   4.936 -0.2525  0.0821  0.0472
13889W        W31413   8.972   6.649  11.262 -0.0885 -0.4299  0.2771
13890W        W31414   9.767   0.334   1.995  0.0217 -0.0030 -0.0588
13891W        W31415   0.761  11.209  12.870  0.0747 -0.0830 -0.1646
13892W        W31416   5.263  15.550   0.802 -0.1757  0.0255 -0.0961
13893W        W31417   4.783   7.092  14.966  0.1781 -0.0436 -0.0879
13894W        W31418  16.860  11.515  16.239 -0.0216  0.0896 -0.0344
13895W        W31419  17.296   8.087   2.065 -0.0180  0.0371  0.2010
13896W        W31420  10.095   2.518  15.534 -0.0493 -0.3667  0.0385
13897W        W31421   9.449   4.973  12.024  0.0043  0.4030 -0.2038
13898W        W31422   7.833   7.054  13.201  0.0096  0.0823  0.1120
13899W        W31423  17.113   2.512  12.348  0.0192 -0.1350 -0.0733
13900W        W31424   4.311  17.493   1.582 -0.1548 -0.1756 -0.2255
13901W        W31425   2.644   6.404  12.383  0.1573 -0.1773  0.2543
13902W        W31426  16.325   5.712  13.592  0.0051  0.1413 -0.0148
13903W        W31427   2.640  12.141  12.557  0.0281  0.0239 -0.0421
13904W        W31428   7.356   3.124  15.393 -0.0510  0.0200 -0.1043
13905W        W31429   7.523  14.437   1.695 -0.1368 -0.0579 -0.2600
13906W        W31430  17.847  14.757   0.496 -0.0726 -0.0036 -0.1088
13907W        W31431   2.131  16.338   3.029 -0.0657 -0.0486 -0.0385
13908W        W31432  14.300  14.927   5.427 -0.0702 -0.2337 -0.2441
13909W        W31433  11.470  11.085  13.094  0.0259  0.1710 -0.3361
13910W        W31434  15.606   2.710   4.555  0.0074  0.3773  0.1320
13911W        W31435   3.531  16.343   3.895  0.0656  0.0050  0.4583
13912W        W31436   0.639  17.443   4.201 -0.0382 -0.3337 -0.0320
13913W        W31437   1.872  13.279   4.402 -0.1001  0.0643  0.0019
13914W        W31438   3.079   9.305  14.261  0.0812  0.0905  0.0224
13915W        W31439   3.650   6.897  16.202 -0.3126 -0.0514 -0.0506
13916W        W31440   0.523   2.641  13.452  0.0455 -0.2666 -0.0137
13917W        W31441   3.316  15.260  15.984  0.2621 -0.0289 -0.0679
13918W        W31442   7.116  13.475  14.395 -0.0176  0.0411  0.0930
13919W        W31443  15.692   5.935  12.161 -0.1716 -0.2819 -0.0091
13920W        W31444   2.331  11.248   3.641  0.1489  0.1186  0.1531
13921W        W31445   5.072   7.009  16.155  0.3426 -0.0156  0.0836
13922W        W31446  11.722   2.948  12.898  0.0767 -0.2452 -0.2702
13923W        W31447   1.228  15.781   3.764  0.3266  0.3741  0.1721
13924W        W31448   4.412   1.491  12.289 -0.0694 -0.1080 -0.1270
13925W        W31449   2.434   2.889   5.348  0.1164 -0.2863  0.0158
13926W        W31450   1.950   8.324  14.320  0.2263 -0.1290  0.0217
13927W        W31451  13.495  13.469  14.975  0.0594 -0.0876 -0.1405
13928W        W31452   6.515   1.172   3.038  0.1473 -0.0020 -0.1831
13929W        W31453  17.122  11.007  14.080 -0.3300  0.0236 -0.1162
13930W        W31454   3.053   6.136  16.050  0.0654 -0.1214  0.0491
13931W        W31455   7.113   4.887   4.132 -0.4880 -0.0396  0.1370
13932W        W31456  13.343   1.278  15.202 -0.1420 -0.1641  0.2348
13933W        W31457   9.182   7.204   3.374 -0.3124  0.1498 -0.0746
13934W        W31458  16.863  16.879  11.470  0.0257 -0.0438  0.0823
13935W        W31459  11.879  16.050   4.809  0.0595 -0.0592 -0.0573
13936W        W31460   2.714   1.963  15.833 -0.1488  0.0073 -0.0336
13937W        W31461  14.171  10.998  13.350 -0.2062 -0.0204 -0.1303
13938W        W31462  12.954   1.120  13.126 -0.2306 -0.0463  0.0602
13939W        W31463   0.277  11.408  13.049  0.1360  0.1153 -0.0863
13940W        W31464   7.413  10.956   3.571  0.0451  0.0366  0.0146
13941W        W31465   9.387  12.832   1.280  0.1386  0.0815  0.1739
13942W        W31466   0.427   3.573   3.522  0.2721  0.1426 -0.0713
13943W        W31467   2.642   1.007  12.699  0.0710  0.0691  0.1031
13944W        W31468   2.478   9.820  15.253  0.0965 -0.0885 -0.2756
13945W        W31469   0.331  14.198  12.414 -0.0913 -0.0214  0.2510
13946W        W31470   4.639   5.066  14.298 -0.1860  0.1975  0.1194
13947W        W31471   7.980   9.175  13.990 -0.2192  0.2615  0.1230
13948W        W31472   7.677  16.027  13.547 -0.1878  0.1056  0.2143
13949W        W31473   1.036  13.183  11.181 -0.1251  0.0109  0.0155
13950W        W31474   7.664   0.449  16.021  0.0388 -0.0878  0.0578
13951W        W31475   8.268  16.002  10.434 -0.0179 -0.0360  0.1223
13952W        W31476   1.952   7.902  14.036 -0.2079 -0.1480  0.1578
13953W        W31477   5.534  13.810   3.509  0.0670  0.0338  0.1200
13954W        W31478   2.621  15.974   0.723  0.0047 -0.5026  0.0501
13955W        W31479  16.310  10.783  11.194 -0.1042 -0.0295  0.0910
13956W        W31480   6.564   4.211  11.452  0.2324 -0.0716 -0.0519
13957W        W31481  17.231  14.204   2.165  0.2291  0.0257 -0.1530
13958W        W31482   1.902  15.206  14.085 -0.1640  0.0800  0.0362
13959W        W31483   9.308  12.883  12.451  0.1774  0.2734 -0.0121
13960W        W31484  15.982  14.827  11.142  0.1326  0.0040 -0.1931
13961W        W31485  13.396  17.291  14.582  0.2688  0.1383  0.1172
13962W        W31486   4.968   7.594   3.265 -0.0370  0.2314  0.3414
13963W        W31487   4.172  15.844   2.172  0.1511 -0.2427 -0.1082
13964W        W31488   1.427  14.596   3.678  0.1029  0.0642 -0.3263
13965W        W31489   1.501  11.570  14.342  0.1133 -0.1473  0.1409
13966W        W31490   7.297   2.039  14.567  0.3130 -0.0983  0.1780
13967W        W31491   4.785   6.168   4.885  0.0921  0.0753  0.0887
13968W        W31492  17.561  13.121  12.677 -0.0189 -0.0989  0.2019
13969W        W31493  11.955   6.916  15.440  0.1274 -0.2319  0.2377
13970W        W31494   9.336   5.117   4.333  0.2167 -0.1196  0.1276
13971W        W31495  17.010  13.351   2.617 -0.1456 -0.0699 -0.1978
13972W        W31496   4.115   7.644  14.271  0.1373 -0.1073 -0.1123
13973W        W31497  16.282   3.045   4.467 -0.1618 -0.1614 -0.2363
13974W        W31498   6.537   0.262  11.689 -0.1951 -0.0447 -0.1268
13975W        W31499   7.324   4.857   0.101 -0.1340  0.0488  0.1259
13976W        W31500  16.145   5.887   3.201 -0.1021 -0.3474  0.0267
13977W        W31501  17.309  11.728  12.004  0.1205  0.1582 -0.1301
13978W        W31502  10.614   9.041   0.093 -0.0949  0.2063  0.1079
13979W        W31503  11.979  15.182  12.354  0.0205 -0.2209  0.0758
13980W        W31504   4.753  12.183   3.149 -0.1326  0.0762 -0.0944
13981W        W31505  16.510  11.664   5.055  0.0756 -0.0038  0.0374
13982W        W31506   3.491  13.641   4.084  0.1210  0.0560 -0.1577
13983W        W31507   9.931  11.675   1.155  0.0761 -0.1999 -0.0131
13984W        W31508  10.317  14.539   2.427  0.5830  0.0811 -0.0873
13985W        W31509   1.951   2.970  11.456  0.2109  0.0484  0.1746
13986W        W31510   5.706   9.160  13.635  0.1110 -0.3256 -0.0413
13987W        W31511  11.758   4.316   0.994 -0.2395 -0.0879  0.1170
13988W        W31512  16.905  14.244   1.238  0.1337 -0.3250  0.1780
13989W        W31513   4.064   2.304   4.002 -0.0478  0.1605  0.0445
13990W        W31514   1.713   2.243  15.017  0.1284  0.2867 -0.0635
13991W        W31515   8.875   8.820   2.326  0.0111 -0.0015 -0.0446
13992W        W31516   2.182  14.114   3.891 -0.1401  0.0309 -0.0166
13993W        W31517  16.605   5.805   2.019  0.1391  0.0678  0.1595
13994W        W31518  13.778   3.256  12.122 -0.3326  0.1533  0.1882
13995W        W31519   5.611   8.966  12.456  0.1469  0.1499 -0.1355
13996W        W31520   6.147  11.214   3.590  0.0166  0.3401 -0.2494
13997W        W31521  13.360   0.571   2.570 -0.0969  0.0004  0.2173
13998W        W31522   8.881  11.803   3.185 -0.0705  0.0397  0.0270
13999W        W31523   0.192   3.894   2.757 -0.2141 -0.3795  0.1357
14000W        W31524  11.433   0.977  14.242 -0.0373  0.2702  0.0686
14001W        W31525  13.442  10.145   5.284  0.2039 -0.1495  0.0847
14002W        W31526   2.791   2.651   5.626 -0.2827  0.0566 -0.0541
14003W        W31527  12.381   1.923  13.567  0.1062  0.3200 -0.1741
14004W        W31528   7.773   8.844   0.158 -0.2218 -0.1457  0.0792
14005W        W31529   4.516   3.941  11.631  0.0892 -0.1444 -0.1255
14006W        W31530   3.120  14.233   0.199 -0.2179  0.2374 -0.0091
14007W        W31531   4.054   7.913  13.002 -0.0578  0.0050 -0.0180
14008W        W31532  12.291  11.025  13.367 -0.1366 -0.3261 -0.0881
14009W        W31533   6.538  13.545   2.807 -0.1674  0.0464  0.2756
14010W        W31534  17.441   7.148  11.399 -0.4242 -0.0163 -0.1941
14011W        W31535   1.381   3.894   0.598  0.0874 -0.0168 -0.3021
14012W        W31536   0.601   5.264   2.609  0.0588 -0.0485  0.0829
14013W        W31537  12.994   5.717   4.007  0.2412  0.0847 -0.1930
14014W        W31538  17.191  14.852  12.951 -0.0732  0.0064  0.2289
14015W        W31539   3.574   6.050  13.282 -0.1623 -0.1483 -0.0829
14016W        W31540  10.124  14.106  12.405  0.1723 -0.4062 -0.1351
14017W        W31541  10.493  14.860  12.860  0.4116 -0.2083 -0.2190
14018W        W31542   5.093   0.236  13.256  0.1758 -0.2532 -0.1736
14019W        W31543  12.688   6.740   3.699  0.1116 -0.0887  0.0436
14020W        W31544  14.037   3.852   2.627  0.1416 -0.1591 -0.0324
14021W        W31545   3.143   2.031  11.724 -0.0241  0.0090 -0.2066
14022W        W31546   5.706  13.535   2.607 -0.2013  0.3538  0.1190
14023W        W31547  17.844   3.257  11.516  0.1931  0.1334 -0.1178
14024W        W31548   9.297  15.102  14.554  0.1145  0.3132  0.1753
14025W        W31549   6.402  17.769   2.845  0.0338 -0.1812 -0.1577
14026W        W31550   2.760   7.979   5.439  0.2881  0.2008  0.1232
14027W        W31551  14.477   8.557   5.432 -0.2153  0.1760 -0.0437
14028W        W31552   5.380   0.697  16.180 -0.4259 -0.3077 -0.2828
14029W        W31553  14.080  11.741   1.042  0.2120 -0.0850  0.0640
14030W        W31554  15.158  16.919  14.117  0.1940  0.0153 -0.0725
14031W        W31555   8.515  11.360   0.653  0.0900  0.4034  0.0877
14032W        W31556  11.706   5.864  14.262  0.1135  0.2115  0.1804
14033W        W31557  17.687   0.166   1.304 -0.0212 -0.0250  0.3847
14034W        W31558   8.430   9.640  14.400  0.0899  0.1787  0.1536
14035W        W31559  11.994  10.271  15.800 -0.0571 -0.0426  0.1048
14036W        W31560  11.056  11.187  13.685  0.1084 -0.1385 -0.0808
14037W        W31561   6.137  17.466   2.516 -0.0003  0.1368  0.1912
14038W        W31562  13.503  17.147   1.392 -0.0311  0.0748  0.0517
14039W        W31563   0.898   4.724  14.553 -0.5074  0.1947 -0.3184
14040W        W31564   8.748   6.384   2.368  0.0890  0.1212 -0.1628
14041W        W31565  10.958   3.547  15.950 -0.0806 -0.2122 -0.1733
14042W        W31566   8.236  11.482   0.221  0.1084 -0.1830 -0.0838
14043W        W31567   5.381   9.296   4.468  0.3245 -0.0696  0.4092
14044W        W31568  14.020  10.787   4.275  0.2858  0.2446 -0.0114
14045W        W31569   5.446  17.235  12.184  0.1231  0.0873 -0.1031
14046W        W31570   4.777   3.597  10.959  0.0954  0.0978 -0.1933
14047W        W31571   6.158   0.315   0.906  0.2024  0.1204 -0.1701
14048W        W31572   9.731  17.351   0.110  0.5010  0.1281  0.0744
14049W        W31573   2.656   3.260  13.660  0.0240 -0.3175 -0.1515
14050W        W31574   9.962   7.320  12.637 -0.1034  0.1999  0.1586
14051W        W31575   9.181   8.098   2.757 -0.1707  0.1419 -0.1807
14052W        W31576  14.029  14.673  16.210  0.2464  0.1907 -0.0823
14053W        W31577  17.190   6.271   3.831 -0.1353  0.2089 -0.1005
14054W        W31578   9.183   8.590  14.468 -0.2816 -0.1148  0.1011
14055W        W31579   0.891  10.696   2.106 -0.0390 -0.1838 -0.1039
14056W        W31580   1.670  11.182  14.633  0.2554 -0.0342  0.1585
14057W        W31581   8.408  14.160   2.638 -0.1604  0.4148  0.1434
14058W        W31582  16.330   5.820   0.624 -0.2343 -0.0531 -0.0738
14059W        W31583  12.355   6.642  11.358 -0.1496 -0.0636 -0.1712
14060W        W31584   7.364   4.128   2.979  0.3264 -0.1340 -0.0124
14061W        W31585   0.219  16.022  12.236 -0.1477  0.4135 -0.2431
14062W        W31586  10.272   2.882   1.006  0.2233 -0.0259  0.1800
14063W        W31587   0.601  16.425   0.474  0.1095 -0.2438  0.1131
14064W        W31588   3.094   2.142  14.104 -0.1269 -0.0465 -0.1655
14065W        W31589   5.203  11.844  14.274 -0.2495  0.0841 -0.0902
14066W        W31590   8.108   1.333  13.552  0.0970  0.1885 -0.0839
14067W        W31591  16.141   3.911  14.800 -0.1614 -0.0043 -0.0684
14068W        W31592  10.946   3.649   1.058  0.2222  0.1901  0.2509
14069W        W31593  12.457   7.133  15.126  0.0052 -0.0175 -0.0727
14070W        W31594   2.886  13.201   1.273 -0.0746  0.0906  0.3846
14071W        W31595  14.065   8.735  14.735 -0.0859  0.1406 -0.2005
14072W        W31596   0.942  11.352   3.982 -0.2202 -0.0419 -0.1706
14073W        W31597   0.324   1.851   0.095  0.2215 -0.0904  0.1015
14074W        W31598   6.288   4.653  16.078  0.1861  0.3293  0.2353
14075W        W31599  10.028  15.878   3.014  0.2502 -0.0552 -0.0708
14076W        W31600   2.846   0.906   3.763  0.0030  0.1723  0.1595
14077W        W31601   1.471   7.070  12.113  0.1520 -0.0599 -0.0350
14078W        W31602   9.075   7.866  13.691 -0.0260 -0.2909 -0.1946
14079W        W31603  13.154   3.779   1.512 -0.0608  0.1624 -0.4079
14080W        W31604  11.857   1.220   0.054 -0.1773 -0.2752 -0.2754
14081W        W31605   8.553  12.582   5.234  0.0689  0.2292  0.2981
14082W        W31606  11.209   2.591   4.328 -0.1588 -0.0647  0.1337
14083W        W31607   4.662   6.007   2.688  0.0503 -0.2351 -0.2596
14084W        W31608   7.040  15.380   5.099  0.1105 -0.0540 -0.2029
14085W        W31609   5.900   4.207   2.195  0.1529 -0.0273 -0.1172
14086W        W31610  12.414   9.766   0.967  0.2679  0.0691 -0.0272
14087W        W31611   6.466   2.377   1.745 -0.0136  0.2736 -0.0948
14088W        W31612   1.187  12.151  12.340  0.0783 -0.1202  0.0206
14089W        W31613   0.408  12.531   3.654  0.0195  0.2661 -0.0771
14090W        W31614  11.819  10.717   4.187  0.4780  0.2304  0.0249
14091W        W31615   2.899   1.053  12.242 -0.3651 -0.1066  0.1494
14092W        W31616   8.426  13.235   2.711 -0.1509  0.1409  0.1204
14093W        W31617   3.130  16.821   3.903 -0.1044 -0.4070 -0.2596
14094W        W31618  13.492  12.423  14.889 -0.1027  0.1368  0.1218
14095W        W31619   6.841  14.280   5.724  0.1641 -0.0034 -0.2177
14096W        W31620   0.496  14.523  12.036  0.0085  0.0966  0.0001
14097W        W31621   2.506  12.873   0.067  0.0756  0.1375 -0.1705
14098W        W31622   1.527   2.311  11.100 -0.1444  0.0602  0.3263
14099W        W31623   3.303  13.763  13.221 -0.1748 -0.0240  0.2438
14100W        W31624  16.827  11.486  11.330 -0.1973  0.0742 -0.0189
14101W        W31625   2.257  14.629  11.924 -0.0981 -0.0708  0.0173
14102W        W31626  17.202  17.075  13.320 -0.1356  0.0238 -0.1193
14103W        W31627   0.475  13.562   4.854 -0.0073  0.0023  0.3062
14104W        W31628  15.107  14.470  13.102  0.0365  0.2671 -0.1209
14105W        W31629   7.430   6.190   0.943  0.0596  0.0481  0.0616
14106W        W31630  16.115   0.421  15.844 -0.0837  0.2617 -0.1474
14107W        W31631   7.686  10.902  14.597  0.2260  0.1967  0.1115
14108W        W31632   5.024   8.766   5.034 -0.1898 -0.0970  0.3155
14109W        W31633   9.480  14.351  11.578 -0.0726  0.0653 -0.1461
14110W        W31634   2.930   3.460   2.977 -0.0467  0.1673  0.1149
14111W        W31635  16.291   3.325   1.591  0.0147 -0.1654 -0.0219
14112W        W31636  13.491   5.743   0.036 -0.1881  0.0629 -0.0291
14113W        W31637   8.196  11.014  11.468 -0.1713 -0.1040  0.1486
14114W        W31638   4.895  10.198  11.843 -0.5210  0.2715 -0.3300
14115W        W31639  16.246   8.194  13.438 -0.2379 -0.3215 -0.3121
14116W        W31640  13.329   7.716  12.975 -0.0911 -0.2393 -0.1058
14117W        W31641   7.996   3.268  14.804  0.0187  0.0134 -0.0637
14118W        W31642   3.591   0.116  14.863  0.2932 -0.0185 -0.1928
14119W        W31643   1.856   1.342   3.789 -0.2745 -0.2070 -0.3002
14120W        W31644   3.798  13.094  12.364  0.2069  0.0020 -0.0403
14121W        W31645   0.271   1.328   0.302  0.0218  0.0477  0.2002
14122W        W31646   6.496   5.262  12.718 -0.1157  0.2624 -0.2380
14123W        W31647  17.806   8.516   4.914  0.0954 -0.1281 -0.2142
14124W        W31648   1.342   6.157  12.060 -0.0285 -0.0545 -0.0573
14125W        W31649   5.979  15.006  12.606 -0.4050 -0.0483 -0.3667
14126W        W31650   9.212   6.489   1.413 -0.2243  0.0788 -0.0528
14127W        W31651  11.809  14.431   2.197 -0.1809 -0.1106  0.1021
14128W        W31652   5.959  15.038   2.825  0.0996  0.1827 -0.3394
14129W        W31653   4.072   8.790  15.062 -0.2831 -0.0006 -0.1084
14130W        W31654  11.751   1.898  16.144 -0.0483  0.1725 -0.1624
14131W        W31655  15.147  10.186  14.864 -0.1868 -0.1001 -0.1540
14132W        W31656   0.461  11.312   5.169  0.1310 -0.1218  0.2074
14133W        W31657   3.958  12.882   2.108 -0.2171 -0.2249 -0.0460
14134W        W31658   2.748   4.654   2.812 -0.2402 -0.0239  0.0786
14135W        W31659   1.778  11.855   4.313  0.1929  0.0273  0.0770
14136W        W31660   4.602  11.851  14.398  0.2010 -0.1327  0.0864
14137W        W31661   5.010   7.392   1.649  0.1259  0.0567  0.3599
14138W        W31662   9.653  17.825  15.033  0.1533  0.0283 -0.0342
14139W        W31663  17.500  12.469   5.303 -0.1665 -0.0538 -0.3754
14140W        W31664  12.878   4.183  11.754  0.0722 -0.1627 -0.0135
14141W        W31665  12.473   1.632  14.011  0.0249  0.0327 -0.1955
14142W        W31666   4.586  15.255  14.015  0.1045  0.1292  0.0665
14143W        W31667  15.146  12.555   3.389 -0.0456 -0.2568  0.2364
14144W        W31668  13.779   0.863   0.050 -0.1536  0.1052  0.0919
14145W        W31669  10.319   1.055   1.793  0.1686  0.2166 -0.0244
14146W        W31670  12.889  11.562  15.944 -0.1472  0.0966  0.0460
14147W        W31671   8.426   2.935  11.238 -0.0198 -0.0335 -0.3381
14148W        W31672  14.932  11.521   0.589  0.0749  0.1551 -0.0058
14149W        W31673   1.456  13.082  15.269  0.0621  0.0572 -0.1358
14150W        W31674  13.239   3.471  11.086  0.0985 -0.0016  0.3353
14151W        W31675   5.052   9.337  11.728 -0.0545  0.1687 -0.0375
14152W        W31676   9.589  15.924   3.558 -0.1139  0.0073 -0.0947
14153W        W31677  13.019   0.902   0.186  0.1087 -0.1312 -0.0919
14154W        W31678   7.829   7.547   1.950 -0.0360 -0.0320  0.1767
14155W        W31679   4.731   6.530   2.633 -0.1228  0.0022 -0.1221
14156W        W31680  10.424   0.178  14.358  0.0600  0.0200 -0.1975
14157W        W31681   1.521   3.632  15.010 -0.1017  0.2997 -0.1136
14158W        W31682  11.807   6.770   1.774  0.0336 -0.1892 -0.4907
14159W        W31683   6.441   0.108   4.317 -0.2017  0.1484 -0.0292
14160W        W31684  11.118   4.959  14.300 -0.2274 -0.2040 -0.1197
14161W        W31685   2.383   9.821   2.858 -0.1007  0.0107  0.0152
14162W        W31686  17.930   4.762  14.863  0.1944 -0.0563  0.0104
14163W        W31687  10.281   4.029  13.376 -0.1429 -0.0270  0.0948
14164W        W31688   2.213  15.580  12.732  0.1332  0.0477 -0.3793
14165W        W31689  12.933  13.150  14.538  0.1279 -0.0243  0.0910
14166W        W31690  17.787  10.169   1.474 -0.1823 -0.0511 -0.3540
14167W        W31691   5.278   3.347   4.836  0.1013 -0.2291 -0.2367
14168W        W31692  15.585  11.987  13.021 -0.3643 -0.0218 -0.2615
14169W        W31693  10.332  11.505   5.446  0.2200  0.3573 -0.3675
14170W        W31694   7.409   0.184   2.708 -0.3505  0.3684 -0.2209
14171W        W31695   0.660   1.271  15.413  0.1536 -0.0085 -0.1084
14172W        W31696  15.390   3.872   4.683 -0.1985  0.1977  0.0104
14173W        W31697   5.235   9.768  11.331  0.1265 -0.1226  0.1510
14174W        W31698   3.175   0.080   2.974 -0.0601 -0.1614 -0.0744
14175W        W31699   1.174   6.791  13.805 -0.1096  0.1285 -0.0661
14176W        W31700  13.992   8.970   3.898  0.3504 -0.2225 -0.1222
14177W        W31701   2.387  10.398  15.839  0.0920 -0.3061  0.0062
14178W        W31702  15.071   0.031  15.264  0.0499 -0.2792 -0.2857
14179W        W31703   4.155   0.784  11.751  0.0552  0.1120  0.2852
14180W        W31704  10.820  11.989  15.481 -0.2236 -0.0369  0.1797
14181W        W31705  11.715   3.003  14.227 -0.0555  0.0148 -0.1491
14182W        W31706   5.458  11.137   4.715  0.1697  0.0616  0.0656
14183W        W31707  14.256   7.853  12.555  0.0373  0.2097  0.0259
14184W        W31708  13.405   4.089   1.853 -0.3947  0.0516  0.1134
14185W        W31709   1.349  16.326  13.214  0.2040 -0.1173 -0.0706
14186W        W31710  12.298   7.293  14.623  0.2907  0.0809  0.1151
14187W        W31711   9.336  12.758   0.683  0.2089 -0.4041  0.1413
14188W        W31712   1.225   7.546  12.265  0.0924 -0.3193 -0.1532
14189W        W31713   3.732   9.584   1.846  0.1843 -0.1233 -0.0235
14190W        W31714   6.548  10.338  11.162  0.1840 -0.1242 -0.3398
14191W        W31715  10.234  14.323  12.902 -0.1300  0.2245 -0.1621
14192W        W31716   3.125   4.050   3.371 -0.1462 -0.1614  0.1024
14193W        W31717  12.074   3.384  15.556 -0.2576  0.0935  0.3242
14194W        W31718  15.197   6.359   5.911  0.1398  0.0005  0.2491
14195W        W31719   5.924  14.941   3.791 -0.1403  0.1346  0.0097
14196W        W31720   2.889   8.639   1.874  0.5061 -0.2725  0.2255
14197W        W31721   6.249   8.880  14.154  0.0586  0.1307  0.2029
14198W        W31722  15.634  11.835   1.858  0.2059  0.1995  0.0744
14199W        W31723  16.719  13.507   5.324  0.1617  0.0527  0.1786
14200W        W31724   2.444   6.099  13.556  0.1301  0.0319  0.0818
14201W        W31725   1.310  16.040  14.004 -0.1910  0.1788  0.0020
14202W        W31726   9.394   4.631  14.078  0.3923  0.0216 -0.1601
14203W        W31727   0.465   6.302   4.041  0.1083 -0.1234  0.2744
14204W        W31728  12.723  16.071   2.282  0.3670  0.0910  0.0054
14205W        W31729  14.406  13.847  16.058  0.1861 -0.2133  0.0052
14206W        W31730   5.147  11.879   1.793  0.1935  0.1357  0.0427
14207W        W31731   0.279   9.404   1.615 -0.3255 -0.2873  0.1454
14208W        W31732   0.627   2.148   3.355  0.0456 -0.0202  0.1157
14209W        W31733   4.195  14.264   4.386 -0.1672 -0.1995  0.0498
14210W        W31734   2.257   4.939  14.575 -0.1143 -0.0773 -0.5572
14211W        W31735   5.986  17.788   4.120  0.0814 -0.1600 -0.0041
14212W        W31736  11.332   2.875   5.013  0.1825  0.1417  0.1720
14213W        W31737  12.299  11.258   2.576  0.0824  0.0226 -0.2647
14214W        W31738  17.940  10.874  14.003 -0.0924  0.0988 -0.2173
14215W        W31739  17.258   3.718   1.411 -0.2288 -0.0929  0.0385
14216W        W31740  17.716   7.028  14.464  0.3308  0.3390 -0.0217
14217W        W31741   8.388   4.667   3.996 -0.0431  0.0713 -0.2549
14218W        W31742  11.595   2.140   4.579  0.1482  0.1981  0.0739
14219W        W31743   4.140  15.110   0.650 -0.0948 -0.2864 -0.2001
14220W        W31744  14.392   0.625   3.849  0.0314 -0.2307  0.2060
14221W        W31745   3.511   4.776  14.062  0.0934 -0.1503 -0.1491
14222W        W31746   5.690  10.827   1.921 -0.0076  0.0295 -0.1222
14223W        W31747   3.338   4.563   4.323 -0.0893 -0.0585  0.0329
14224W        W31748   6.891   1.912   0.555 -0.3929  0.0783  0.1219
14225W        W31749  17.252  13.870   4.398 -0.0547  0.1012  0.0096
14226W        W31750  10.323  15.925  11.264 -0.1393  0.1807 -0.1117
14227W        W31751  12.365  12.766   0.175  0.1460  0.1446  0.0237
14228W        W31752   8.204   2.743   2.006 -0.0775 -0.0493 -0.0216
14229W        W31753   9.501  14.715  12.305  0.0340  0.2224 -0.0469
14230W        W31754   5.407   4.946   2.660 -0.0248  0.0035  0.2021
14231W        W31755  15.203   0.438   2.563 -0.1655 -0.2157  0.4592
14232W        W31756   7.347   0.341  15.173  0.0713 -0.4059  0.1000
14233W        W31757  14.307  15.353  16.035  0.0929  0.0439 -0.0766
14234W        W31758   5.413  15.138  11.758 -0.0862 -0.1285  0.0658
14235W        W31759  17.463  11.461   1.579 -0.1724  0.0153  0.0343
14236W        W31760  13.843  10.747  15.900 -0.2559 -0.1606 -0.0269
14237W        W31761  17.693  14.176  13.774 -0.1197 -0.4262 -0.0445
14238W        W31762   9.148  10.239  12.867  0.2993 -0.1410 -0.2120
14239W        W31763  13.930  15.885   3.022  0.0078  0.0855  0.0502
14240W        W31764   3.423   9.522  10.329  0.3248 -0.1065  0.2592
14241W        W31765   9.377   0.257  14.141 -0.1952  0.1331 -0.2087
14242W        W31766   0.958  10.748  10.882 -0.1207 -0.0677 -0.0900
14243W        W31767  15.398   0.611  12.317  0.1049 -0.0859  0.0839
14244W        W31768   5.096   2.713   6.186  0.2914  0.3366  0.3398
14245W        W31769   9.425   3.614   4.160 -0.0895 -0.0936 -0.2383
14246W        W31770  11.870   6.004   0.134 -0.1080  0.2813 -0.0944
14247W        W31771  16.887   3.470  12.532 -0.2292  0.1608  0.0222
14248W        W31772   0.167  10.231  14.576  0.0623  0.0911 -0.1157
14249W        W31773   5.623  11.412  12.146  0.0679 -0.0070  0.1034
14250W        W31774  16.943  14.572  11.878  0.1778 -0.1377  0.2518
14251W        W31775  14.960   7.315  11.014  0.1360  0.0237  0.0772
14252W        W31776  10.026  15.052  13.965 -0.3914  0.1605 -0.0839
14253W        W31777  10.603  13.112  13.807 -0.0070 -0.2356 -0.0614
14254W        W31778   2.583   0.478   5.217 -0.0801  0.2770  0.1683
14255W        W31779   7.083   2.863  16.151 -0.3133  0.2226 -0.0625
14256W        W31780   0.500  16.223  11.411  0.0099 -0.2407 -0.0500
14257W        W31781  13.254  13.382  13.537 -0.0800  0.0543 -0.1994
14258W        W31782   1.512   0.977  14.298  0.1695  0.4257 -0.0056
14259W        W31783   6.368   0.183  16.187  0.2767 -0.0998  0.1872
14260W        W31784   6.291   5.654  13.175  0.0170  0.0541 -0.0573
14261W        W31785   1.275   5.799   2.151  0.2834 -0.1044  0.1346
14262W        W31786  12.961  17.618   1.432  0.3418  0.0560 -0.0147
14263W        W31787  15.832  10.153   3.939 -0.1466  0.0651  0.0650
14264W        W31788  10.360  12.193   4.882 -0.1507 -0.2173 -0.0848
14265W        W31789  11.005   2.296   0.719  0.0409  0.0636  0.1689
14266W        W31790  12.733   0.555  11.214  0.0251  0.0637  0.1569
14267W        W31791   3.643   7.289   3.222 -0.2239  0.2057 -0.4467
14268W        W31792   4.227  12.413  15.790 -0.2330 -0.0561  0.0335
14269W        W31793   2.714   4.147   1.598  0.0035 -0.0338  0.4295
14270W        W31794   0.135   9.623  11.520  0.0898  0.0537  0.1737
14271W        W31795   5.224   4.720   0.815 -0.2802 -0.1295  0.1970
14272W        W31796  11.480  12.907   2.739  0.2433 -0.0229  0.0150
14273W        W31797   1.618  12.049  12.149 -0.0737  0.2094  0.0011
14274W        W31798   5.057   3.773  14.045  0.1009 -0.2393 -0.0247
14275W        W31799   7.867  10.327   4.180 -0.1673 -0.1484 -0.0622
14276W        W31800  13.446   8.595  12.113 -0.1266  0.1188  0.0578
14277W        W31801  13.037  17.819   3.157  0.0825  0.0791  0.0498
14278W        W31802  12.793  14.104  15.517  0.0119  0.2685  0.1085
14279W        W31803   5.535  14.100   0.965  0.2965 -0.2186  0.1744
14280W        W31804   7.601  13.571  15.642  0.3164  0.2867 -0.2215
14281W        W31805  12.295   8.899  15.157 -0.0380 -0.0205  0.0668
14282W        W31806  17.037   6.230  11.513  0.1004 -0.2464 -0.0367
14283W        W31807  16.731   4.358  15.663  0.2362  0.2529 -0.0540
14284W        W31808  16.072  12.312   3.638 -0.3092  0.2227 -0.0021
14285W        W31809   2.923  12.669   0.253 -0.0035 -0.1823 -0.2423
14286W        W31810   9.096   3.916   3.097  0.0316 -0.0123 -0.1197
14287W        W31811  13.927  14.354   3.283 -0.0917 -0.2039  0.0239
14288W        W31812   1.296   9.973   4.681  0.0506 -0.2994 -0.0914
14289W        W31813  11.194  17.528   4.167 -0.0225 -0.1608  0.0265
14290W        W31814   0.233  10.707   2.974 -0.2346 -0.0519  0.0718
14291W        W31815   5.994  16.572  12.676 -0.2572  0.0320  0.0765
14292W        W31816  10.000   2.424   0.983 -0.2085 -0.3146  0.2546
14293W        W31817  13.745  16.708   5.308  0.2962  0.2770 -0.0142
14294W        W31818   2.057  12.110  11.783 -0.3180  0.2851 -0.0040
14295W        W31819   2.462   1.686  15.181 -0.2250  0.0315 -0.0475
14296W        W31820   2.004   7.186   4.014  0.0639  0.1474  0.1485
14297W        W31821   7.494   1.834   3.533  0.1700 -0.0691  0.0493
14298W        W31822  17.355  17.713   1.987  0.1165 -0.1280  0.0315
14299W        W31823   0.651   8.393   0.083 -0.0287  0.0133  0.1677
14300W        W31824   0.262  13.963   2.570 -0.0964  0.1065 -0.1740
14301W        W31825  16.310  14.757   4.362 -0.0309 -0.0559  0.1688
14302W        W31826  12.151   8.278  13.814 -0.0768 -0.0111  0.0125
14303W        W31827  11.132   2.347  13.450  0.0826 -0.1341 -0.1834
14304W        W31828  15.842   0.291   5.215  0.0489 -0.0133  0.3872
14305W        W31829  14.884   0.164   3.424 -0.1213 -0.1500 -0.0250
14306W        W31830   1.441  13.845   5.525 -0.1280  0.2619 -0.0572
14307W        W31831   0.746   3.100   1.059  0.3454  0.1987  0.0830
14308W        W31832   4.334  13.450  15.976 -0.0853 -0.2127  0.1097
14309W        W31833  13.183   2.475  11.555  0.0416 -0.1304  0.0344
14310W        W31834   3.047   8.906   4.691 -0.0350 -0.1145  0.0398
14311W        W31835  16.988  15.845   0.732 -0.2415  0.0719  0.1701
14312W        W31836   7.625   9.162   1.073 -0.0426  0.0221  0.1345
14313W        W31837   0.692   5.347   5.082  0.2384  0.0781 -0.2427
14314W        W31838   9.086  12.742   0.215 -0.1512 -0.1279 -0.0019
14315W        W31839   8.142   0.508  12.542  0.0222 -0.0540  0.0065
14316W        W31840   1.308  11.015   6.208 -0.1971  0.1018 -0.1064
14317W        W31841  14.416   1.153  11.500 -0.1467 -0.0604 -0.1115
14318W        W31842   2.484   1.145   1.760  0.1869  0.0506 -0.0548
14319W        W31843   6.863  15.134   1.317 -0.1149  0.0442  0.0680
14320W        W31844   2.590  10.858  11.354  0.0856  0.2197  0.0240
14321W        W31845   8.988   1.000  13.206  0.1158 -0.1538 -0.0334
14322W        W31846   2.008  10.363  13.639  0.1488  0.1387 -0.0918
14323W        W31847   9.068  14.821   2.078 -0.1937  0.1755  0.1165
14324W        W31848  15.490  15.850   3.934  0.0560 -0.3847  0.1814
14325W        W31849  12.905  10.159   3.270 -0.1173 -0.1867  0.1069
14326W        W31850   3.013   4.930  14.942  0.1710  0.0473  0.0623
14327W        W31851  14.841  11.167  12.945 -0.2640  0.2663  0.0013
14328W        W31852   6.010   4.180  13.227 -0.1445  0.0658 -0.2695
14329W        W31853   1.012  10.745  12.780  0.0329 -0.2121 -0.1381
14330W        W31854  10.837  17.891   0.484  0.2515  0.1075 -0.1324
14331W        W31855   2.471   7.628  13.307 -0.0132  0.1496  0.4588
14332W        W31856   9.130  16.539  12.772 -0.0400 -0.0299 -0.0866
14333W        W31857  14.560  10.671   4.252  0.0269 -0.0851  0.2670
14334W        W31858  17.699   9.762  11.149  0.0329 -0.1755  0.1621
14335W        W31859   1.248  11.612  13.877  0.1088 -0.2233 -0.1767
14336W        W31860   5.309   0.671   3.961  0.0333  0.0191 -0.1284
14337W        W31861   7.426   0.961  15.927  0.0697  0.0397 -0.2155
14338W        W31862   3.057   4.986  13.952  0.2162  0.1511  0.0213
14339W        W31863  16.446   2.094   2.137 -0.2285 -0.0648 -0.4027
14340W        W31864  15.673  17.419   0.209 -0.0392 -0.1598  0.1118
14341W        W31865   2.541   6.406   3.843 -0.0550  0.0749 -0.0995
14342W        W31866  12.807   7.714   5.642  0.0567  0.0458  0.0292
14343W        W31867   0.682  10.027   0.060  0.0070 -0.1325 -0.1855
14344W        W31868   5.008   9.597  10.366 -0.1356  0.1381 -0.0862
14345W        W31869   5.705  16.873   0.084  0.1266  0.3439 -0.1157
14346W        W31870  11.524   4.746   5.539 -0.1281 -0.2504 -0.1919
14347W        W31871   5.475  11.283  15.919  0.1774  0.0530 -0.0348
14348W        W31872  15.728  10.061   0.799  0.1438  0.1370 -0.0244
14349W        W31873   1.864   7.078   4.905 -0.0358 -0.0238 -0.1519
14350W        W31874  10.768  14.820   4.404  0.1555 -0.0850 -0.2141
14351W        W31875  13.206  15.977  13.902 -0.0737  0.0370  0.1481
14352W        W31876   5.059   6.553  12.348 -0.0050  0.1906  0.1962
14353W        W31877  14.890  12.109  14.613  0.0185  0.1872  0.0356
14354W        W31878  10.553   4.411   4.540 -0.1752 -0.1257 -0.2601
14355W        W31879  15.414   2.180   0.589 -0.0266  0.0051 -0.1170
14356W        W31880   2.463   8.990   0.198  0.0116  0.0850  0.0632
14357W        W31881  16.084  16.638  12.761 -0.0481 -0.1103  0.0298
14358W        W31882  16.680   9.510   0.407  0.2350  0.1857 -0.0751
14359W        W31883  13.968   3.500  15.103  0.0613 -0.2500 -0.1868
14360W        W31884  17.193   8.823   3.658  0.2226  0.0628 -0.0638
14361W        W31885   2.782  14.351  12.830 -0.2342  0.1382 -0.4522
14362W        W31886  11.335   9.542  11.636  0.1544 -0.1071 -0.0055
14363W        W31887  13.842   4.265   4.473  0.3595  0.3446 -0.1448
14364W        W31888  16.896   8.667  15.541 -0.3599 -0.1725 -0.2151
14365W        W31889   5.749   3.962  11.944 -0.0061  0.0390 -0.1112
14366W        W31890   7.718   2.876  14.353 -0.4144  0.0202 -0.3604
14367W        W31891   7.476   5.298   1.469 -0.0713  0.0803 -0.0234
14368W        W31892  13.309   9.243  12.611 -0.0388 -0.1678 -0.2334
14369W        W31893   3.725  10.015   2.064  0.0966  0.0991 -0.0201
14370W        W31894   9.122   9.620  13.643  0.2478  0.0637 -0.1385
14371W        W31895  13.492   8.028   1.244  0.0423  0.1451 -0.3316
14372W        W31896   9.156  12.346   2.858  0.3260  0.0006 -0.0935
14373W        W31897   3.024   8.804   4.155  0.0423 -0.2408  0.0425
14374W        W31898  10.259  13.909   3.237  0.0110 -0.1948  0.1557
14375W        W31899  13.354   5.625   1.257  0.1666  0.0596 -0.0569
14376W        W31900   5.370  11.611   1.387 -0.1062  0.0319 -0.1363
14377W        W31901   3.257   1.309   2.252 -0.3251  0.0474  0.1147
14378W        W31902   2.335  10.507   1.640  0.2752 -0.1987 -0.2813
14379W        W31903  10.618  11.047   4.758 -0.4610  0.3953 -0.1968
14380W        W31904   2.753  15.272  13.658 -0.2042  0.1178  0.2962
14381W        W31905  12.799  12.155   2.623 -0.1218 -0.0167 -0.1366
14382W        W31906  12.319   8.585  14.332 -0.0137 -0.0058  0.3332
14383W        W31907  17.742  11.481   2.566 -0.0280  0.1273 -0.1797
14384W        W31908  15.388   4.302   5.567 -0.3387 -0.4693  0.1770
14385W        W31909  17.456  12.988   1.524  0.0741 -0.0588  0.0565
14386W        W31910  13.740  13.099  12.833  0.0897 -0.0583  0.1970
14387W        W31911   4.607  16.916  15.728 -0.1525  0.0097 -0.1821
14388W        W31912   5.893   1.427   2.023  0.0513  0.1557  0.2184
14389W        W31913   9.776   2.317   2.326 -0.0570 -0.0373  0.1175
14390W        W31914   6.014   5.761  11.905  0.1793  0.0064  0.2223
14391W        W31915   0.213   7.668   0.305 -0.1695  0.1468  0.1859
14392W        W31916  13.293  14.245  15.779 -0.0519  0.1461 -0.2580
14393W        W31917   3.414  15.446   0.671  0.0323  0.1046  0.2215
14394W        W31918   4.195  13.218  14.575 -0.0033  0.0984  0.0355
14395W        W31919  12.162  12.647  12.110 -0.2988  0.1114  0.1328
14396W        W31920   7.578  13.676  15.157 -0.4152 -0.0754 -0.1013
14397W        W31921  14.703   5.922   4.433 -0.1145  0.1571 -0.1780
14398W        W31922   2.642   9.034   1.698  0.0381  0.1062 -0.0400
14399W        W31923  15.512   2.228  13.361 -0.2320 -0.0509  0.0699
14400W        W31924  14.103   2.182  13.697 -0.1113 -0.2363 -0.5170
14401W        W31925   5.110  16.871   6.434 -0.2274  0.3115  0.1877
14402W        W31926   7.578  12.957   4.484  0.0600 -0.1018 -0.0824
14403W        W31927   1.058   4.361  12.571 -0.0199  0.0549 -0.0546
14404W        W31928   0.836  11.878   3.214 -0.1577 -0.1038 -0.0803
14405W        W31929   4.662  10.430   0.723  0.0557  0.0814 -0.2081
14406W        W31930  10.996  15.151  14.905  0.3071  0.0932  0.2918
14407W        W31931   0.873   7.349  16.011  0.1888 -0.0640  0.1476
14408W        W31932   1.139  16.826   5.400 -0.0098  0.3673 -0.1447
14409W        W31933  14.528   8.906  10.363  0.0556  0.1060 -0.0416
14410W        W31934   9.801  13.159  14.940  0.1268  0.0339 -0.0642
14411W        W31935   0.455   5.422   1.131 -0.0529  0.0055  0.1943
14412W        W31936  13.057   5.979   2.052  0.1275 -0.0665  0.0626
14413W        W31937  15.601  15.413  11.832 -0.3051  0.0258 -0.0182
14414W        W31938  11.211  12.620   3.071 -0.0235  0.0874  0.4033
14415W        W31939   2.226   4.406  11.612  0.1488 -0.1937 -0.0578
14416W        W31940   7.093   8.823  13.063 -0.0253  0.3276 -0.2058
14417W        W31941  13.846  15.529  16.254  0.1647 -0.0320  0.1713
14418W        W31942  13.490  13.081  12.044  0.0647  0.1376 -0.3500
14419W        W31943  16.772   0.660   5.122  0.1079  0.0456  0.0611
14420W        W31944  12.246   4.935   4.394 -0.1460  0.2135 -0.1572
14421W        W31945   2.898  17.304   4.634  0.1214  0.0116 -0.0206
14422W        W31946  12.461   0.734  15.123 -0.3324  0.0776 -0.1632
14423W        W31947   8.810  14.410   3.933  0.2111 -0.0478 -0.1763
14424W        W31948  11.972  12.381   2.038  0.2136 -0.0539 -0.2107
14425W        W31949   5.327  15.216  13.124 -0.1185  0.1802  0.0262
14426W        W31950   2.390  10.928   0.389 -0.1175 -0.1780  0.0134
14427W        W31951  10.322   6.892   2.821  0.1737 -0.2462 -0.1449
14428W        W31952  11.159  13.964   1.476  0.0600 -0.0653 -0.1963
14429W        W31953   0.613   9.621  13.835 -0.1179  0.0151  0.3134
14430W        W31954   6.372  10.139  14.058  0.1387 -0.3525  0.0219
14431W        W31955  12.043  17.209  14.840 -0.0299  0.2420  0.0911
14432W        W31956   5.731   7.663   4.972 -0.2943  0.0816  0.1558
14433W        W31957   8.474  14.145  11.724 -0.0050 -0.1825 -0.2084
14434W        W31958  15.619   0.823  11.895  0.0298  0.0052 -0.1556
14435W        W31959   2.504  15.730  13.634 -0.0539  0.0576  0.2263
14436W        W31960  10.640   3.862   1.852  0.1073  0.2144  0.2113
14437W        W31961   0.725  14.352   5.313  0.1089  0.2168  0.2324
14438W        W31962  12.414   9.203   1.600  0.1435  0.1035  0.0814
14439W        W31963  13.637  15.091  12.092 -0.2344  0.0955 -0.0951
14440W        W31964  14.802  13.768   4.284 -0.0313 -0.1701  0.0362
14441W        W31965  12.808   7.853   0.887 -0.1243 -0.3527 -0.1278
14442W        W31966   3.265   9.185  15.445  0.2432 -0.1528  0.0942
14443W        W31967  16.671   5.323  14.380  0.0227  0.2609  0.2106
14444W        W31968  17.889  13.737   4.396  0.1893  0.1445 -0.0841
14445W        W31969   2.126  11.724  16.215  0.0857 -0.0411 -0.0950
14446W        W31970  11.281  15.189  15.504  0.0608 -0.1819 -0.0390
14447W        W31971   8.409  17.751  16.059  0.4076  0.0261 -0.0570
14448W        W31972  15.981  11.208  11.485 -0.3276  0.2042  0.1752
14449W        W31973   0.517  10.522  15.361 -0.0629 -0.1002 -0.0954
14450W        W31974   2.881  10.186  11.562  0.2899  0.0219  0.2345
14451W        W31975   5.680   9.637  13.644  0.3277 -0.0179  0.4903
14452W        W31976  14.446  10.256   2.988 -0.2696 -0.2534  0.1563
14453W        W31977  17.944  12.734   0.223 -0.0385 -0.0156  0.0508
14454W        W31978   8.690   7.073  11.197  0.0265 -0.3752 -0.0830
14455W        W31979  14.209  12.653  11.082  0.1435  0.2146  0.2767
14456W        W31980   7.763   6.513  15.314  0.1258 -0.0485  0.2575
14457W        W31981  17.009   5.280  11.842 -0.0498 -0.4544 -0.4603
14458W        W31982   7.429   4.176   4.763 -0.2982  0.2652 -0.0179
14459W        W31983   2.298  14.083   1.279 -0.0813 -0.0945 -0.1417
14460W        W31984   4.012   2.997  12.621 -0.1934 -0.0123  0.0483
14461W        W31985   9.277   3.770  13.815  0.2473  0.1323 -0.2980
14462W        W31986  16.682   4.028  14.769  0.2039  0.3291  0.0225
14463W        W31987  10.084  10.334  16.020  0.4133  0.1181  0.2525
14464W        W31988   4.739   9.996  12.764  0.1557  0.2078  0.0991
14465W        W31989  11.110  14.687  13.337  0.0638  0.0114 -0.2357
14466W        W31990   9.579   6.652   4.667  0.2333  0.0058  0.1471
14467W        W31991   8.970  17.511  15.015  0.2366  0.1090  0.5842
14468W        W31992   9.687   9.320  16.171  0.1097 -0.0778 -0.2403
14469W        W31993   1.243   0.294  12.164  0.2684  0.0914  0.0906
14470W        W31994  13.370   3.482   2.396  0.0668  0.1116 -0.1363
14471W        W31995   8.931  10.094  11.512  0.1105  0.1416  0.2565
14472W        W31996   4.190  10.160  13.238 -0.1638 -0.1022  0.2948
14473W        W31997   1.218   3.441  14.233 -0.0403  0.2214 -0.3642
14474W        W31998  13.602  15.530   3.935  0.1925  0.2396  0.1959
14475W        W31999  14.402   8.690   1.882  0.0458  0.0943 -0.0630
14476W        W32000   6.104   5.156  12.157 -0.1272  0.1178  0.1123
14477W        W32001   1.734   3.491   4.439  0.2197 -0.0876 -0.0853
14478W        W32002   0.322   2.596  13.949  0.2250 -0.3003  0.3175
14479W        W32003   5.771  13.538  13.187 -0.0485  0.2021  0.2345
14480W        W32004  17.230   5.564  15.593  0.0163 -0.2748  0.1821
14481W        W32005  10.663   6.783   0.929  0.0231  0.0934  0.2251
14482W        W32006   0.931  14.116  13.074  0.2026  0.0518  0.2258
14483W        W32007  17.223   4.162  13.427  0.3081  0.0945 -0.1934
14484W        W32008   1.743   1.025   0.148  0.2919  0.0246  0.0244
14485W        W32009  17.368   6.557  12.041  0.1159  0.1251 -0.0797
14486W        W32010  17.889   2.136  13.864 -0.1941  0.1171 -0.1622
14487W        W32011   3.598  10.484   0.752  0.0891 -0.3856  0.1932
14488W        W32012   1.838   6.952  12.499  0.0455  0.1285  0.2145
14489W        W32013  16.104  15.572   0.808  0.2084  0.2161  0.3732
14490W        W32014  15.061   7.376  13.781 -0.3217 -0.0798  0.0950
14491W        W32015   9.351   7.775   0.226  0.0585 -0.3300 -0.1513
14492W        W32016   4.194  14.698  12.136  0.1860 -0.2329  0.0848
14493W        W32017  12.311  11.185  13.844  0.4686 -0.0819 -0.1506
14494W        W32018   2.358   5.381   1.515 -0.0597  0.0262  0.4918
14495W        W32019  11.331  14.719  11.360 -0.2731  0.0750  0.2681
14496W        W32020   5.904  11.499   5.573  0.0443  0.0971 -0.1556
14497W        W32021  14.298   3.372   2.738  0.0735 -0.1699 -0.2558
14498W        W32022   6.970   9.001  12.226  0.2238 -0.2862 -0.2366
14499W        W32023   7.326   1.705  14.149 -0.3329  0.2637 -0.0766
14500W        W32024   3.219   6.735   1.997  0.0326  0.0260  0.0244
14501W        W32025   8.677   1.730   5.287  0.0157 -0.1399  0.0043
14502W        W32026   4.445  11.088  11.693 -0.0887  0.0797  0.1194
14503W        W32027  14.057  13.008   0.548 -0.1471  0.3849  0.1370
14504W        W32028   3.419   3.353  16.260 -0.1985  0.2611 -0.0453
14505W        W32029  13.009   2.950   4.182 -0.0285  0.0105  0.1531
14506W        W32030  12.363  14.573   4.034 -0.2800  0.2436 -0.0031
14507W        W32031  12.945   3.870   2.556  0.0950 -0.0595  0.1601
14508W        W32032   6.626  16.850  15.933 -0.0699  0.1172 -0.1125
14509W        W32033  10.401  12.530  14.958 -0.2093  0.3416  0.0921
14510W        W32034  13.539  12.525   0.368  0.0661 -0.1249  0.1556
14511W        W32035   5.518  12.756   0.804  0.2128  0.1266  0.0039
14512W        W32036  16.225  15.572   3.948 -0.0108 -0.1590 -0.0358
14513W        W32037   6.730  12.109   1.265 -0.2389  0.0331  0.0624
14514W        W32038   8.782  14.459   5.276 -0.2512  0.5074 -0.1646
14515W        W32039   9.359   8.440  12.337 -0.0067 -0.1243 -0.1921
14516W        W32040  11.811   5.569   2.490  0.1221  0.0624 -0.0903
14517W        W32041   2.442   5.204   4.522 -0.0129  0.1354  0.0782
14518W        W32042  16.022  11.013  13.412  0.0311 -0.1283  0.1461
14519W        W32043  12.696   0.397  12.996  0.1000 -0.0462  0.0183
14520W        W32044   4.580   2.598  12.155  0.1884 -0.3585  0.0443
14521W        W32045  12.852   6.264   3.960  0.2221 -0.0154  0.2102
14522W        W32046   9.007   3.925   2.611 -0.0147 -0.1198  0.2819
14523W        W32047   3.706   1.270  15.673 -0.0364 -0.0170  0.0325
14524W        W32048   5.255   1.947   5.247  0.0802 -0.0936 -0.0147
14525W        W32049   3.730   9.316  14.617  0.1102 -0.1537  0.1138
14526W        W32050  12.966   4.287   1.886 -0.0129 -0.0489 -0.0716
14527W        W32051   2.820   8.788  13.240  0.0452 -0.3331 -0.3722
14528W        W32052   5.292  11.887  13.728 -0.0678  0.1735 -0.0566
14529W        W32053  16.732   0.082  13.435  0.0082  0.1249  0.1201
14530W        W32054  15.693  15.853  12.079  0.0368  0.0084 -0.2441
14531W        W32055  17.850  13.851   3.011  0.1698  0.0119  0.0995
14532W        W32056  12.649   1.033  11.515  0.2312 -0.2222 -0.0333
14533W        W32057  10.093   1.713   4.675  0.1438  0.2749 -0.1553
14534W        W32058   7.578   6.960  15.827 -0.2470 -0.2192 -0.0503
14535W        W32059   9.632   5.917  13.479  0.0685  0.4939  0.1805
14536W        W32060  17.130   7.724  14.047 -0.1099  0.0938 -0.0747
14537W        W32061   5.496  15.012   4.217 -0.0699  0.0454 -0.3009
14538W        W32062  15.938   2.734  15.385  0.0076 -0.0434 -0.0045
14539W        W32063  17.703  15.457  12.498 -0.0939 -0.2005  0.1643
14540W        W32064   0.583   0.382  12.937  0.2322  0.0270  0.0390
14541W        W32065   5.155  12.125   3.646 -0.2028 -0.0625  0.1586
14542W        W32066   4.258  16.812  12.247  0.4180  0.2309  0.0144
14543W        W32067  11.023  13.974  11.602 -0.2926  0.1251 -0.1558
14544W        W32068  13.348   8.719  15.103  0.5280 -0.2378  0.0258
14545W        W32069  10.379   5.427  12.089 -0.3034 -0.4769 -0.0101
14546W        W32070   0.209  15.349   4.233  0.1389 -0.1850 -0.4104
14547W        W32071   4.092   0.149   0.405 -0.0094 -0.3519 -0.1173
14548W        W32072  16.568  12.236  14.200 -0.2276  0.1841 -0.1523
14549W        W32073  10.576  10.428  11.110  0.0055 -0.0669  0.0475
14550W        W32074  11.916   7.903  13.526 -0.0205  0.0720  0.3444
14551W        W32075  14.305   5.620   2.833 -0.1078 -0.3346  0.1113
14552W        W32076   8.662  17.556   4.945 -0.1073  0.0619  0.0816
14553W        W32077   4.859  12.598  14.421  0.1700  0.0161 -0.2146
14554W        W32078  11.675   1.790  12.977 -0.1752  0.1025  0.0487
14555W        W32079   1.704  16.032   3.578 -0.0298  0.1243 -0.1505
14556W        W32080   2.427   9.317  13.233 -0.1002  0.2115 -0.1087
14557W        W32081   6.130  12.966  15.947  0.1434 -0.0423 -0.2268
14558W        W32082  17.075   5.164   4.245  0.0166  0.0860 -0.0616
14559W        W32083   8.776   8.774   0.660  0.2144 -0.1963  0.3557
14560W        W32084   3.319  16.239   3.277 -0.1321  0.1762 -0.1714
14561W        W32085  15.704   6.725  15.028 -0.1105  0.0206 -0.2033
14562W        W32086  10.520   3.356   0.973  0.1613  0.1589  0.0949
14563W        W32087   4.408  16.914  14.799 -0.3844  0.1788  0.1411
14564W        W32088   7.949  12.632   1.261 -0.0631 -0.0321 -0.2350
14565W        W32089   8.021  11.748   4.034 -0.0537 -0.0378 -0.0898
14566W        W32090   6.425   2.008   2.081 -0.0160 -0.0072 -0.1904
14567W        W32091  13.834  13.194  11.507 -0.0109 -0.3389 -0.0483
14568W        W32092  16.884   0.629   3.147 -0.3482 -0.2423  0.0368
14569W        W32093   0.274  14.279  11.416  0.3840 -0.2065 -0.0170
14570W        W32094  11.626   3.831  13.826  0.1870 -0.1387 -0.0154
14571W        W32095   7.330  10.946  10.994 -0.1278  0.0851 -0.1049
14572W        W32096   0.917  12.255  16.206  0.1792  0.0365  0.0672
14573W        W32097   4.905   9.671  13.122 -0.0384 -0.3314 -0.3774
14574W        W32098   6.066  13.198  14.053  0.3307  0.2402  0.0764
14575W        W32099   1.269  13.503  15.117 -0.1858  0.3801 -0.2326
14576W        W32100   6.907   0.905   2.703 -0.0119  0.1478  0.3774
14577W        W32101   4.393   4.586  10.843  0.0552  0.0922  0.1075
14578W        W32102   1.903  14.724  12.312  0.2118  0.2642 -0.2464
14579W        W32103   4.590   7.706  12.142 -0.1257 -0.0565  0.1718
14580W        W32104   8.108  11.584  11.547 -0.1458 -0.0608  0.1606
14581W        W32105   5.519  10.125   1.074 -0.0252  0.1422 -0.0420
14582W        W32106   1.868   9.227   5.514  0.0866  0.0595  0.0436
14583W        W32107   6.361   0.783   3.679  0.0443  0.0165  0.0938
14584W        W32108  13.625  12.447  13.942  0.1556  0.2456 -0.0453
14585W        W32109   5.706  12.976  13.178 -0.2441 -0.0534 -0.2737
14586W        W32110   1.983   4.276   2.888  0.1855  0.1080 -0.0051
14587W        W32111   7.210  10.215  15.219 -0.1133  0.0001  0.2484
14588W        W32112   2.780   1.397   2.426 -0.1451  0.1603  0.1353
14589W        W32113   5.281  17.619   0.539  0.2084 -0.1244  0.0244
14590W        W32114   7.276  17.858   4.368  0.1312  0.2950 -0.0135
14591W        W32115  16.797   7.381  15.886 -0.1187  0.0646 -0.1457
14592W        W32116   8.645  12.272   4.790 -0.0344 -0.2298 -0.0898
14593W        W32117   5.258  13.357   1.459  0.3245  0.1300  0.1048
14594W        W32118   9.693   4.671   2.548  0.0659  0.1594 -0.2713
14595W        W32119   5.357  13.532  12.531 -0.0488  0.0840 -0.0302
14596W        W32120   7.457  17.522   2.876  0.0200  0.2519  0.1135
14597W        W32121  10.874  16.031  13.795  0.1343  0.0786 -0.5513
14598W        W32122   5.846   9.320   6.149 -0.1696 -0.1870  0.2944
14599W        W32123  11.303  14.199  13.944 -0.0335 -0.1264  0.0583
14600W        W32124   5.543   5.675   1.126  0.2997 -0.0278  0.0242
14601W        W32125   5.911  15.290   0.288 -0.1401  0.2650  0.1894
14602W        W32126   1.408   5.978   5.941 -0.1482 -0.2045  0.2151
14603W        W32127  13.551  16.947  12.280 -0.1919 -0.0926  0.0335
14604W        W32128   8.115   2.675  14.937 -0.0830 -0.0837  0.0077
14605W        W32129  12.939  17.621   3.629  0.1052  0.1783  0.3560
14606W        W32130   8.695  14.392  15.015 -0.1948  0.1635  0.2450
14607W        W32131  17.829   6.037   1.676 -0.0929 -0.1370  0.2865
14608W        W32132  14.147   4.570   0.845 -0.1304  0.4870  0.2776
14609W        W32133   9.063  11.604  14.421  0.0530 -0.0398  0.0419
14610W        W32134  12.901   5.827  12.443 -0.0470  0.1250  0.1209
14611W        W32135   9.841   0.473   0.406  0.0729 -0.1337 -0.1205
14612W        W32136   4.519   9.524   1.738 -0.0585  0.1152 -0.1224
14613W        W32137  12.773  10.081  13.394  0.0313  0.2747  0.3005
14614W        W32138   7.064   6.166  14.183  0.5502 -0.2593  0.0220
14615W        W32139  17.358   1.819   5.897 -0.2265 -0.1171  0.0337
14616W        W32140   7.752   8.330  12.716  0.1558  0.0623  0.1673
14617W        W32141   2.628   7.798   2.536 -0.0280  0.1217 -0.1289
14618W        W32142  17.183   6.918  15.254 -0.0726  0.2509  0.0108
14619W        W32143   6.232  17.914  14.239  0.2752  0.2097 -0.0522
14620W        W32144   4.268   0.521   3.969  0.0807  0.3209 -0.3297
14621W        W32145  17.557   9.415  11.506 -0.0025 -0.2294 -0.1524
14622W        W32146  10.327  13.551  13.787  0.0696 -0.0356  0.0351
14623W        W32147  15.451  16.746   1.180 -0.0658  0.1194  0.0839
14624W        W32148   7.296  17.800  13.353 -0.2274  0.5379 -0.0173
14625W        W32149   3.857  13.714  15.726 -0.1668 -0.0641  0.0327
14626W        W32150  13.496   6.830  12.976  0.0105 -0.2273  0.0262
14627W        W32151   8.536  12.337  11.845 -0.1533 -0.1719 -0.2601
14628W        W32152   9.091  14.566  14.447 -0.1730 -0.0386  0.0821
14629W        W32153  13.270   0.533  12.022 -0.0077 -0.0114 -0.1014
14630W        W32154   7.280   8.749   4.373  0.0000 -0.2380 -0.0654
14631W        W32155  14.988  15.372  13.635 -0.0227 -0.1173  0.1221
14632W        W32156  16.781   7.658   0.554 -0.0009  0.0790  0.2837
14633W        W32157   2.413   2.292   4.247  0.0368 -0.1231  0.3114
14634W        W32158   5.536  10.257   1.941 -0.2333 -0.0184 -0.0723
14635W        W32159   7.057   6.453  11.389 -0.4230  0.1505 -0.1819
14636W        W32160  16.179  10.017   3.594  0.3439 -0.2310  0.0760
14637W        W32161   4.488  15.485   2.931 -0.0413 -0.0220 -0.1577
14638W        W32162  14.858  10.331   0.930 -0.3428 -0.0141 -0.1381
14639W        W32163   8.569  13.213   3.712 -0.0495 -0.0672  0.2657
14640W        W32164   5.644   4.692  14.376  0.0884 -0.1008  0.2666
14641W        W32165  13.404   8.903   1.469  0.2179  0.2567  0.3966
14642W        W32166   5.584   1.079   4.365  0.0031  0.2696  0.0155
14643W        W32167  10.803   0.590   3.163  0.0693 -0.0460  0.2671
14644W        W32168  17.480  10.670  12.183 -0.3541 -0.0108  0.0849
14645W        W32169  15.671  11.374   5.056  0.1039  0.0513 -0.1893
14646W        W32170  16.754   8.346   1.081  0.0601  0.2023  0.1685
14647W        W32171  12.238  12.121  12.808  0.0229 -0.1194  0.0444
14648W        W32172   0.527   2.048   3.841  0.0191 -0.2126 -0.1833
14649W        W32173   5.223   8.641   2.486  0.3065  0.2371  0.2009
14650W        W32174  14.131   1.097  14.165  0.0557 -0.1193 -0.0070
14651W        W32175  11.502  12.192   1.961 -0.1766 -0.0238  0.0970
14652W        W32176   6.090  16.239   0.031  0.0976 -0.2567 -0.0356
14653W        W32177   1.245   3.272  12.840  0.0118  0.1271 -0.0296
14654W        W32178  11.765  17.454  15.458 -0.1458 -0.0864 -0.0353
14655W        W32179   6.008   5.559  12.791  0.1205  0.3447 -0.0463
14656W        W32180   8.105   6.226  15.098  0.0237  0.3282 -0.1154
14657W        W32181   0.651  15.600   0.301  0.0071 -0.3075  0.0470
14658W        W32182   4.838  16.066  14.488 -0.2135  0.0378 -0.2023
14659W        W32183   6.766  12.305   4.102  0.0891 -0.0558  0.2113
14660W        W32184  11.759   2.447   1.223  0.0840  0.1861 -0.3533
14661W        W32185   8.096  17.041   0.415 -0.0447  0.2233 -0.2589
14662W        W32186  13.872   8.282  14.546  0.2621 -0.0817  0.0595
14663W        W32187  17.077   6.152   2.065 -0.1179  0.2880 -0.1384
14664W        W32188  17.784   7.350  10.851  0.2626  0.0550 -0.4074
14665W        W32189  10.307   1.913  15.059  0.4283 -0.0116 -0.2018
14666W        W32190   0.241   1.103  12.539  0.0399  0.0066 -0.0025
14667W        W32191   1.788  15.778   1.852  0.2413  0.0321  0.3047
14668W        W32192  15.021  13.965  13.310  0.2274 -0.2781 -0.0577
14669W        W32193  10.165   5.438   5.282 -0.0944 -0.1604 -0.0056
14670W        W32194  12.184  14.517  13.536  0.0093  0.3560  0.1671
14671W        W32195   7.802   1.481   1.652  0.1452  0.1635  0.0947
14672W        W32196  10.501  12.193   1.734  0.3292 -0.0508 -0.1630
14673W        W32197   0.609   8.541  13.208 -0.0558 -0.0114 -0.2753
14674W        W32198   2.885  15.588  16.083 -0.0357 -0.0328  0.4563
14675W        W32199   8.746   6.169  12.824  0.0903  0.2965  0.0986
14676W        W32200  12.329   9.054   5.591 -0.1118 -0.2701 -0.0966
14677W        W32201  16.484  14.853  11.238 -0.0209 -0.1893 -0.1771
14678W        W32202  15.792   7.787   3.947  0.0785  0.1313 -0.1184
14679W        W32203   7.688  13.331   4.943  0.0892 -0.1161 -0.2521
14680W        W32204   4.257   7.145   0.566 -0.1358 -0.0893  0.0816
14681W        W32205   1.492  13.408   2.676  0.3545 -0.2756 -0.0355
14682W        W32206  17.552   1.801   0.569 -0.1943 -0.2960  0.0297
14683W        W32207  10.650  13.256  11.775 -0.3477 -0.0686 -0.0309
14684W        W32208   2.664   8.472  12.902 -0.2689  0.0966 -0.0976
14685W        W32209   6.052  11.748   2.043  0.2472  0.2384 -0.3217
14686W        W32210  15.333   4.561  15.888 -0.0319  0.1627 -0.0862
14687W        W32211  12.862   2.501   4.029  0.0824 -0.1628 -0.0151
14688W        W32212  11.197  11.096   5.891  0.0316 -0.1431  0.1847
14689W        W32213  10.842  10.715  16.165 -0.0790  0.1103  0.0176
14690W        W32214   6.107  12.257  12.366  0.0834 -0.2786  0.1052
14691W        W32215  12.835  15.844  13.062 -0.0309 -0.1627  0.0841
14692W        W32216   1.443  12.722   4.613 -0.0611 -0.2221 -0.1956
14693W        W32217  15.168   0.749  12.819  0.0507 -0.1230 -0.3092
14694W        W32218   2.711   4.860   4.816  0.1169  0.2697 -0.1467
14695W        W32219   5.880  13.918   2.264 -0.2228 -0.1836 -0.2480
14696W        W32220  16.128   6.788  12.392 -0.0896 -0.1369  0.0144
14697W        W32221   6.659  15.560  15.850  0.0644  0.1647  0.2465
14698W        W32222   9.897  15.566  13.220  0.1561 -0.1799 -0.0972
14699W        W32223  14.834   1.788   3.737  0.1002  0.0598 -0.1343
14700W        W32224   4.064  10.632  13.477  0.0078  0.2054  0.0347
14701W        W32225   2.344   6.808   2.255 -0.1709  0.0279  0.0521
14702W        W32226   4.380  17.626   4.331 -0.0172  0.2239  0.1083
14703W        W32227  17.589  13.448   1.902  0.2199 -0.1335  0.3629
14704W        W32228  10.065   5.122   2.399  0.1154 -0.0026 -0.0201
14705W        W32229  14.917  10.336  13.423 -0.1012 -0.0698 -0.0301
14706W        W32230  12.298  14.184   4.376  0.0204  0.0650 -0.2286
14707W        W32231  11.928  12.403   2.798  0.0892 -0.1460  0.0859
14708W        W32232   1.893  10.251   1.504  0.0250 -0.4204  0.0327
14709W        W32233  15.793   0.853  12.497 -0.0753 -0.3791 -0.0495
14710W        W32234  12.994   8.023  12.768  0.0042  0.0451  0.0040
14711W        W32235   3.761  16.771   2.173  0.2301  0.1820  0.1331
14712W        W32236  13.259   4.134  12.529 -0.2716  0.1565  0.0427
14713W        W32237   9.108  17.071  15.178  0.0156 -0.0796 -0.2583
14714W        W32238  17.043   2.717   0.370  0.1013 -0.0796 -0.1165
14715W        W32239  10.038   7.281   4.438  0.1300  0.0611  0.0120
14716W        W32240  13.698  11.774   3.116  0.1440  0.1908  0.1548
14717W        W32241   0.179  12.256   2.562  0.1679  0.0120 -0.0530
14718W        W32242   8.496   2.336   1.918  0.3110 -0.0478  0.0328
14719W        W32243   0.678   1.413   2.624 -0.2337  0.3156 -0.1072
14720W        W32244   0.236   1.610   4.674  0.0223 -0.2068 -0.1360
14721W        W32245  17.624   1.453   3.150 -0.2265 -0.0637 -0.0447
14722W        W32246   1.327  10.997  11.587 -0.0630 -0.2383 -0.2387
14723W        W32247   4.560  15.369  12.699 -0.4404  0.0937 -0.1413
14724W        W32248   4.726  15.217  13.210 -0.0720 -0.0891  0.3279
14725W        W32249   1.039  11.769   3.718  0.2830 -0.2469 -0.1373
14726W        W32250  11.736  16.536   3.158 -0.0803  0.3318 -0.0802
14727W        W32251  15.980  12.396  13.657 -0.1644 -0.1318 -0.0791
14728W        W32252   9.932  15.692  11.561  0.1139  0.3064 -0.0320
14729W        W32253   3.530   0.829  13.021  0.0181  0.0208 -0.2310
14730W        W32254  15.400   3.613  12.837  0.0072  0.0133  0.0919
14731W        W32255   1.524   1.394  13.402 -0.1914 -0.2502 -0.6639
14732W        W32256   9.657   0.305  14.733  0.0910  0.2386  0.0021
14733W        W32257   3.894  16.152   1.405  0.1244 -0.2603 -0.4850
14734W        W32258   5.765   7.610  13.958  0.0815 -0.0223 -0.0073
14735W        W32259  17.630  14.157   0.881  0.3061 -0.3631 -0.1092
14736W        W32260  11.370  10.370  11.992 -0.1381  0.1586  0.1084
14737W        W32261   0.434   0.881   3.229  0.1000 -0.0653 -0.0444
14738W        W32262   9.659  13.401  11.512  0.0824 -0.0379 -0.2560
14739W        W32263   3.850  11.043  11.736 -0.2124 -0.1080 -0.1658
14740W        W32264  14.661   9.740   3.202  0.3011  0.1529 -0.0634
14741W        W32265  10.775  14.734  11.727  0.1431  0.1386 -0.2859
14742W        W32266   0.771   2.293  13.721  0.1343 -0.1328 -0.2787
14743W        W32267  14.352   4.712   1.791 -0.1806  0.3199 -0.0877
14744W        W32268   7.245  14.203  12.215  0.1768 -0.0258 -0.1822
14745W        W32269  11.512  15.772  14.787 -0.1803 -0.0036  0.0282
14746W        W32270   1.861  15.623  15.789 -0.4199  0.1946  0.0358
14747W        W32271   5.098   3.738   4.328 -0.1122  0.0228  0.0495
14748W        W32272  17.075   4.445   4.832  0.1862 -0.3591 -0.0262
14749W        W32273  11.016   0.003   3.196 -0.1375 -0.3306  0.0051
14750W        W32274  14.537  10.669   0.650  0.1018  0.0355 -0.1004
14751W        W32275   2.192   7.396   5.276 -0.1108 -0.1046  0.2897
14752W        W32276  10.410  14.914   2.780  0.2043 -0.0040  0.0649
14753W        W32277   2.868   8.134  13.686  0.0231 -0.1269 -0.0016
14754W        W32278   9.764   3.624  14.042  0.1774  0.1551  0.0767
14755W        W32279   4.045   7.216  15.405  0.2517  0.0805  0.0252
14756W        W32280  17.900   2.916   2.498  0.0502  0.1564  0.1996
14757W        W32281  12.942   1.503   1.537  0.0984 -0.1477 -0.2197
14758W        W32282  11.406   1.685   2.834  0.1317 -0.2416  0.2698
14759W        W32283   9.105   9.967  15.994 -0.3654 -0.1680  0.0503
14760W        W32284  11.434   2.168  12.600 -0.1095  0.4173 -0.0293
14761W        W32285   4.555  11.461  13.582  0.3168  0.1303  0.1396
14762W        W32286   4.579  16.386  12.835 -0.0554  0.0057 -0.0697
14763W        W32287   3.765   6.447  14.572 -0.1855  0.2005 -0.4207
14764W        W32288  13.818   3.424   3.667 -0.0965  0.1807 -0.1101
14765W        W32289   1.261  13.589  11.353 -0.0982 -0.0658  0.2666
14766W        W32290  13.867  16.507  12.063  0.2070 -0.1168  0.0424
14767W        W32291   4.931  17.651  10.876 -0.2183  0.1011  0.0237
14768W        W32292   0.676   6.821  13.128  0.0622  0.2776  0.2545
14769W        W32293   4.822   0.711  15.649  0.0491  0.1790 -0.0654
14770W        W32294  12.603   8.123  15.206 -0.3025  0.0189  0.1190
14771W        W32295  11.070   9.354   0.030 -0.0542  0.0331 -0.0641
14772W        W32296  11.453   9.794   4.286  0.0984  0.2998 -0.3654
14773W        W32297   1.430  16.016   0.739 -0.0718 -0.0031  0.1446
14774W        W32298  15.795   9.922  13.706 -0.1827  0.0742 -0.2107
14775W        W32299  12.658   4.680   1.119  0.1085  0.0235 -0.0236
14776W        W32300   2.817  16.726  12.797  0.1194  0.0632  0.3740
14777W        W32301   0.061   6.957  12.652  0.0040 -0.3147 -0.1219
14778W        W32302   9.605  17.591   4.165  0.1832  0.1086 -0.2770
14779W        W32303   7.231   9.312   6.115 -0.1175  0.3462 -0.1293
14780W        W32304  17.916   9.721   2.069 -0.0522  0.3562  0.1123
14781W        W32305  11.490  15.160  12.561 -0.1865 -0.1965 -0.1054
14782W        W32306  13.974   1.763  15.843  0.3596  0.1996  0.0876
14783W        W32307  16.484   7.575   0.122  0.1723 -0.0995  0.2232
14784W        W32308   7.477  12.504  13.252  0.3588  0.1120  0.1671
14785W        W32309   6.754   2.173   1.297 -0.0608 -0.0140  0.1218
14786W        W32310   4.536   0.178  11.948 -0.0547  0.2264 -0.1255
14787W        W32311  11.173  12.271   0.567  0.0455  0.1938  0.1090
14788W        W32312  16.639  16.106  11.211  0.2793  0.0500 -0.1831
14789W        W32313   3.115  10.497  12.879 -0.0781 -0.2380  0.0279
14790W        W32314   0.669  11.255  10.807 -0.1250 -0.0472  0.1316
14791W        W32315   4.797  16.184   0.887  0.0439  0.2861 -0.1758
14792W        W32316  13.351   4.762   4.324  0.2143 -0.1911  0.5299
14793W        W32317   6.409  12.281  14.217 -0.1978  0.1574 -0.0343
14794W        W32318  12.485   0.689   3.849 -0.0822  0.2396 -0.0154
14795W        W32319  15.525  12.942   2.578 -0.2246 -0.2069 -0.3391
14796W        W32320   9.729   9.345  14.031  0.0522  0.0932  0.1043
14797W        W32321  11.773   9.097   2.422 -0.0762 -0.0029  0.2191
14798W        W32322   3.362  12.926   0.412 -0.1888  0.0685 -0.0026
14799W        W32323   7.224  16.478   0.589 -0.1817  0.2648 -0.0094
14800W        W32324   1.746  14.812   0.214 -0.2018  0.0809 -0.1841
14801W        W32325   8.251  17.296  13.756  0.0046 -0.0896 -0.2016
14802W        W32326   1.587   5.856   1.743  0.0563 -0.0331  0.0957
14803W        W32327   2.210   9.388  11.448  0.1183  0.1013 -0.0876
14804W        W32328   9.438   1.608  13.786 -0.1480  0.0599  0.3077
14805W        W32329   9.080  10.190  12.030  0.0001  0.2921  0.0671
14806W        W32330   2.936  13.282   0.784  0.1507  0.0451 -0.0372
14807W        W32331   6.825   8.203   1.187 -0.0798 -0.1088  0.0165
14808W        W32332  11.226  14.882   2.224  0.0284 -0.2025  0.0866
14809W        W32333   8.483  16.472  13.312 -0.3145  0.0011 -0.1162
14810W        W32334   6.034   8.303   0.624 -0.0039  0.1620 -0.1629
14811W        W32335   2.855  12.744  15.350  0.0222  0.2239  0.1119
14812W        W32336   0.087  16.713   3.963 -0.0395  0.0155 -0.0524
14813W        W32337  16.727  11.970   2.948 -0.3466 -0.0232  0.0156
14814W        W32338  13.270   6.002  13.138 -0.0154  0.2031 -0.0506
14815W        W32339   4.192  14.301   3.849 -0.0136  0.2421  0.0031
14816W        W32340   1.221  10.357   4.348  0.0942 -0.1309 -0.0058
14817W        W32341  11.921  12.004   3.822  0.0143 -0.1251 -0.1984
14818W        W32342   7.412  13.060   2.718  0.1847 -0.1130  0.1074
14819W        W32343  12.332   2.149   0.466 -0.1198  0.0914  0.0809
14820W        W32344   2.407  12.352  15.088 -0.0811 -0.1175 -0.1102
14821W        W32345  14.253   9.820  14.336  0.2975 -0.0697  0.0453
14822W        W32346   0.360   7.981   3.894  0.0169 -0.0068 -0.0567
14823W        W32347  16.358   5.014   5.172  0.0361  0.1558 -0.0674
14824W        W32348  16.354   7.341  11.165 -0.3471  0.0060 -0.0340
14825W        W32349  17.021  10.118  16.107 -0.0426  0.2380 -0.1228
14826W        W32350  17.922  14.241   2.135  0.2088  0.3094  0.0131
14827W        W32351   3.578   6.866   2.908  0.3098 -0.1543  0.0126
14828W        W32352   4.078   5.870   4.474  0.3065  0.2786  0.1567
14829W        W32353  13.559   5.193   1.365 -0.1769 -0.0840  0.0419
14830W        W32354   2.995   3.764  11.900  0.2592  0.1785 -0.2172
14831W        W32355   7.441  11.908  13.391 -0.0189 -0.0884 -0.2773
14832W        W32356   6.574   9.530   1.082 -0.0192 -0.2037  0.0351
14833W        W32357   2.442   6.422  14.092  0.0551  0.1205 -0.1318
14834W        W32358  16.461   3.932   0.537 -0.2465 -0.1817  0.1264
14835W        W32359  10.799   7.740   2.957  0.2316  0.1164 -0.0004
14836W        W32360  10.451  14.928  15.071  0.2686 -0.2703  0.0450
14837W        W32361  15.519  17.747   0.550 -0.3843 -0.1693  0.1039
14838W        W32362   9.486  16.978   1.494  0.2389 -0.0578 -0.0930
14839W        W32363   4.797   8.125  13.433  0.2639  0.0369  0.0211
14840W        W32364  16.694  11.666  10.016  0.0038 -0.0171  0.1923
14841W        W32365  16.245   1.360   3.966  0.3196  0.0755 -0.1327
14842W        W32366   7.236   2.158  13.405 -0.1516  0.0908 -0.3697
14843W        W32367  12.367  11.417  11.584  0.1108 -0.2940 -0.1125
14844W        W32368   4.278  13.217   0.129  0.3234  0.0890 -0.2515
14845W        W32369  10.117   4.914  12.969  0.2644  0.1066  0.2195
14846W        W32370   6.799  10.297   3.312  0.0883 -0.1338 -0.0683
14847W        W32371   7.431  13.109  14.043  0.4831 -0.0595  0.1831
14848W        W32372   3.135   9.453   3.142 -0.2649 -0.1698  0.1943
14849W        W32373  13.986   0.454  16.077 -0.0740 -0.3988 -0.0815
14850W        W32374  13.247   3.400   4.462  0.0556  0.0051 -0.0435
14851W        W32375  13.688   5.274  16.185 -0.2472  0.3546  0.2512
14852W        W32376   9.013   3.344   0.088  0.0310  0.0116 -0.1421
14853W        W32377  17.398   3.638  12.299  0.3278  0.3415  0.0839
14854W        W32378   8.464   8.226   1.405 -0.3217  0.0022 -0.0415
14855W        W32379   3.014   4.948  12.922  0.0260  0.1290  0.3954
14856W        W32380   6.406   8.028  14.731 -0.0553 -0.0130  0.0621
14857W        W32381  12.302  14.398   2.510 -0.1458  0.0793 -0.0418
14858W        W32382   7.503  13.405  12.247  0.0490 -0.2849  0.0887
14859W        W32383  10.911  11.232  14.761 -0.1217 -0.0599  0.0197
14860W        W32384   9.000   6.005  15.597 -0.1956  0.0328 -0.1135
14861W        W32385  12.860  14.385   1.537 -0.2677 -0.1211 -0.2871
14862W        W32386   2.293   4.635   3.649  0.0351  0.5013  0.1157
14863W        W32387  13.100   7.192  10.796  0.0940 -0.2472  0.0286
14864W        W32388   8.886   6.588  15.509  0.0689  0.0125 -0.0095
14865W        W32389   8.850   7.455  13.985  0.1278 -0.0183  0.1117
14866W        W32390   0.187   0.677  12.835 -0.1701  0.3627  0.2177
14867W        W32391  10.817   4.058  12.659  0.0493 -0.1614  0.3250
14868W        W32392  17.368   5.111  12.764  0.2715  0.1347  0.0300
14869W        W32393   6.108   0.170  13.524 -0.0572 -0.0334 -0.2442
14870W        W32394   2.218   3.076  12.781  0.0137 -0.0699 -0.0757
14871W        W32395   0.114   0.295   4.011 -0.0389  0.1638 -0.1114
14872W        W32396   0.745   7.661   1.209  0.1197  0.0481 -0.0190
14873W        W32397  15.787  15.114  14.546 -0.1101 -0.1834 -0.0845
14874W        W32398  14.202   4.480   2.223  0.1136 -0.2271 -0.2120
14875W        W32399   8.013   1.792   3.202  0.1871  0.0027  0.0290
14876W        W32400  12.298   6.657   2.710 -0.1440  0.1106 -0.1658
14877W        W32401  14.001  16.520   1.132 -0.2312  0.4334  0.2405
14878W        W32402   3.904   2.510  13.550  0.1623  0.0676  0.2748
14879W        W32403   8.250   8.396  12.956  0.0836  0.0901 -0.1893
14880W        W32404   5.079  17.549   3.148  0.1758 -0.0856  0.0391
14881W        W32405   5.291   8.927   0.751 -0.2009 -0.1585  0.2158
14882W        W32406   0.207   5.468  11.606  0.0659 -0.0905  0.0839
14883W        W32407  16.422  10.286  16.083 -0.1004 -0.3163 -0.0535
14884W        W32408  11.492  15.334  14.967  0.0424  0.1212 -0.0137
14885W        W32409  16.977   2.488  13.583 -0.0728 -0.1635  0.0835
14886W        W32410   2.240  16.893  14.440 -0.0466 -0.0022 -0.2460
14887W        W32411  15.614  16.502  11.470  0.2058 -0.0135  0.0305
14888W        W32412  15.075  15.331  15.717  0.0623 -0.1685  0.0857
14889W        W32413   8.752   5.162   4.437  0.0861 -0.0409  0.1811
14890W        W32414  14.930   0.454  12.078  0.1316 -0.0641 -0.0919
14891W        W32415   7.558  16.567  13.427 -0.3037 -0.0744  0.0495
14892W        W32416  16.560   7.183   0.348  0.3747  0.1918  0.1136
14893W        W32417  15.193  17.016  15.257  0.0320  0.1588  0.2320
14894W        W32418   0.705  17.268  12.317  0.2714  0.1550  0.1502
14895W        W32419   7.341   0.009   4.822  0.3542 -0.1434  0.1921
14896W        W32420   1.014   1.731   3.508  0.4362  0.0635 -0.1332
14897W        W32421   6.587  16.410   2.787  0.0030  0.0966 -0.0396
14898W        W32422  14.067  16.619  16.157 -0.1011  0.0519  0.0931
14899W        W32423   5.238  17.467  15.246  0.0410  0.0900  0.2099
14900W        W32424   4.931  13.534  11.514  0.0535 -0.0371  0.0018
14901W        W32425  13.573  16.189   3.242  0.1286 -0.2662  0.1296
14902W        W32426  11.909  10.513   1.218 -0.2982  0.0173 -0.0064
14903W        W32427  13.448   0.926   1.496  0.0932  0.0947  0.0266
14904W        W32428  13.901   4.254  13.867  0.2544 -0.3226 -0.0617
14905W        W32429   1.450  16.984   1.554 -0.1505 -0.1001 -0.2347
14906W        W32430   4.403   7.012   5.244 -0.0221 -0.3819 -0.0340
14907W        W32431   6.474   1.881   1.608 -0.0817 -0.2091  0.2533
14908W        W32432   2.085  12.979   1.664  0.0639  0.0104 -0.1979
14909W        W32433   2.126  13.237  12.454  0.0761 -0.1743  0.0869
14910W        W32434   4.606   3.785  13.016  0.1435  0.4084 -0.3874
14911W        W32435  15.150  10.273  15.324 -0.0026  0.1123 -0.2761
14912W        W32436   2.118   6.322  12.008  0.0364  0.2461  0.1000
14913W        W32437   1.350   0.302   3.460  0.0268  0.0838  0.1128
14914W        W32438  16.061   9.949  12.093  0.0310  0.0660 -0.0448
14915W        W32439   9.348  17.845  15.887  0.1148  0.1710 -0.1567
14916W        W32440   4.603   7.344  15.392 -0.0195  0.0027  0.0104
14917W        W32441  10.803   8.502  14.943 -0.0402 -0.0813  0.1962
14918W        W32442  13.373  11.553  15.566 -0.3165  0.0346  0.0401
14919W        W32443  15.675  10.953   1.264  0.1725  0.1459 -0.0242
14920W        W32444   2.277   4.419  14.854  0.0693 -0.2438  0.0559
14921W        W32445  14.501   2.468   5.107 -0.2625  0.0414  0.1351
14922W        W32446   1.591  10.668   3.674  0.0977  0.3199 -0.1911
14923W        W32447   0.480   8.452   1.405 -0.1248  0.0914  0.0192
14924W        W32448  17.421  11.936  14.684  0.3260 -0.2646 -0.1293
14925W        W32449  16.658  17.904   3.722  0.1440  0.1008 -0.2195
14926W        W32450  12.532   9.892  13.875 -0.1114 -0.0036 -0.0210
14927W        W32451   7.836   3.268   4.385 -0.1859 -0.1919  0.1682
14928W        W32452   4.162   0.960  13.287  0.0087  0.1594 -0.1748
14929W        W32453   5.167  11.167   0.448  0.0017 -0.1560 -0.1505
14930W        W32454  11.290  10.108  11.422  0.2299  0.0453 -0.1872
14931W        W32455  16.656  16.973  14.460 -0.0965 -0.2072  0.1118
14932W        W32456   2.354   9.262  11.891  0.0066 -0.1631 -0.1453
14933W        W32457   2.856   8.917  15.680  0.0671 -0.1424 -0.3496
14934W        W32458   4.276  13.579  13.517  0.1775 -0.4157  0.2367
14935W        W32459  17.866  10.219  12.103  0.2195  0.3201 -0.0066
14936W        W32460  10.854   3.637  12.248 -0.0234 -0.0810 -0.1154
14937W        W32461  16.609  16.220  14.989  0.1186  0.1348 -0.0279
14938W        W32462   3.202   8.782   1.444  0.0266  0.0882 -0.4364
14939W        W32463   4.334   2.345   2.952 -0.3467  0.1823  0.2812
14940W        W32464   4.229   3.157   3.142  0.0700  0.1874 -0.3137
14941W        W32465  13.986  12.075  14.929 -0.0340  0.3169 -0.1841
14942W        W32466  13.475   2.191   4.624 -0.3188  0.1434  0.1011
14943W        W32467   5.253  13.537   4.971  0.1042 -0.2421 -0.1772
14944W        W32468  12.340  17.454  15.587 -0.1962 -0.0177  0.0212
14945W        W32469   6.638   3.840   1.238 -0.1904 -0.1490  0.3607
14946W        W32470   7.678  13.389  13.381  0.2080 -0.0539 -0.0706
14947W        W32471  14.089  12.414   4.808 -0.2334  0.2109 -0.0771
14948W        W32472  16.186  13.239  12.796  0.4465 -0.1360  0.2296
14949W        W32473  16.153   1.768   4.283  0.2412 -0.0356  0.4803
14950W        W32474   3.790   9.423   2.650  0.0751 -0.0498  0.0087
14951W        W32475  14.505   1.580  14.803 -0.1225 -0.1051  0.1065
14952W        W32476   9.774  12.613  13.467 -0.3017 -0.1374 -0.1525
14953W        W32477  16.686  13.154   3.680  0.0427  0.0646 -0.1005
14954W        W32478  16.889  12.458  15.297 -0.0303  0.0930 -0.0677
14955W        W32479  16.185   9.769  13.968 -0.2690  0.0787  0.1934
14956W        W32480   7.052   1.863   3.170 -0.0205 -0.0193 -0.0413
14957W        W32481  11.312   4.083  15.359  0.2239 -0.1407 -0.2275
14958W        W32482   7.448   2.732  15.765 -0.1129  0.0316  0.2343
14959W        W32483   8.205   5.327   2.574  0.0550 -0.2004 -0.1453
14960W        W32484  12.004   1.919  11.291  0.0403 -0.1355  0.1296
14961W        W32485  15.386  17.287   3.741  0.2586  0.0014 -0.0504
14962W        W32486  17.719  11.720   0.688  0.0490  0.0286 -0.1197
14963W        W32487   7.264   8.192  12.521  0.2340 -0.2855 -0.1788
14964W        W32488   7.434   6.158  16.093 -0.0624  0.1103  0.5204
14965W        W32489  17.049   1.605   5.081  0.0871 -0.1292 -0.1040
14966W        W32490   4.257   8.458  16.245 -0.2635 -0.2678 -0.1559
14967W        W32491  14.257  17.612  11.254 -0.2734  0.0083 -0.0849
14968W        W32492   6.196  11.911   0.590  0.1893  0.0796 -0.1340
14969W        W32493   8.298  10.062  11.523 -0.2023  0.0974  0.0297
14970W        W32494  13.427  11.421   2.153  0.2364  0.1184  0.0427
14971W        W32495   4.576   0.253   3.666  0.0773 -0.1798  0.2940
14972W        W32496   2.632   0.269   3.764  0.0514  0.2244 -0.0487
14973W        W32497   3.760   0.571   3.778 -0.0947 -0.0373 -0.1151
14974W        W32498   7.355   6.004   3.280  0.0166  0.1772 -0.2151
14975W        W32499   4.235   6.794  11.985  0.2923 -0.1506 -0.2460
14976W        W32500   3.182   8.068  11.858  0.0161  0.0152  0.0304
14977W        W32501  10.045   8.225  11.234 -0.4523 -0.1703 -0.0239
14978W        W32502   4.195  16.625  15.556  0.2570 -0.1290  0.0120
14979W        W32503   9.854  10.525   1.692 -0.0506  0.1762  0.3215
14980W        W32504   6.814  14.117  15.895  0.1131 -0.0148 -0.0722
14981W        W32505  17.146   2.417   0.001  0.4482 -0.1448  0.1243
14982W        W32506  13.640   6.428   1.434  0.1117  0.0933  0.0008
14983W        W32507  13.269   8.036   4.321 -0.1917  0.1378  0.0391
14984W        W32508  11.915  14.867  12.722 -0.1260  0.0208 -0.1564
14985W        W32509  17.395   5.387   3.229  0.0133  0.1062  0.1299
14986W        W32510   8.058  11.888  11.950  0.1168 -0.0073 -0.3102
14987W        W32511  12.569  12.780   4.866  0.1762 -0.5329  0.2625
14988W        W32512   7.893   6.009  12.583  0.1029 -0.0237  0.0060
14989W        W32513  14.551   8.259   2.272  0.0401  0.0298 -0.0824
14990W        W32514   9.324  14.313  12.084 -0.2132  0.0388 -0.1210
14991W        W32515  16.368   0.227  12.072 -0.0588  0.2111  0.3861
14992W        W32516   5.851   0.471  16.111  0.0499 -0.0301 -0.2500
14993W        W32517   5.113   6.487  11.842 -0.2645  0.2871  0.1852
14994W        W32518   5.017  10.090   5.324 -0.2574 -0.0613 -0.0216
14995W        W32519   0.966  12.562  12.069 -0.3836  0.3651 -0.2460
14996W        W32520  13.617  10.820   3.428  0.3249  0.0449  0.1501
14997W        W32521   4.370  17.755  15.734 -0.0713 -0.0141 -0.1274
14998W        W32522  17.456   4.368  11.728 -0.3397 -0.1092 -0.2596
14999W        W32523   1.318  15.648   4.766 -0.0329 -0.0798  0.1501
15000W        W32524  10.737  14.127  13.910 -0.1670  0.0848  0.3368
15001W        W32525  11.590   1.532  11.801 -0.0946 -0.0601 -0.2113
15002W        W32526  11.645   7.780   0.365 -0.2108  0.3460 -0.3549
15003W        W32527   1.643   2.025   1.054 -0.1699 -0.1555  0.1646
15004W        W32528   3.988  12.886  12.777  0.1176 -0.1293  0.2138
15005W        W32529  12.373  12.926   1.293 -0.1827  0.1622 -0.0788
15006W        W32530   8.859   0.194  10.973  0.4276 -0.1153 -0.0748
15007W        W32531   8.521   4.239   4.763  0.0827 -0.1291 -0.0261
15008W        W32532   0.854  15.261   0.569 -0.1363  0.0762  0.2118
15009W        W32533  16.487   5.812  15.053 -0.0802  0.2881 -0.1546
15010W        W32534   9.702  15.735  12.797 -0.1570  0.2016 -0.1494
15011W        W32535  15.386   9.357   3.914  0.0209 -0.1025  0.2278
15012W        W32536  16.008   3.552   2.539 -0.0358 -0.2405 -0.1220
15013W        W32537  17.926  16.871  13.920  0.0409  0.1478  0.0284
15014W        W32538  16.050   5.889  13.225 -0.0522 -0.0349 -0.1099
15015W        W32539  13.253  14.239  15.290 -0.0252  0.0763  0.0828
15016W        W32540   3.291  12.950   1.087 -0.0106  0.0164 -0.0208
15017W        W32541  12.497   8.539  15.551 -0.3089 -0.1235  0.2080
15018W        W32542   2.682  13.871  13.900 -0.1479  0.0428 -0.1372
15019W        W32543  14.071   8.938   0.304 -0.1624 -0.2317  0.1459
15020W        W32544  16.220  17.053  14.268  0.1694  0.0307  0.2835
15021W        W32545   8.974   7.071  13.073  0.1861 -0.2228  0.1239
15022W        W32546   5.344   5.166  15.369  0.1580 -0.1028  0.2057
15023W        W32547   9.158  17.592   0.784  0.0355  0.2862  0.2323
15024W        W32548   7.677   2.197   2.423  0.3145 -0.2747 -0.1790
15025W        W32549  15.697   4.057  11.267  0.1404 -0.0784 -0.0426
15026W        W32550  16.807  13.003  12.163 -0.0203  0.0148 -0.3784
15027W        W32551   8.306   4.024  10.463 -0.0660 -0.0655 -0.2655
15028W        W32552   8.361   7.806  13.094  0.1148  0.1162 -0.1256
15029W        W32553  14.087   5.221   3.844  0.0371 -0.1915  0.2271
15030W        W32554  11.401  15.316   0.548  0.1647  0.0131 -0.2254
15031W        W32555  14.562   0.061   0.758  0.0613 -0.0500  0.1914
15032W        W32556  17.137   5.603  11.462 -0.1437 -0.0013  0.1927
15033W        W32557  16.813   1.868  11.551 -0.2595 -0.4376  0.1315
15034W        W32558   0.323   8.015   4.373 -0.2456  0.0653  0.0288
15035W        W32559   9.011   8.460   1.502  0.2575  0.1985  0.1658
15036W        W32560   5.932   9.827  15.721  0.0527 -0.1954  0.0701
15037W        W32561  17.013   9.732   1.658 -0.0314 -0.0395 -0.0766
15038W        W32562  11.754  14.029  15.266 -0.0237 -0.0365 -0.0463
15039W        W32563   4.540  11.990   1.120 -0.1055  0.1972 -0.0203
15040W        W32564  15.573  10.421  14.970 -0.0307  0.0792  0.1418
15041W        W32565  15.641  10.692  13.234  0.0979 -0.1650  0.0919
15042W        W32566   3.842   0.067  13.805  0.1263  0.0726  0.1469
15043W        W32567   3.240   1.640   3.605  0.1867 -0.3792  0.1364
15044W        W32568  12.927   7.990   3.852  0.0674  0.1388 -0.0950
15045W        W32569  16.098   3.453   4.174  0.1134 -0.0577 -0.2178
15046W        W32570   1.305   8.625  12.668 -0.1663  0.1867  0.1232
15047W        W32571   2.059   9.623  15.040 -0.0089 -0.0441 -0.3139
15048W        W32572  17.444  16.551  13.135 -0.3783 -0.0543  0.1019
15049W        W32573  11.887  17.707   0.468  0.0228 -0.1041 -0.2347
15050W        W32574  13.304  13.681   3.555 -0.0724  0.3254  0.1893
15051W        W32575   4.052  17.634  14.034  0.1137  0.1767  0.1882
15052W        W32576   4.396  16.096   4.898  0.1503  0.2281 -0.1800
15053W        W32577   6.097   0.524  11.758 -0.1726  0.1771 -0.0628
15054W        W32578   8.675  16.153   1.964  0.1475  0.2224  0.0459
15055W        W32579   3.557  13.900   2.221 -0.2533  0.0348 -0.1862
15056W        W32580  13.989  11.927  11.073 -0.1791 -0.1366  0.1476
15057W        W32581  12.022   5.873  12.758 -0.1293 -0.0298 -0.0101
15058W        W32582   2.238   1.855  13.135 -0.0369  0.1495 -0.0641
15059W        W32583  15.051   3.974  12.954 -0.0871 -0.2020  0.1767
15060W        W32584  17.547   5.784   1.315  0.0692  0.3005  0.1107
15061W        W32585  17.278  17.023   2.937 -0.1067 -0.0753  0.0477
15062W        W32586  14.290  11.166   4.141  0.1087  0.1763  0.0588
15063W        W32587   6.188   1.442  12.209  0.2352  0.2397  0.2523
15064W        W32588  16.688  16.049  12.744  0.0982 -0.0945  0.3667
15065W        W32589   7.826  17.933   0.525  0.1480 -0.0673 -0.1149
15066W        W32590   4.953   1.293  13.176 -0.2776  0.1580 -0.1470
15067W        W32591   6.215  16.253   3.160  0.2607 -0.3129  0.0220
15068W        W32592  11.733   2.353  11.296  0.1491 -0.1912 -0.1412
15069W        W32593   3.295   3.363  14.414 -0.1126  0.0690  0.0065
15070W        W32594   2.995  16.627   0.185  0.2424 -0.2465  0.0580
15071W        W32595   2.284  12.648  13.803 -0.2658  0.3306 -0.0651
15072W        W32596  13.264   2.538   4.299 -0.1381 -0.3911  0.1235
15073W        W32597   3.942  15.042  14.671 -0.0797  0.0717  0.1211
15074W        W32598   5.152   5.142  14.008 -0.2068 -0.2119  0.3204
15075W        W32599   6.278  13.309  11.962 -0.3272 -0.1740  0.0756
15076W        W32600   0.064   6.471   2.030 -0.0335 -0.0986 -0.3306
15077W        W32601   9.764  10.186  14.165 -0.0648 -0.1516 -0.0181
15078W        W32602  13.243  10.235  11.310 -0.2356 -0.3061 -0.0995
15079W        W32603  11.296   1.247  15.687 -0.1095  0.3675  0.1582
15080W        W32604   0.053  15.253   2.597 -0.2361 -0.1323 -0.0944
15081W        W32605   4.061   8.456   2.486  0.3239 -0.2961  0.3947
15082W        W32606   9.850  12.070   0.843 -0.2759  0.2184  0.3429
15083W        W32607   8.312  10.540   2.596 -0.0920 -0.2855  0.0910
15084W        W32608   8.630   3.186  13.611 -0.0835  0.2861 -0.2298
15085W        W32609  15.807  17.648   3.613 -0.3260 -0.1498  0.1571
15086W        W32610  16.414  14.247   4.212 -0.0125  0.3832  0.0871
15087W        W32611  10.787  17.531  15.450 -0.0772 -0.1180 -0.1809
15088W        W32612  14.416   2.369   0.191  0.0135 -0.0727  0.0214
15089W        W32613   4.713  12.524   2.354  0.1622 -0.0405 -0.1121
15090W        W32614   2.214   5.046   4.079  0.3454 -0.0476 -0.1717
15091W        W32615  11.207  14.770   0.837  0.0267  0.2351 -0.1740
15092W        W32616  10.908  10.723   2.567 -0.0967 -0.1049 -0.0172
15093W        W32617   1.434  14.500   0.819 -0.2792 -0.1405 -0.2372
15094W        W32618  15.744   6.117   1.919  0.1355 -0.2601 -0.0167
15095W        W32619  17.033   2.888  13.274  0.1000  0.0210 -0.1639
15096W        W32620  13.849   4.732  11.202  0.2491  0.2682  0.0476
15097W        W32621   3.800   3.677   3.085  0.2568 -0.1676 -0.0826
15098W        W32622  15.467   9.382   3.396 -0.1799  0.0588 -0.3613
15099W        W32623   5.732   1.520   3.789 -0.0657  0.2163 -0.3516
15100W        W32624  13.353   8.696  12.637  0.2144  0.2753 -0.0170
15101W        W32625  15.720   2.021  15.398  0.2340  0.1451  0.1555
15102W        W32626  13.808   3.843   3.351  0.0568  0.0142  0.1788
15103W        W32627  13.313  16.463   0.114  0.2414  0.1788 -0.1578
15104W        W32628  17.093   7.827   1.566  0.0934  0.0264 -0.3160
15105W        W32629   1.519   5.171  15.744  0.2171 -0.0173 -0.0429
15106W        W32630   8.985  10.968   0.425  0.1249  0.2574  0.1233
15107W        W32631  14.732   2.998  11.768  0.0155  0.2149 -0.2543
15108W        W32632   8.970  16.450   3.146 -0.0024 -0.3492  0.2137
15109W        W32633  17.429   6.157   5.274 -0.1048  0.1544  0.1585
15110W        W32634   7.840   8.432   3.175  0.1687 -0.3538 -0.0429
15111W        W32635  15.032  10.208  12.114 -0.1190 -0.0536 -0.2374
15112W        W32636   1.634  17.146  12.716  0.0821 -0.0759  0.0345
15113W        W32637  11.383  17.527   0.378 -0.1137 -0.1091  0.0346
15114W        W32638  12.922  10.325  15.517  0.1523 -0.1539 -0.1259
15115W        W32639  10.517  13.519   0.232  0.1070 -0.0473 -0.0678
15116W        W32640  17.193   8.715   1.850  0.2982 -0.0863 -0.0313
15117W        W32641  13.074   8.748   3.149 -0.0059 -0.0450  0.0695
15118W        W32642  16.768   6.859  13.506  0.1616 -0.0818  0.0851
15119W        W32643  13.606   8.480   3.051  0.2340  0.1201 -0.1633
15120W        W32644  16.308   0.083   3.336 -0.2430  0.2579  0.3293
15121W        W32645   0.248  11.283  11.025 -0.3275  0.1461 -0.1444
15122W        W32646  11.257   7.463   0.687  0.1016  0.1196 -0.1785
15123W        W32647   0.755  14.187  11.580  0.2167  0.0446  0.1610
15124W        W32648  10.814   6.446  15.030  0.1821  0.0187  0.0119
15125W        W32649  13.315  12.418  10.720 -0.0505  0.0542 -0.0497
15126W        W32650   8.275  16.379   4.490  0.0646 -0.0119  0.1056
15127W        W32651   4.982  12.778   1.927  0.0270  0.3174 -0.2653
15128W        W32652   4.197   7.872   1.182  0.0755 -0.0599  0.2086
15129W        W32653   7.137  17.469  14.154  0.1301  0.0372 -0.1769
15130W        W32654   7.803   1.170  15.646  0.0345  0.0456  0.2421
15131W        W32655  17.333  17.026   1.396 -0.0581 -0.4675 -0.0512
15132W        W32656  10.422  10.252   3.603 -0.2951 -0.0187 -0.0198
15133W        W32657  15.865   7.374   2.956  0.0112  0.0398 -0.2517
15134W        W32658  12.189   5.672  15.280  0.0040 -0.1130 -0.2681
15135W        W32659   3.526   5.845   4.508  0.2215 -0.1290 -0.0425
15136W        W32660   9.126   6.749  12.136 -0.0146 -0.2706  0.1692
15137W        W32661   5.994   9.389  13.331 -0.1472  0.1088  0.2339
15138W        W32662  10.293   8.884   1.013  0.1152 -0.2541  0.1892
15139W        W32663   8.643   0.776   4.050  0.1739 -0.1418 -0.0993
15140W        W32664   8.055   6.771  15.805 -0.1399 -0.2759 -0.0031
15141W        W32665   0.228   2.297   4.158  0.0973 -0.0117  0.2258
15142W        W32666   7.805   8.899   3.288 -0.0331 -0.1662  0.0119
15143W        W32667  14.857  12.133  11.286  0.0467 -0.0708 -0.2824
15144W        W32668  14.359  15.843  11.865 -0.0397  0.4709 -0.0398
15145W        W32669  10.723   0.137   3.643 -0.1066 -0.0230  0.1220
15146W        W32670   1.740   1.473  11.153 -0.1103  0.0156 -0.0854
15147W        W32671   7.736   4.862  13.771  0.0499 -0.1150 -0.1118
15148W        W32672   6.803  12.765   5.173 -0.1967 -0.0504 -0.1547
15149W        W32673  16.312   6.264  13.564  0.0383 -0.0983  0.0590
15150W        W32674   0.169  16.646   0.808 -0.2222  0.1617 -0.0593
15151W        W32675  13.467   5.156  13.463  0.0638 -0.0385 -0.1157
15152W        W32676   5.922   8.014   0.242  0.1700 -0.1972 -0.1758
15153W        W32677   1.304   7.039   4.965  0.0020 -0.0302  0.2827
15154W        W32678   9.666  17.125  14.198 -0.0497  0.3016  0.1348
15155W        W32679   9.852   2.689  14.683 -0.1597  0.0513 -0.1049
15156W        W32680   0.301   9.534  15.224 -0.0063 -0.1458  0.0807
15157W        W32681   2.413   9.248  14.993 -0.3153 -0.0796 -0.2085
15158W        W32682   3.282   1.043   1.779 -0.1487  0.1207  0.0378
15159W        W32683   9.845   8.705  16.193  0.1070 -0.0509 -0.0336
15160W        W32684  14.469  14.649  14.167 -0.0494 -0.0869 -0.2688
15161W        W32685  11.857  11.410   5.008  0.2182  0.0945  0.1853
15162W        W32686   8.968  17.651  11.113 -0.3392 -0.0997 -0.1588
15163W        W32687   2.009   4.092   3.828 -0.0317  0.1015 -0.0318
15164W        W32688   4.614  14.594   4.431 -0.1457 -0.2202 -0.0349
15165W        W32689  10.106  13.480   3.053  0.0963  0.1411  0.1927
15166W        W32690   9.909   8.182   2.101  0.4590  0.0000 -0.1631
15167W        W32691   6.552  16.825  13.706  0.0291  0.0762  0.0665
15168W        W32692  12.764  13.954  14.515 -0.1578 -0.3356 -0.1791
15169W        W32693   6.519  15.990  11.963 -0.2746 -0.4485  0.0160
15170W        W32694  16.920  15.275   3.235 -0.1060 -0.0806 -0.3889
15171W        W32695  17.104   0.789   1.056  0.0389  0.1534  0.2233
15172W        W32696  14.637  16.975  11.686 -0.1540 -0.1799  0.0580
15173W        W32697  14.808   8.076  11.362  0.2582 -0.2577 -0.0486
15174W        W32698   3.712   1.328   4.882 -0.4316 -0.0372  0.1561
15175W        W32699  14.495   0.060   2.171 -0.0415  0.0797 -0.0302
15176W        W32700  12.356  15.545  11.835 -0.1386  0.0603 -0.1870
15177W        W32701  12.863  13.380   3.025 -0.3388  0.1023  0.0852
15178W        W32702   0.621   0.150   1.184 -0.0753 -0.1725  0.4216
15179W        W32703  16.681   6.441  12.723  0.1304  0.1935 -0.0595
15180W        W32704   4.111  12.526  14.074 -0.0275  0.1904 -0.1415
15181W        W32705   7.175   6.051   4.879 -0.0609 -0.0307  0.0305
15182W        W32706   3.568   1.538   1.891  0.4335  0.1496  0.3712
15183W        W32707   5.408  16.884   0.660  0.1215  0.0603 -0.0302
15184W        W32708   2.667   4.065  14.146 -0.2514 -0.0034  0.0841
15185W        W32709   4.354   1.728  14.610 -0.1319 -0.1046 -0.3718
15186W        W32710  17.729   7.219  12.961  0.0097  0.3382 -0.1856
15187W        W32711   9.685   6.817   0.152  0.0537  0.0517  0.4820
15188W        W32712  15.691   9.871  16.206 -0.2462  0.2465 -0.1279
15189W        W32713  17.754  16.653   4.559 -0.1763 -0.0086 -0.1416
15190W        W32714   1.594  10.503  11.679 -0.1845  0.2708 -0.0518
15191W        W32715  10.308  17.392  13.959 -0.1264 -0.0697  0.3167
15192W        W32716  17.150   9.747   0.168 -0.2710  0.1172  0.2282
15193W        W32717   3.802   4.833   1.751  0.0991  0.0975 -0.1692
15194W        W32718  17.135  14.916   3.573  0.1021 -0.3847 -0.1739
15195W        W32719   3.520  12.750  14.630  0.1975 -0.1825  0.1811
15196W        W32720   5.483   9.750   1.896 -0.1597  0.0781 -0.0003
15197W        W32721   4.398   4.487   0.295 -0.0055  0.1676 -0.0883
15198W        W32722   2.269   7.640  15.334  0.1860  0.1820 -0.0987
15199W        W32723  16.051   5.447   1.369 -0.0234 -0.2025 -0.0984
15200W        W32724   0.116   0.806   0.759 -0.3869  0.0866  0.0185
15201W        W32725  16.331   6.648  15.443 -0.0294  0.0204 -0.2348
15202W        W32726  12.920  14.268  11.251  0.1747  0.0643 -0.0759
15203W        W32727  13.922  11.116   2.938 -0.2151 -0.2232  0.0545
15204W        W32728   8.281   2.630  12.687 -0.0054 -0.1327 -0.0226
15205W        W32729   1.100  10.076   0.749 -0.1136  0.2685  0.0054
15206W        W32730  16.935  17.695   2.206 -0.2593 -0.1152  0.0013
15207W        W32731   8.704  14.555   2.364 -0.2608  0.2466  0.0782
15208W        W32732   3.035   2.075   4.361  0.3865 -0.0411 -0.0893
15209W        W32733  12.202  16.754   2.929  0.3076  0.3302  0.3476
15210W        W32734  11.202   1.751   0.718 -0.0357  0.1235 -0.4001
15211W        W32735  12.018   1.520  13.782  0.2322  0.0362 -0.1365
15212W        W32736   5.094   2.445   4.310  0.0309 -0.1086 -0.0279
15213W        W32737  10.739   8.629  10.875  0.0624  0.1246  0.2282
15214W        W32738  14.950  10.515  14.002 -0.3098  0.0808 -0.0868
15215W        W32739   1.631   7.186   1.887  0.0374 -0.4446 -0.0017
15216W        W32740   0.481   2.732   4.299  0.2886 -0.0633 -0.3376
15217W        W32741   6.474   5.010   1.974  0.3351  0.2011  0.2849
15218W        W32742   6.681   4.658   4.227  0.3340 -0.0334  0.1226
15219W        W32743   8.223  12.399  12.704  0.2248  0.0437  0.0417
15220W        W32744   6.698   7.599  13.752  0.1875  0.0298  0.2102
15221W        W32745   6.713   2.952   4.797  0.1234  0.3224 -0.3872
15222W        W32746   3.268  15.717  11.931  0.1577  0.0591  0.1903
15223W        W32747   8.753  17.843   5.724 -0.2671 -0.1009  0.0437
15224W        W32748   6.571  10.516  16.219  0.0318 -0.2716 -0.0362
15225W        W32749   1.228   2.763  11.887  0.1257  0.0985 -0.0968
15226W        W32750  11.573  13.297  13.818 -0.3355  0.1007 -0.0895
15227W        W32751   7.695   0.931   3.135 -0.1746 -0.5082 -0.3297
15228W        W32752  14.072  10.902   2.087  0.1273  0.0398  0.0747
15229W        W32753  11.561  16.148   0.820 -0.3437 -0.1366  0.0192
15230W        W32754   7.747   2.804   1.681  0.2241 -0.1933  0.1293
15231W        W32755   9.422   5.624  14.213  0.0373 -0.2196  0.1360
15232W        W32756   8.644  13.670  11.496 -0.0689 -0.0883 -0.1759
15233W        W32757   6.982   7.460   0.243  0.0387 -0.3353  0.2619
15234W        W32758   6.526  10.843   1.001  0.0203  0.2969 -0.2888
15235W        W32759   0.733  10.367  14.146  0.3691 -0.1838 -0.2472
15236W        W32760   4.436  13.877   0.779  0.3898 -0.1015  0.0989
15237W        W32761   3.770   6.185  15.569  0.0044  0.0879 -0.0130
15238W        W32762   9.601   9.469   0.761  0.1323 -0.0019  0.2568
15239W        W32763  13.038  15.901  12.558 -0.0577  0.2265 -0.1583
15240W        W32764  10.206  16.770   4.759  0.3125 -0.3569  0.2980
15241W        W32765   5.763   0.346  12.771 -0.3597 -0.0754 -0.0134
15242W        W32766  11.194  10.071  15.498  0.2097  0.0458 -0.1083
15243W        W32767   2.463   3.222   4.878  0.1860  0.2626 -0.1272
15244W        W32768   3.024   4.928  15.474  0.1234 -0.0060 -0.0487
15245W        W32769   1.832  17.608  11.027 -0.0362 -0.2540 -0.0466
15246W        W32770   0.677   4.872   3.086 -0.0423  0.0425  0.2549
15247W        W32771  14.665  10.335  15.031 -0.2020  0.0070  0.1408
15248W        W32772  17.150  10.904  10.906  0.3459  0.1294  0.0934
15249W        W32773   7.977  13.800  13.011 -0.2613 -0.2538  0.0439
15250W        W32774   8.260   7.379   4.046  0.1544 -0.1579 -0.0486
15251W        W32775  10.503  14.135  15.764 -0.1990  0.0798  0.1989
15252W        W32776   7.512  11.009   1.253  0.0258 -0.1270 -0.0476
15253W        W32777   1.701   7.866  11.983  0.1043  0.2753 -0.2445
15254W        W32778   6.612   6.628   0.766  0.0993  0.1106 -0.2016
15255W        W32779  15.307  15.076  13.798 -0.1007 -0.0984  0.2381
15256W        W32780   7.867   3.691   0.577 -0.2281  0.3255 -0.0715
15257W        W32781   8.229   2.998   4.369  0.1321  0.1503 -0.0089
15258W        W32782   1.748  11.187   3.584  0.4080  0.0411 -0.2764
15259W        W32783   2.975   0.031   1.984 -0.0609  0.3363 -0.0839
15260W        W32784   7.542   0.171   4.056 -0.1716  0.2423  0.2913
15261W        W32785   2.336  14.578   1.009  0.0822 -0.2336  0.4599
15262W        W32786  14.587   2.970  11.168 -0.3480  0.1749 -0.0444
15263W        W32787   3.272   6.353  14.626 -0.2797 -0.1182 -0.1881
15264W        W32788   8.974  16.531  10.648 -0.2047 -0.1900 -0.0310
15265W        W32789   8.837  15.753  11.653 -0.2098 -0.2939 -0.1307
15266W        W32790   2.298   8.219   4.128 -0.1489  0.2883 -0.0256
15267W        W32791   0.636  14.239   0.555 -0.2980 -0.4017 -0.2520
15268W        W32792  14.737  11.664   4.855 -0.1803  0.0238 -0.2706
15269W        W32793  16.502   2.906   1.117 -0.0892 -0.1075 -0.0694
15270W        W32794   9.434   8.837   5.644  0.0833 -0.0431 -0.0502
15271W        W32795   1.013  16.464   5.026 -0.1740  0.1859 -0.1377
15272W        W32796  16.982  10.773  13.478 -0.3152 -0.0747  0.0759
15273W        W32797   4.774   2.223  14.722  0.0654  0.0638 -0.0178
15274W        W32798  10.931   7.936  12.906  0.1046  0.1977 -0.2068
15275W        W32799   5.339  11.079  13.133  0.0510  0.0344  0.0503
15276W        W32800   9.162  17.948  14.928  0.2865 -0.0851 -0.1569
15277W        W32801  13.754   4.051  12.744  0.1101 -0.0407 -0.3106
15278W        W32802  15.883   0.250  11.067  0.1913 -0.2497 -0.1616
15279W        W32803  11.383   7.957  14.551 -0.2543  0.0549  0.3224
15280W        W32804  13.036  14.768   4.162 -0.3660 -0.0214 -0.0799
15281W        W32805  16.385   7.135  13.242  0.3912  0.0842  0.1933
15282W        W32806  13.819  10.567  12.488  0.0822 -0.1542 -0.0095
15283W        W32807   6.322  14.260  15.854  0.0699  0.0929 -0.1603
15284W        W32808  13.544   2.940   4.345 -0.1133 -0.0121  0.0239
15285W        W32809  14.671  13.846  13.682  0.0675  0.1797  0.0305
15286W        W32810  14.117  13.917   4.689 -0.0919  0.0382 -0.1658
15287W        W32811   7.710  16.358   0.656  0.1930 -0.0573 -0.1109
15288W        W32812   0.156  14.236  15.065  0.0273  0.0219 -0.4935
15289W        W32813  10.510   0.018   0.823  0.0143 -0.1823  0.0530
15290W        W32814  15.650  12.777  15.826  0.3203 -0.1685 -0.1080
15291W        W32815  17.890  13.656   0.034  0.1126  0.3927 -0.0315
15292W        W32816   2.890  11.866  12.881 -0.0760  0.0175  0.0394
15293W        W32817   5.397  16.816  13.366 -0.2440 -0.0954 -0.2274
15294W        W32818   0.178   4.404   4.043  0.0789  0.0839 -0.0832
15295W        W32819  14.832  12.576   2.963  0.0634  0.1732 -0.3151
15296W        W32820  12.936  16.358  11.513  0.1510 -0.0016 -0.1267
15297W        W32821  16.635  14.472  14.564 -0.0898  0.2849 -0.0744
15298W        W32822   0.348  14.836   2.794 -0.2172  0.2983 -0.0740
15299W        W32823  12.308   3.252   3.886  0.0187  0.2767  0.1628
15300W        W32824   4.256   4.653  11.349 -0.0726 -0.2110  0.0280
15301W        W32825  13.497  13.860   0.470  0.2012 -0.1866 -0.3647
15302W        W32826   9.604  16.138   2.093 -0.1736  0.0623  0.2990
15303W        W32827  12.910  12.595   0.045  0.1147  0.2091 -0.1216
15304W        W32828   3.872  16.481   3.108 -0.2577  0.0876  0.2817
15305W        W32829   2.334  11.852   3.309 -0.4653 -0.3716  0.3170
15306W        W32830  10.940  10.219   2.430  0.1959 -0.1142  0.0835
15307W        W32831   1.187   5.710  13.634 -0.0395 -0.1337 -0.5044
15308W        W32832   5.745   5.328  11.822  0.0256  0.2752  0.1289
15309W        W32833   2.761   6.003  12.115 -0.2555  0.0150  0.0279
15310W        W32834  11.179   6.076  15.065 -0.1103 -0.3403  0.2499
15311W        W32835   0.868   5.016   1.742  0.1920  0.1526  0.1353
15312W        W32836  14.664  12.454  13.178  0.1873  0.0576 -0.0953
15313W        W32837   0.442   2.726  15.716  0.0973 -0.1823  0.2000
15314W        W32838   1.210   0.998  12.726 -0.1875  0.0878 -0.1010
15315W        W32839  13.709  17.417   0.052  0.0611  0.2122 -0.0558
15316W        W32840   8.552  17.828   2.012 -0.2047 -0.0478 -0.1682
15317W        W32841  16.449   6.420  14.370  0.2135  0.1271  0.2052
15318W        W32842   5.591   6.284   4.119 -0.1221 -0.1427  0.1071
15319W        W32843  14.481   3.881   0.435  0.3059 -0.2035 -0.1700
15320W        W32844   3.135   0.297   3.847 -0.0491 -0.2117 -0.0574
15321W        W32845  17.506  17.570  13.214  0.1623 -0.2262 -0.3369
15322W        W32846  17.149   1.478  15.637  0.1466 -0.0487  0.1560
15323W        W32847   3.310   1.948   1.875 -0.1589 -0.1933  0.1247
15324W        W32848  16.758   9.229   3.573 -0.1050 -0.0347  0.0215
15325W        W32849   7.145  13.952  13.626  0.0662  0.0349  0.1039
15326W        W32850  13.151   0.096  16.228  0.0198  0.2732 -0.3149
15327W        W32851  15.196  11.677   2.780  0.1299  0.1171  0.3100
15328W        W32852  10.014   8.621   4.375 -0.0567 -0.1734 -0.2366
15329W        W32853   7.546   4.509  15.316  0.0020 -0.1054  0.1509
15330W        W32854   7.747   9.647   0.848 -0.1149 -0.0143 -0.0683
15331W        W32855   5.522   2.705   4.333 -0.0492  0.0296  0.0347
15332W        W32856  17.391   2.762  11.946 -0.2888 -0.3164 -0.1223
15333W        W32857   9.207   9.655   4.103 -0.1637  0.0605 -0.0358
15334W        W32858   7.555   2.370  15.228 -0.2689 -0.2720 -0.2281
15335W        W32859   7.520   4.528  14.130 -0.1366  0.1287 -0.1183
15336W        W32860  14.161   0.025   1.542 -0.0438 -0.0096  0.0167
15337W        W32861   3.953   4.658  15.052 -0.3104 -0.0355  0.0553
15338W        W32862  16.162   4.591   2.635  0.0812  0.3162 -0.1067
15339W        W32863   2.932  12.235  12.160  0.1363 -0.0097 -0.1890
15340W        W32864  17.945  16.343  11.943  0.0504 -0.1527  0.0905
15341W        W32865   7.803   1.365   3.954  0.1610  0.1480 -0.1638
15342W        W32866   8.123   8.785  13.165  0.0515 -0.2994  0.0607
15343W        W32867  10.529  14.034  15.219 -0.0270  0.1352 -0.1151
15344W        W32868   4.498  13.812  15.096  0.1323  0.3785  0.0018
15345W        W32869   1.918   3.655  14.556  0.1283  0.2185 -0.0848
15346W        W32870   1.491  17.279  15.299 -0.0015 -0.1102  0.1499
15347W        W32871  17.664   6.783   2.124  0.1239  0.1533 -0.1243
15348W        W32872   3.855   1.482  13.417  0.3022 -0.2323  0.1231
15349W        W32873  13.692  13.030  15.239 -0.0717  0.1824 -0.1689
15350W        W32874  10.036   4.554  13.346 -0.0410 -0.0131 -0.3474
15351W        W32875   7.565  11.154   4.019  0.0096  0.2438 -0.2515
15352W        W32876  13.539  17.504  11.958 -0.1470  0.2944  0.2295
15353W        W32877   0.374   1.226   5.032 -0.0815  0.0396  0.0703
15354W        W32878  15.763  14.452   2.137  0.1618  0.0331 -0.0043
15355W        W32879   8.158  15.047  11.826 -0.0923  0.0142  0.0040
15356W        W32880   0.022   4.970   1.825 -0.1042 -0.1882 -0.0473
15357W        W32881  13.771  14.017  11.639  0.0624  0.1436 -0.1681
15358W        W32882  10.492   9.399  12.584  0.1509  0.0061 -0.0356
15359W        W32883  10.985   8.529   3.543 -0.1595 -0.2728  0.0554
15360W        W32884   3.257   8.541   5.753  0.2273  0.0118 -0.0634
15361W        W32885   0.982   4.150  13.030 -0.0020  0.3928 -0.1692
15362W        W32886   7.450   4.033  14.887 -0.0761 -0.3673 -0.0309
15363W        W32887  13.801   1.519  14.248  0.3233  0.1530  0.0872
15364W        W32888  15.896   6.798  16.172  0.0565  0.0848 -0.2982
15365W        W32889   3.824   3.844   0.656 -0.1244  0.0409  0.0954
15366W        W32890  12.737   1.644   0.955  0.3028  0.0938  0.1103
15367W        W32891   3.143   6.798  13.624  0.1012  0.2258  0.1161
15368W        W32892  13.645   6.976   0.097  0.0319  0.1039 -0.0947
15369W        W32893   4.041   2.899   4.599 -0.1531  0.0855 -0.1360
15370W        W32894   0.955  17.180   2.210 -0.0637  0.0803  0.0060
15371W        W32895  13.904   3.516  13.001 -0.0536  0.0447  0.1080
15372W        W32896  14.278  14.256  11.943  0.1189 -0.2750 -0.0668
15373W        W32897  13.941   2.458  14.111 -0.1879 -0.0174  0.3029
15374W        W32898   0.183   6.808  13.120 -0.0631 -0.2267 -0.1613
15375W        W32899   9.936   3.996   1.436 -0.2336 -0.2220 -0.0643
15376W        W32900  16.861  17.727  11.518 -0.0048 -0.2272 -0.3156
15377W        W32901   9.090  11.268  13.443  0.0203 -0.0905  0.0204
15378W        W32902   5.731  15.808   3.736  0.1372  0.0877 -0.0811
15379W        W32903  16.750  17.475  15.671 -0.0693 -0.0026 -0.2019
15380W        W32904   2.772   4.226  13.549 -0.1274  0.1670 -0.2811
15381W        W32905   0.956   9.105  11.975 -0.0309 -0.0354 -0.0033
15382W        W32906  13.400  12.845  12.578  0.1736  0.0362  0.0198
15383W        W32907   2.433   7.341   3.838 -0.3105  0.2812  0.4447
15384W        W32908   8.529  10.154   0.334 -0.1488 -0.1888 -0.0650
15385W        W32909   9.718   6.028   1.319 -0.0869 -0.0015  0.0751
15386W        W32910   0.676   4.156   1.300  0.0699  0.3978 -0.0964
15387W        W32911   6.451  15.431   5.143  0.1087  0.2000 -0.0593
15388W        W32912  12.706  17.569  14.100  0.0381 -0.0003 -0.3286
15389W        W32913   3.099  17.345  14.841  0.0065 -0.0637  0.0967
15390W        W32914   3.423  13.097   2.855 -0.3499  0.0066 -0.0799
15391W        W32915  13.192   0.108   2.693  0.0508 -0.1292  0.0935
15392W        W32916  13.810   5.522   1.823 -0.0839  0.1846 -0.0001
15393W        W32917  13.855  17.506  14.602 -0.1137 -0.1504  0.2113
15394W        W32918  14.920   9.757   1.170  0.3240 -0.1860  0.0105
15395W        W32919  15.773  12.977  13.868 -0.2313 -0.3414 -0.4004
15396W        W32920  17.177   0.084  15.003 -0.1139  0.0291  0.0943
15397W        W32921  11.397  12.514  12.621  0.0784 -0.0243 -0.1299
15398W        W32922  14.202  12.870  11.547 -0.2587 -0.0498 -0.1721
15399W        W32923   6.256   5.492  15.363  0.1837  0.1129  0.2142
15400W        W32924  15.187   0.917   3.141 -0.3643  0.0520 -0.2546
15401W        W32925  12.675   3.613  14.773 -0.0004  0.0673 -0.2006
15402W        W32926  15.448   5.666  13.048  0.0826 -0.0662  0.0244
15403W        W32927   8.072   6.189   4.609  0.0499 -0.0273  0.0308
15404W        W32928  17.305  14.917  10.752  0.0877 -0.0074  0.0082
15405W        W32929  11.168   5.029   2.807  0.2261 -0.3692 -0.4053
15406W        W32930  17.542   0.207  11.062  0.1434  0.2538 -0.2669
15407W        W32931  13.012   5.313   2.803 -0.2133 -0.2533  0.0695
15408W        W32932  11.717   5.215  11.032  0.2944  0.1107  0.2743
15409W        W32933  16.531   8.262   0.169  0.0582 -0.1279  0.1319
15410W        W32934   6.136   9.014  12.311  0.2389  0.0552  0.1087
15411W        W32935   2.673  13.494  13.122 -0.3889  0.2680 -0.2115
15412W        W32936   5.150   4.168  12.278  0.1026 -0.0916 -0.2075
15413W        W32937  10.033   6.959   2.405  0.1836  0.1078  0.4134
15414W        W32938  10.310  10.059  13.717  0.1677  0.1188 -0.0250
15415W        W32939  16.836  11.103  14.919 -0.1470  0.1466  0.2240
15416W        W32940  12.519  14.647  11.742 -0.0517  0.0076  0.3733
15417W        W32941   6.395   4.396   3.862 -0.2408  0.0113 -0.0807
15418W        W32942  17.069   9.635   5.659  0.1732 -0.1312  0.0148
15419W        W32943  13.486  10.912   2.119 -0.2022  0.3336 -0.1061
15420W        W32944   7.818   3.917  10.374 -0.1488 -0.0048 -0.1535
15421W        W32945  13.543   0.555  14.746  0.1372  0.0475 -0.2883
15422W        W32946  10.181  16.818   2.037  0.2273 -0.0840 -0.0393
15423W        W32947   8.368  13.607   4.022 -0.2115 -0.0383  0.0427
15424W        W32948   7.720   7.171   1.048 -0.2385 -0.0092  0.2118
15425W        W32949   8.461   6.254   4.082  0.2266 -0.1549 -0.0687
15426W        W32950  14.656   0.843  15.432 -0.0878 -0.0135 -0.2997
15427W        W32951   1.884   6.513  11.607 -0.2339 -0.1595 -0.1435
15428W        W32952   9.813   7.852   0.061 -0.0872  0.0440 -0.1589
15429W        W32953   2.087  17.855   2.133 -0.0430  0.0033 -0.2385
15430W        W32954   4.233   5.556  13.686 -0.0672  0.2968  0.0778
15431W        W32955  15.879   7.554  11.173  0.1322 -0.0836  0.1269
15432W        W32956   1.819   3.041   0.061  0.0551 -0.1220  0.0520
15433W        W32957   4.189   3.816   2.358 -0.1118  0.0236 -0.0681
15434W        W32958   4.299  11.564  14.000  0.1024  0.1853 -0.1703
15435W        W32959   4.877  17.908  12.703 -0.1206 -0.0571  0.1565
15436W        W32960   4.870   7.471  14.035  0.2293  0.0551  0.1237
15437W        W32961  12.417  12.522  12.627 -0.1902 -0.0058  0.1460
15438W        W32962   7.624   1.035  13.766  0.1378  0.2095 -0.2021
15439W        W32963   5.488  11.639   4.725  0.0146  0.0138  0.2091
15440W        W32964   3.938  11.073  15.638 -0.0722  0.1161 -0.0904
15441W        W32965   6.419   5.450   4.429 -0.0325  0.1827 -0.2882
15442W        W32966   3.795  17.438  15.750 -0.2017 -0.2025  0.2528
15443W        W32967   2.347  14.976  15.745  0.1190 -0.0743 -0.0526
15444W        W32968  10.530   7.256  14.442 -0.1278  0.2676  0.0481
15445W        W32969   4.588   6.331   3.081 -0.1392 -0.2891  0.0481
15446W        W32970   2.141   1.683  14.144 -0.0792 -0.0588 -0.4063
15447W        W32971   2.271  12.002   0.551 -0.1930  0.3967 -0.0953
15448W        W32972  14.024  12.446   2.486 -0.0748  0.1255 -0.1772
15449W        W32973  10.019   9.185   3.652 -0.1133 -0.0213 -0.0346
15450W        W32974   9.203   8.196  13.357 -0.1152 -0.0506  0.0819
15451W        W32975   1.498  15.009  13.046 -0.0443  0.0039 -0.0449
15452W        W32976  12.130   5.200   0.077 -0.0530  0.0739  0.1160
15453W        W32977   9.515   3.496   0.556  0.1404 -0.1934 -0.1939
15454W        W32978  10.475  11.127  15.071 -0.0208 -0.1194  0.5095
15455W        W32979   6.309  14.916   2.134 -0.2029  0.0507 -0.0690
15456W        W32980  17.377  14.969  10.249 -0.0374  0.2609  0.1957
15457W        W32981  17.395  17.157  10.773 -0.4884 -0.3770 -0.2024
15458W        W32982   9.533  14.493  14.197 -0.2308 -0.0570 -0.0600
15459W        W32983  16.292   0.182   4.505 -0.0581 -0.2232  0.1754
15460W        W32984   4.652  12.406  11.741 -0.0612 -0.2063 -0.1880
15461W        W32985  17.406   6.688   3.726 -0.0872 -0.0731 -0.0281
15462W        W32986  10.067   6.810   4.710 -0.0066 -0.2441  0.1112
15463W        W32987   1.220  13.546   5.053 -0.1130 -0.2420  0.2238
15464W        W32988  17.594  12.990   4.536 -0.0408  0.2414 -0.0571
15465W        W32989  14.742   0.787  13.158 -0.2347  0.0746  0.1365
15466W        W32990   5.303  14.516   2.552  0.0108 -0.0301 -0.1169
15467W        W32991  16.691   6.918   5.202 -0.1313  0.4977 -0.2160
15468W        W32992  15.445   7.476  15.261  0.0394 -0.0163  0.0161
15469W        W32993   4.782   9.491  14.097 -0.2994  0.1356 -0.1797
15470W        W32994   8.098   4.642   3.109 -0.0185  0.1194  0.0971
15471W        W32995   0.021  12.973   0.675  0.0586  0.1233 -0.0734
15472W        W32996  11.854   6.012   0.722 -0.0973 -0.0357 -0.2715
15473W        W32997  12.801  11.394   2.145 -0.2370  0.0391 -0.0945
15474W        W32998  13.825  11.377   4.773  0.3063  0.2772 -0.1314
15475W        W32999  11.124   9.784  15.961  0.2219  0.0062 -0.1990
15476W        W33000   8.822   6.274  15.984  0.0237  0.0003  0.0486
15477W        W33001  13.036  16.812  12.476  0.2180 -0.0569  0.0104
15478W        W33002  17.333   5.963  13.362  0.0446  0.0048 -0.1628
15479W        W33003  15.062  17.150  13.111  0.1476  0.2065  0.4510
15480W        W33004   6.296   5.971  14.502 -0.1619 -0.2362 -0.0130
15481W        W33005   1.878   3.337   3.714 -0.2034  0.1472 -0.1113
15482W        W33006   0.146  14.135   0.659  0.2715 -0.0690  0.0751
15483W        W33007   1.768   4.546  11.826  0.0151 -0.0774  0.1131
15484W        W33008   6.073   0.211   2.846 -0.2137  0.2614 -0.1297
15485W        W33009   2.956   6.252   5.151  0.0282  0.0984 -0.1521
15486W        W33010   3.402   8.413   0.938  0.3141  0.1307  0.0670
15487W        W33011   2.110  11.697   1.792 -0.0468 -0.1091 -0.0884
15488W        W33012   9.328   0.503   1.886 -0.0917  0.1035  0.0809
15489W        W33013  10.304   8.267   4.193 -0.0335  0.1919  0.0640
15490W        W33014  10.918   9.229  15.288 -0.0998 -0.0262 -0.0455
15491W        W33015   7.220   3.455  12.689 -0.0673 -0.3869  0.1230
15492W        W33016  14.045   7.333   2.619  0.1435 -0.0683  0.2652
15493W        W33017   7.389   4.532   3.961  0.1737 -0.1787  0.0909
15494W        W33018  14.752   7.741  15.922 -0.0195 -0.1498 -0.0957
15495W        W33019  11.080   7.378   3.910  0.1603  0.0806  0.0471
15496W        W33020  15.348  10.387  13.005  0.2871  0.1206  0.1802
15497W        W33021  15.345  16.069  11.538 -0.1121  0.2516  0.2158
15498W        W33022  16.147   8.440   2.692  0.1153 -0.0653 -0.2491
15499W        W33023   1.715  11.614   2.146  0.0964  0.1255 -0.2611
15500W        W33024   1.180  13.090   1.079  0.1371 -0.2194 -0.1673
15501W        W33025  11.831  14.213   2.669  0.0400  0.0230 -0.1496
15502W        W33026   0.053  13.875  14.109  0.1372  0.1290  0.0230
15503W        W33027   4.303   0.714  15.708  0.0338  0.0959  0.0565
15504W        W33028   8.955  12.628   4.589  0.4073 -0.1349 -0.3117
15505W        W33029   4.338   6.781   4.192  0.0865 -0.1798  0.2526
15506W        W33030  13.401  11.582   4.236  0.3734  0.0433 -0.2141
15507W        W33031  14.066   9.203  13.914  0.1710  0.1193 -0.0243
15508W        W33032   8.658   9.018  12.364  0.0610 -0.5145 -0.1123
15509W        W33033   8.141  11.836   0.690  0.0678 -0.0174  0.0806
15510W        W33034  11.666   5.502  12.502 -0.0081 -0.0378  0.2976
15511W        W33035   8.378  16.846  11.191 -0.1624  0.0169 -0.2078
15512W        W33036   8.170  17.604  12.594  0.1915  0.1490 -0.1291
15513W        W33037  15.809  14.767  16.084 -0.2854 -0.4135  0.3010
15514W        W33038  16.826   4.779  11.147 -0.1186 -0.2639 -0.2297
15515W        W33039   9.830  14.961  14.426  0.1163 -0.1730  0.3378
15516W        W33040   2.364  15.691  16.047  0.0080 -0.2017 -0.0379
15517W        W33041  11.611   1.160  11.483  0.2696 -0.0153  0.1069
15518W        W33042  11.114  14.059  10.524  0.0126  0.0923 -0.1489
15519W        W33043   8.453   6.028  15.676  0.0616 -0.0663  0.0018
15520W        W33044   1.018   3.219  11.900  0.0215 -0.6387 -0.0009
15521W        W33045   3.082  13.329  12.936 -0.0636 -0.3700  0.2804
15522W        W33046   4.723   8.467   2.227  0.0364 -0.1545 -0.1443
15523W        W33047   2.313  16.138  13.514  0.2767 -0.0318 -0.0204
15524W        W33048   0.236  10.837  14.404  0.1830  0.0146 -0.2602
15525W        W33049  17.055  14.740  12.456 -0.3025  0.0370 -0.0839
15526W        W33050   3.073  11.369  12.939  0.0584 -0.2362  0.1039
15527W        W33051  11.350  13.894   4.435 -0.5550 -0.0744  0.2909
15528W        W33052   4.472  14.309  11.239 -0.1832 -0.0800  0.2099
15529W        W33053   8.277   3.643   1.433  0.0839 -0.0376 -0.0952
15530W        W33054   6.457  11.119  11.729  0.0517  0.0802 -0.1206
15531W        W33055   2.474  14.624   2.641  0.1203  0.3744  0.0192
15532W        W33056  13.675   3.236  12.618  0.2843 -0.0466  0.1754
15533W        W33057   9.845   7.666  13.774  0.3113 -0.1247 -0.0109
15534W        W33058   4.210  12.541  15.246  0.2559 -0.3454  0.0361
15535W        W33059  16.392   2.193   4.144 -0.0292 -0.2694 -0.1200
15536W        W33060   0.559   9.242   0.972  0.3070 -0.1250  0.2710
15537W        W33061   9.887  14.470  13.872  0.3176 -0.1346 -0.1291
15538W        W33062   5.703  16.870   1.259  0.0123  0.2008  0.0231
15539W        W33063  12.206   8.722   4.368 -0.2054  0.0176 -0.2195
15540W        W33064   1.035  17.816   1.215  0.1399  0.3948 -0.3004
15541W        W33065  13.167  17.872   4.093 -0.2855 -0.1727  0.0583
15542W        W33066  16.230   8.044  12.936  0.3118  0.0422 -0.2658
15543W        W33067   5.290  16.028   3.736  0.1858 -0.0241 -0.0497
15544W        W33068  15.933  12.603  11.374  0.2797 -0.1116 -0.1834
15545W        W33069  13.699   5.514   3.692  0.0961  0.0370 -0.0298
15546W        W33070   9.722   4.870  12.576 -0.0833 -0.3098  0.2481
15547W        W33071  12.508  16.373  11.813  0.1171  0.0809  0.0912
15548W        W33072  13.744   7.157  15.261 -0.1488  0.0945  0.2501
15549W        W33073  12.796   1.714   5.160 -0.1036 -0.1150  0.1026
15550W        W33074  14.259   6.662  11.247  0.1901  0.0377 -0.0254
15551W        W33075  11.722   9.358   4.436 -0.0100  0.1601  0.3064
15552W        W33076  10.082   6.361   2.923 -0.0825 -0.1061  0.0586
15553W        W33077   7.036  14.294   1.713  0.2166  0.1199 -0.0705
15554W        W33078   9.019   2.570   0.686  0.0087  0.1440 -0.1668
15555W        W33079  16.800   0.599   1.664  0.0697  0.0389 -0.0334
15556W        W33080  14.338   2.823  13.761  0.4892  0.1515 -0.0389
15557W        W33081   6.669  11.803   0.805  0.2416 -0.2372 -0.1788
15558W        W33082   5.713  16.225   1.956 -0.0654 -0.0421 -0.2502
15559W        W33083   7.384   3.042   4.197  0.0247  0.0809 -0.1608
15560W        W33084   5.661  10.915  14.333 -0.1386 -0.0153 -0.3714
15561W        W33085   4.518   0.734  12.594 -0.2034  0.3703  0.3591
15562W        W33086   0.167  14.462  13.311  0.0512  0.2399  0.0406
15563W        W33087  11.810   8.387  13.336 -0.1889  0.0492 -0.0755
15564W        W33088  11.870   0.612   1.625  0.1471 -0.0891  0.1017
15565W        W33089   4.209   1.860  15.191  0.0793 -0.0781  0.1707
15566W        W33090   5.039   9.998   4.314  0.2887  0.0418  0.0191
15567W        W33091   8.285   0.235  15.878  0.0021 -0.1767 -0.1855
15568W        W33092   1.478  15.510  15.345 -0.0751 -0.2183 -0.3524
15569W        W33093   2.419   2.427   0.314  0.0643  0.2816 -0.2571
15570W        W33094   2.111   4.284   1.041 -0.0462 -0.1342  0.2261
15571W        W33095   6.620   4.165  15.266  0.0734  0.0555 -0.0301
15572W        W33096  12.225   7.318  11.943  0.1050 -0.0054 -0.1812
15573W        W33097  11.288   8.152  12.025 -0.1632  0.0265  0.0102
15574W        W33098   1.979   7.449   0.600 -0.1196 -0.1503  0.0493
15575W        W33099  11.388   4.725   3.140 -0.1250 -0.1064 -0.1840
15576W        W33100   8.855   9.831  14.638  0.2902  0.2039 -0.0770
15577W        W33101   7.506   7.476   0.294 -0.1782 -0.1593  0.1074
15578W        W33102  12.285   2.586   1.059 -0.0309 -0.5915  0.1114
15579W        W33103  17.172   6.996   5.427  0.0698  0.2997  0.0935
15580W        W33104  14.600   1.049  15.986  0.3713  0.1783 -0.1070
15581W        W33105   9.486  11.870   1.168 -0.0193  0.3008  0.1225
15582W        W33106   5.288   2.339   1.039  0.1389  0.1740 -0.0975
15583W        W33107  15.300   6.200   2.651  0.2210  0.0111  0.1163
15584W        W33108  12.399  10.425  11.329 -0.0648  0.0274 -0.0948
15585W        W33109  15.905  10.431  11.014  0.2931 -0.0293  0.2276
15586W        W33110   4.017   9.522  11.817  0.0018  0.0706 -0.1890
15587W        W33111   2.941  16.447  11.801  0.3873 -0.0633  0.2531
15588W        W33112  17.666   2.093   1.991 -0.1255 -0.1209  0.0244
15589W        W33113  15.959  14.946  15.078  0.3224 -0.0456  0.2308
15590W        W33114  17.590   8.016   5.031 -0.1621 -0.0441 -0.0701
15591W        W33115  13.564   8.821  13.101  0.2135  0.1356  0.0951
15592W        W33116  10.141  10.231   5.299  0.0158 -0.0260 -0.1901
15593W        W33117   5.116   9.404  10.855 -0.0435 -0.0334 -0.0213
15594W        W33118   4.874   1.694  11.270  0.0699 -0.1820  0.2598
15595W        W33119  10.747  14.645   0.664  0.2050  0.0104  0.1875
15596W        W33120  12.498   6.055  12.721  0.0650 -0.0706 -0.5093
15597W        W33121   3.349   1.800   1.063  0.1068  0.0384  0.0525
15598W        W33122   8.369  10.718  12.356 -0.1532  0.0189  0.1371
15599W        W33123   6.517   9.044  11.878  0.2525  0.2582  0.1561
15600W        W33124   8.003  11.480   2.354  0.0726  0.1212 -0.2920
15601W        W33125  12.361  14.317  12.725  0.3257 -0.0432 -0.0215
15602W        W33126   2.542   1.860   4.568  0.0331 -0.0646 -0.0448
15603W        W33127   3.405   9.443  16.179  0.0122  0.0947 -0.0590
15604W        W33128  10.081   9.582   2.061 -0.0931  0.0625 -0.1069
15605W        W33129   1.789  15.244   3.014  0.1603  0.0484 -0.1310
15606W        W33130  13.767  15.203   2.507  0.0970  0.0611  0.1686
15607W        W33131   9.095  11.441  12.423 -0.0010  0.1039 -0.0675
15608W        W33132   0.767   2.052  15.137 -0.2805  0.1298 -0.0477
15609W        W33133   2.263   3.072   2.346 -0.2152  0.0701 -0.1128
15610W        W33134  13.172   7.320   0.038 -0.4228 -0.1393  0.1374
15611W        W33135   6.820  17.814   3.536  0.1042  0.1593 -0.0128
15612W        W33136   2.701  13.117  10.668 -0.0472  0.1480 -0.2303
15613W        W33137  15.558  15.173  11.259 -0.3416  0.0668  0.0258
15614W        W33138   9.702   2.031  13.670  0.0709  0.4667  0.0428
15615W        W33139   2.586   0.626  16.104 -0.2165  0.0221 -0.1669
15616W        W33140   5.707  11.886   4.267  0.3523 -0.0184  0.0438
15617W        W33141   9.747  14.010   6.435 -0.5876 -0.1929 -0.1303
15618W        W33142   1.973  12.550   3.996  0.0715 -0.0844 -0.0258
15619W        W33143   0.311   7.105  13.584  0.1729  0.2071  0.3228
15620W        W33144   1.559  16.946   3.059  0.1090  0.2369 -0.0204
15621W        W33145   6.639   6.958  15.739  0.1453  0.1584  0.3268
15622W        W33146  13.596  15.631  15.842 -0.0116 -0.1700 -0.0454
15623W        W33147   5.854  17.771  13.316 -0.0936 -0.2722 -0.0992
15624W        W33148   6.255  13.006  11.090  0.3527  0.2149  0.2173
15625W        W33149   0.324  14.760  11.576 -0.1768 -0.1863 -0.1594
15626W        W33150   0.863  17.408   3.394  0.4489  0.0526 -0.0352
15627W        W33151   6.472  10.643  13.677 -0.2207  0.0419  0.0579
15628W        W33152   8.759  15.701   1.193 -0.0841  0.0019  0.0031
15629W        W33153  16.560  14.555  10.376 -0.2227 -0.0809 -0.2993
15630W        W33154  10.946   2.770  15.214  0.2990 -0.1697 -0.3769
15631W        W33155   1.753  17.059  14.338  0.1644 -0.1605  0.0792
15632W        W33156  12.198  15.788  14.218 -0.0512 -0.0769  0.2583
15633W        W33157  13.631  11.001  15.004 -0.2955  0.1049  0.1409
15634W        W33158   5.425  16.925  15.582 -0.0669 -0.1599 -0.0673
15635W        W33159  13.330  12.645  15.318 -0.2062 -0.0350  0.1112
15636W        W33160   7.061  12.015  10.874  0.0374  0.1604 -0.0858
15637W        W33161  11.769   2.590  12.320  0.0738 -0.2812 -0.3583
15638W        W33162   8.678  11.398  11.561  0.2687  0.0885  0.1069
15639W        W33163  10.531  12.461   5.273  0.0345  0.1510  0.2356
15640W        W33164   0.210   3.322  14.646 -0.1262 -0.2615  0.1144
15641W        W33165   0.876   7.693  13.656  0.0753  0.0122  0.2806
15642W        W33166  16.014   3.536  14.052 -0.3189 -0.0458 -0.3147
15643W        W33167   7.245  11.382  12.224 -0.1681  0.0518  0.0911
15644W        W33168   3.471  12.885  15.065  0.0209 -0.0299 -0.0393
15645W        W33169   6.168   6.853   4.222  0.1500 -0.2537  0.0596
15646W        W33170  15.938  10.386  14.626 -0.0633  0.1303  0.3342
15647W        W33171   5.261  14.037  12.415  0.0237  0.1712 -0.3324
15648W        W33172   4.064  13.660  14.434 -0.1377  0.0046 -0.2443
15649W        W33173   0.802   2.728  15.274 -0.0318 -0.1421  0.2755
15650W        W33174   9.092  15.282   4.775  0.0627  0.1761 -0.0007
15651W        W33175  11.698  10.082  11.730 -0.0818 -0.1381  0.1478
15652W        W33176   0.974   2.296   3.737  0.3343  0.3134 -0.0003
15653W        W33177   9.323  15.695   0.027  0.2421 -0.1002  0.2696
15654W        W33178  14.818   5.493   3.029  0.0931 -0.1673 -0.1318
15655W        W33179   8.381  12.577  11.452  0.0342 -0.3310 -0.0761
15656W        W33180   4.355  13.868  12.348  0.1620  0.0985 -0.1529
15657W        W33181  17.081  13.347   1.052 -0.1251  0.0292  0.1469
15658W        W33182  11.748  10.565  13.654 -0.2692 -0.0377  0.3437
15659W        W33183   4.966   4.564  13.117  0.2638  0.1420 -0.0325
15660W        W33184  10.521  13.234  12.249 -0.1360  0.2929 -0.3518
15661W        W33185  16.889   2.148   4.274  0.3090  0.0956 -0.0095
15662W        W33186  15.667   8.182  11.968  0.1322  0.0836 -0.0804
15663W        W33187   7.310   7.539   4.168 -0.0933 -0.0736  0.0321
15664W        W33188   1.349   1.799   3.139  0.0228 -0.1216 -0.1238
15665W        W33189   9.980  15.288   1.795 -0.0646 -0.1232 -0.1239
15666W        W33190   3.390   5.242  15.000 -0.0099  0.0670  0.0147
15667W        W33191  11.134  15.935   9.973 -0.0666 -0.2050  0.0443
15668W        W33192   7.235   7.836  11.603 -0.1914 -0.0710 -0.0733
15669W        W33193  17.813   6.022  14.392  0.1796  0.0806  0.0801
15670W        W33194  12.656  12.192   4.179 -0.0788  0.2288 -0.0556
15671W        W33195  11.424  14.363   4.656 -0.2022 -0.1679  0.1979
15672W        W33196   8.519   9.051   1.992 -0.0385  0.3290  0.1394
15673W        W33197   9.662   8.371  15.204  0.1964 -0.0393  0.0913
15674W        W33198   2.094   1.122   4.224  0.1017 -0.0127 -0.0247
15675W        W33199   8.840  14.493  14.022  0.0557 -0.0777 -0.0268
15676W        W33200  16.622   0.859   2.683  0.1054 -0.2010 -0.2369
15677W        W33201   0.265   8.946   3.596  0.1705  0.0786  0.0813
15678W        W33202  13.788   7.417   1.585  0.0475  0.0699  0.0005
15679W        W33203   0.500  12.551  12.359 -0.0997  0.1719 -0.0001
15680W        W33204   6.062   3.776   3.184 -0.2432  0.2148 -0.1042
15681W        W33205   4.276  12.197   1.958 -0.1991 -0.1764  0.0059
15682W        W33206   9.620  16.550   2.403  0.0708  0.0135 -0.1019
15683W        W33207   1.679  14.617  14.228  0.2557  0.3156  0.1107
15684W        W33208  12.513   6.178  12.276 -0.0266  0.2625  0.0578
15685W        W33209   5.364   3.562   2.552 -0.0040 -0.0975  0.0587
15686W        W33210   9.361  14.021   1.479 -0.0375 -0.4686  0.1016
15687W        W33211  10.787   0.983   3.711  0.0315  0.0896  0.3695
15688W        W33212  14.019   6.373   2.717  0.0167  0.0143 -0.1656
15689W        W33213   6.362   0.062   3.272  0.2395 -0.1411  0.2744
15690W        W33214  15.156  14.968  12.369 -0.0595  0.5021 -0.3046
15691W        W33215  13.325  16.673   1.104  0.1604 -0.1497 -0.1084
15692W        W33216   6.370   3.913  15.831  0.0968 -0.0655  0.0474
15693W        W33217   0.939   3.036  13.201  0.1323 -0.0214  0.1718
15694W        W33218  12.846   9.528  12.995 -0.2479 -0.1928 -0.0700
15695W        W33219  13.397   1.375  12.389  0.0321  0.0343  0.1035
15696W        W33220  14.426   7.205   2.227  0.2031 -0.3154 -0.0431
15697W        W33221  17.841   8.843  13.620  0.1478 -0.0298 -0.0642
15698W        W33222  15.860   7.831  15.133 -0.1118  0.0820  0.1228
15699W        W33223  11.340   4.940  13.548 -0.0002 -0.1330 -0.0054
15700W        W33224  17.296   4.638  11.357 -0.4810  0.0038  0.3933
15701W        W33225   3.375  15.425   2.131 -0.1562  0.4019 -0.1105
15702W        W33226  13.000   3.688  15.191 -0.1643  0.0751 -0.1073
15703W        W33227  17.240   0.116  15.494  0.1935  0.1566  0.0495
15704W        W33228  10.619   9.382   4.323  0.0342  0.0185 -0.2393
15705W        W33229   9.633  17.628  12.244  0.0143 -0.0117 -0.2301
15706W        W33230  10.603   4.209  11.588  0.2390  0.2009 -0.1243
15707W        W33231  12.045  12.434   0.338 -0.1650  0.0082  0.2325
15708W        W33232   0.893   6.098  15.763  0.0443  0.3244 -0.2316
15709W        W33233   7.048   7.298  15.540  0.2607  0.2970  0.2088
15710W        W33234  17.077   5.094  11.408  0.0054  0.1768  0.1543
15711W        W33235   3.776   2.479   2.572 -0.3511  0.0089  0.0277
15712W        W33236   6.007  10.936  15.620  0.4091  0.4476  0.1633
15713W        W33237  15.841   9.457  12.819 -0.0256 -0.0303 -0.0423
15714W        W33238  13.480  13.308   4.775 -0.0461  0.0674  0.0264
15715W        W33239   7.880  15.874  12.272 -0.1310  0.2599  0.1311
15716W        W33240  17.173   8.176  14.406  0.0946  0.0023  0.1554
15717W        W33241   4.665   3.970  12.133  0.0240 -0.0111  0.0269
15718W        W33242   7.868   9.623  14.135  0.2776 -0.1955  0.1598
15719W        W33243   1.985  16.926   3.438  0.1292  0.0316 -0.0041
15720W        W33244  15.918  11.178   0.246 -0.0587  0.0389 -0.1603
15721W        W33245  12.114   2.280  10.954  0.0155  0.1859  0.3334
15722W        W33246  10.297   5.878  15.449 -0.2924 -0.0498  0.1262
15723W        W33247  15.160   2.717   3.997 -0.0050  0.3415  0.1020
15724W        W33248  10.663   7.100   1.901  0.0921 -0.0513 -0.0556
15725W        W33249   0.567  16.331   2.490  0.0789 -0.0778  0.0065
15726W        W33250   7.334  11.227  15.820  0.3018 -0.1320  0.0405
15727W        W33251   3.239   9.321   2.072 -0.3658  0.0271  0.1142
15728W        W33252   7.162  13.357  11.420 -0.0048  0.0453  0.1779
15729W        W33253   5.648   5.875  13.592 -0.0247  0.0295 -0.0742
15730W        W33254   8.838  13.034   2.558  0.0645 -0.1331 -0.4038
15731W        W33255   7.417   5.200   2.591 -0.0995  0.4357  0.1000
15732W        W33256  13.064   0.417   0.320 -0.4322  0.0409 -0.1524
15733W        W33257  17.743  17.716  11.921  0.1497  0.0099 -0.0584
15734W        W33258  14.388   6.615   3.939  0.1352 -0.0499 -0.0834
15735W        W33259  13.802  13.704   2.729  0.1958 -0.0394 -0.0476
15736W        W33260  14.303   0.230   2.732  0.1432 -0.2331 -0.0480
15737W        W33261  12.810   3.290  16.201 -0.1308 -0.3338 -0.0329
15738W        W33262  15.593   5.178   1.538 -0.0436  0.1208 -0.3717
15739W        W33263  12.461   7.034  15.641 -0.1096  0.0809  0.1507
15740W        W33264  13.216   4.596   3.306  0.2636 -0.1033 -0.0867
15741W        W33265   8.817   0.637   4.497  0.0780  0.1307  0.1225
15742W        W33266   6.033   9.338  15.683 -0.1307  0.2149 -0.0474
15743W        W33267  15.739   6.293   2.413 -0.2970 -0.1096 -0.1063
15744W        W33268  13.131   1.191   1.944 -0.1148  0.0760  0.2946
15745W        W33269   9.064  10.705   5.484 -0.3266  0.0414  0.0254
15746W        W33270  14.549  15.644  12.726  0.1216 -0.1423  0.2342
15747W        W33271   8.678   8.056  15.187  0.0199 -0.0295 -0.2207
15748W        W33272  16.099   6.737   4.058 -0.0199 -0.1465  0.0882
15749W        W33273  12.260   3.893  14.686 -0.1984 -0.0053 -0.0300
15750W        W33274   4.939  13.141  12.595  0.1534 -0.2719 -0.1071
15751W        W33275   0.530   6.047   1.426 -0.2831 -0.0790 -0.0842
15752W        W33276  13.558   0.760  15.748  0.0837 -0.1591 -0.1893
15753W        W33277  17.132   5.548   0.191 -0.1798 -0.2522  0.2133
15754W        W33278   7.114  16.221  13.586 -0.0048 -0.1825  0.1482
15755W        W33279   9.390   1.407  11.869 -0.3373 -0.0500 -0.1964
15756W        W33280  10.262  13.953  11.953 -0.0967 -0.0209 -0.1966
15757W        W33281   1.737   7.587  15.094  0.0296 -0.0046 -0.2025
15758W        W33282   7.174  15.723   2.897 -0.0401  0.0886 -0.0504
15759W        W33283   4.053   9.738  12.359 -0.0860 -0.2277  0.0357
15760W        W33284   2.798   5.989   2.630  0.3328  0.1530 -0.1350
15761W        W33285   8.389   9.161   0.631  0.1983 -0.2078  0.2866
15762W        W33286   0.517  11.391   4.244  0.3178 -0.2807 -0.3258
15763W        W33287  13.129   9.227   1.129 -0.1834 -0.1046  0.0568
15764W        W33288   4.204   8.014  16.004  0.0736  0.0225  0.2119
15765W        W33289  14.973   1.313  11.719  0.1607  0.0436  0.0070
15766W        W33290  10.457   3.810  11.883  0.0933 -0.0123 -0.0169
15767W        W33291   9.758   7.658  12.255 -0.0366 -0.1620 -0.0095
15768W        W33292   8.226   8.225   0.174 -0.0716 -0.1695  0.0445
15769W        W33293   3.616   0.296  15.408 -0.2352 -0.3516 -0.1407
15770W        W33294   2.258  14.870   3.896 -0.0404  0.0272  0.1091
15771W        W33295  11.739   2.891  11.487 -0.1697 -0.0544 -0.1775
15772W        W33296   6.835  15.195  11.834 -0.0772 -0.1506 -0.0947
15773W        W33297  14.946   8.067   4.095  0.2380  0.2759  0.1549
15774W        W33298  12.182  13.863  14.253  0.1847  0.1212  0.2078
15775W        W33299  15.371   9.661  14.288 -0.0846 -0.0397  0.2020
15776W        W33300   3.343  13.263   3.716 -0.0745  0.0973 -0.2291
15777W        W33301   2.741   8.473  14.496  0.0186  0.0809  0.0390
15778W        W33302  11.413   8.250   0.595 -0.2472 -0.2161 -0.0524
15779W        W33303   3.388   4.720   0.467 -0.0347  0.0654  0.2893
15780W        W33304   9.228   4.808  10.841 -0.1682 -0.1171 -0.0220
15781W        W33305   9.687   8.506  14.718  0.1216  0.2806 -0.0987
15782W        W33306   9.202  14.853  14.040 -0.1107 -0.0691 -0.0668
15783W        W33307   7.550   8.528   1.586  0.0253  0.0183  0.1349
15784W        W33308   4.916  17.708   1.018  0.0037 -0.1765  0.1318
15785W        W33309   0.790  11.440  13.900 -0.0072 -0.1161 -0.2781
15786W        W33310  17.711   0.803  12.572 -0.1395  0.1352 -0.2297
15787W        W33311  12.359   6.625   0.052  0.1770 -0.1530  0.0566
15788W        W33312  16.998   9.582  15.672  0.0358  0.1478  0.1159
15789W        W33313   1.300   8.596   1.242  0.4760  0.1540 -0.0035
15790W        W33314  11.444  11.099  14.835 -0.1437  0.0915 -0.2158
15791W        W33315   0.590   6.314   4.732  0.0212  0.1243  0.3496
15792W        W33316   5.436  17.006  15.089 -0.0718  0.1585 -0.3017
15793W        W33317  17.114   7.502   3.518  0.4559  0.0516  0.1049
15794W        W33318   8.756   1.539   1.431 -0.0159  0.3424  0.2003
15795W        W33319  16.395   4.393  13.337  0.0462 -0.0093 -0.1105
15796W        W33320  11.277  13.698  14.620  0.0279 -0.0299  0.1242
15797W        W33321  10.408   7.233   2.298  0.0535  0.0300  0.0461
15798W        W33322   1.948   8.474   1.840  0.4183 -0.2756  0.1933
15799W        W33323   6.801   2.503   4.978  0.1965 -0.3163 -0.1706
15800W        W33324   0.413   0.830  10.752  0.2937 -0.0524 -0.1547
15801W        W33325   6.083   4.187  14.923  0.1050  0.0433 -0.0755
15802W        W33326   2.773  17.795   3.880  0.0390  0.3015  0.2676
15803W        W33327  11.555   3.325  13.796  0.1211 -0.2101  0.0582
15804W        W33328   8.291   8.708   2.305  0.1490  0.1645  0.2991
15805W        W33329  15.899   9.027  13.724  0.0089 -0.0668  0.2061
15806W        W33330   5.302  15.554   1.365  0.0218  0.2478  0.0489
15807W        W33331   2.874   2.914   3.707  0.0704 -0.1277  0.0963
15808W        W33332  17.551  16.186  13.479  0.1113  0.2728  0.0867
15809W        W33333  10.554   7.617   1.178  0.1400  0.2572  0.1522
15810W        W33334   4.166  17.881   2.784 -0.3312 -0.2764  0.1052
15811W        W33335  17.118   6.578   1.788  0.3226 -0.1776  0.1335
15812W        W33336   3.571   9.938  14.805 -0.1948 -0.3212  0.2536
15813W        W33337  10.049  16.155   2.394  0.0243  0.3613  0.1431
15814W        W33338   4.481   0.719   1.390 -0.2798  0.0664  0.3188
15815W        W33339  17.042   9.448  13.700 -0.3219  0.3129 -0.0726
15816W        W33340  14.911  10.685  16.243  0.2617 -0.4418  0.2627
15817W        W33341   9.795  14.221  12.037 -0.0839 -0.0769  0.0961
15818W        W33342  10.996  17.146   3.794  0.0623 -0.0984  0.0980
15819W        W33343  15.883   4.255  13.995 -0.6156  0.0067 -0.0216
15820W        W33344  10.185  11.492   3.689 -0.0313 -0.6486  0.1025
15821W        W33345   7.173  12.064   1.594  0.0256 -0.1338 -0.1602
15822W        W33346   4.704   3.857   1.112  0.0232  0.0696 -0.0855
15823W        W33347  13.732   2.647  11.461 -0.0748 -0.3359  0.0180
15824W        W33348   6.364   5.871   2.109  0.2939  0.1116  0.0589
15825W        W33349   7.544   2.895   3.651 -0.1200  0.0743 -0.0050
15826W        W33350  14.751  14.972  14.505 -0.0459  0.0835 -0.0100
15827W        W33351   4.157   5.526   1.924 -0.1091 -0.0241 -0.1084
15828W        W33352   7.756   7.139   2.775 -0.0685 -0.1346  0.0566
15829W        W33353  13.203   9.652   2.654 -0.1401 -0.0441 -0.1325
15830W        W33354  13.323   8.150   4.936  0.0492  0.2660  0.0557
15831W        W33355  10.430  10.682  13.284  0.1106 -0.1523  0.2690
15832W        W33356  13.236   2.695   3.035 -0.0396 -0.0386 -0.0930
15833W        W33357   8.607   9.071   3.535  0.1175  0.2068 -0.0329
15834W        W33358  10.855  15.110  11.349  0.1276 -0.0294  0.1603
15835W        W33359  10.470   0.638   3.541 -0.3000  0.0815  0.3578
15836W        W33360  17.573  13.152   2.923 -0.0341  0.1465  0.0271
15837W        W33361  14.267   0.560  15.179  0.0282  0.1193  0.5366
15838W        W33362   5.471   7.637   5.420 -0.3129 -0.0720 -0.0847
15839W        W33363   4.670  14.996   4.751  0.2905  0.1497  0.0043
15840W        W33364  10.865   4.106  12.124  0.1907  0.2694  0.0410
15841W        W33365  16.606   5.859  14.395 -0.1172  0.0781 -0.0007
15842W        W33366   7.695   2.530   0.373  0.0096  0.3232  0.0535
15843W        W33367   2.720   5.472   3.367  0.4349 -0.1219 -0.1248
15844W        W33368   9.449  14.585   3.429  0.0769 -0.1025 -0.0445
15845W        W33369  10.777  15.674   2.314  0.5317  0.1638 -0.0015
15846W        W33370   4.529  11.124   4.941 -0.1512 -0.1800 -0.1932
15847W        W33371   5.982   1.314  15.053 -0.1116  0.1702  0.4141
15848W        W33372   8.397   6.290  14.698  0.0135 -0.1495 -0.0006
15849W        W33373   4.043   2.720  11.668 -0.4698  0.3579  0.1978
15850W        W33374   8.154   4.495   0.056 -0.2023 -0.2087 -0.2280
15851W        W33375  15.215   7.312   3.090  0.2957 -0.1994  0.0370
15852W        W33376   3.138   2.372   5.417  0.1676 -0.0110 -0.2513
15853W        W33377   2.386   3.036   0.823  0.1515 -0.2390  0.1164
15854W        W33378   8.969   0.539  15.503  0.2803  0.2070 -0.0774
15855W        W33379   5.296   5.374  13.258  0.2260  0.0470  0.2174
15856W        W33380   4.817  12.789   0.186 -0.0141  0.2813 -0.1415
15857W        W33381  14.599   0.577  13.595 -0.0337 -0.0276  0.0816
15858W        W33382   4.690   1.400   2.382  0.0466  0.1789 -0.1733
15859W        W33383   1.580   1.985   0.521 -0.2742  0.1661 -0.1370
15860W        W33384  15.107  14.992  13.004 -0.0878  0.3031  0.2198
15861W        W33385  10.104   5.843  13.656 -0.1119 -0.1197  0.1526
15862W        W33386   3.063   5.758  12.402  0.3412 -0.2013 -0.1987
15863W        W33387  15.577  13.022   3.371 -0.0823  0.0171 -0.0444
15864W        W33388   3.047  17.127  14.376  0.0366  0.1465 -0.2222
15865W        W33389   7.369   5.906  12.610  0.0143 -0.0730 -0.2330
15866W        W33390   2.547  11.506  14.475  0.1921  0.1200 -0.3415
15867W        W33391  10.649  16.882   0.484 -0.2362 -0.0625  0.1016
15868W        W33392   7.240  11.142   6.426 -0.1348  0.1576 -0.0676
15869W        W33393  14.875   9.150   4.360 -0.0957 -0.3459 -0.1415
15870W        W33394  10.245   6.173  10.358 -0.0084  0.3402  0.0827
15871W        W33395   2.186   0.259   0.756  0.1474  0.1466  0.1510
15872W        W33396   7.373  16.189   3.212 -0.0367  0.2148  0.0012
15873W        W33397  14.457  12.049   0.344  0.0771  0.0118 -0.1690
15874W        W33398   5.233   9.322  16.198  0.2593 -0.3742  0.3828
15875W        W33399  14.040   6.352  15.785  0.2174  0.3412 -0.0655
15876W        W33400  15.588   9.397   0.143  0.3522 -0.2119 -0.0388
15877W        W33401   2.388  14.396   1.952  0.0736  0.4739 -0.1594
15878W        W33402  16.549   2.068  11.921  0.1881  0.0458  0.1111
15879W        W33403   7.186   5.293   1.069  0.0110  0.0291  0.1108
15880W        W33404  12.333  11.487   2.143 -0.0303 -0.1464 -0.0240
15881W        W33405   7.029   5.087   1.594 -0.1410 -0.1179  0.2443
15882W        W33406  12.354  16.105  12.210  0.1069 -0.1746  0.0776
15883W        W33407   6.423   8.909  14.658 -0.2146  0.0160  0.1717
15884W        W33408   2.019   1.884   4.772  0.1915  0.0638  0.1606
15885W        W33409  12.268   6.969   4.665  0.0015 -0.0453  0.2887
15886W        W33410  15.355   2.930  13.859 -0.1355  0.0902 -0.1229
15887W        W33411  15.178   7.113   4.295  0.4547  0.0446  0.0382
15888W        W33412  10.270  13.042   4.560  0.1818 -0.1471 -0.0603
15889W        W33413   8.759   3.202   4.707 -0.2561 -0.1136 -0.0998
15890W        W33414   1.706   9.408   3.637  0.1089 -0.0620  0.3195
15891W        W33415   4.106   1.367   1.992  0.2443  0.0453  0.0148
15892W        W33416   6.395   4.624   3.388  0.0713  0.0888  0.1119
15893W        W33417  12.368  16.456   4.805  0.2501  0.1018  0.0120
15894W        W33418  17.272   7.051   2.255  0.2811 -0.1534  0.0284
15895W        W33419  12.621  14.830   2.420 -0.0320 -0.0928  0.1015
15896W        W33420  14.163   1.376  10.573  0.1021 -0.0842  0.3164
15897W        W33421   1.097   3.122   0.606 -0.1798 -0.1647 -0.0920
15898W        W33422   1.238   5.574  10.804  0.0197 -0.3104  0.0939
15899W        W33423   2.310   4.373  13.362 -0.0594 -0.1034  0.0782
15900W        W33424  12.668   0.517   4.712  0.3215  0.0546 -0.1475
15901W        W33425  13.834   3.941  14.308 -0.0737  0.2457  0.0489
15902W        W33426   6.123   6.636   0.751  0.0365 -0.0398  0.0988
15903W        W33427  16.286  13.497  11.000  0.0152 -0.0263  0.2511
15904W        W33428   9.493   5.847  15.533 -0.1287  0.0242 -0.0607
15905W        W33429   3.555   8.441  13.354 -0.2412 -0.1709 -0.0769
15906W        W33430  11.613  13.704  12.852 -0.1831  0.0674 -0.1304
15907W        W33431  12.382   6.141  15.047 -0.1365  0.2988  0.2546
15908W        W33432  11.862   9.840   5.194  0.2655  0.2383  0.4214
15909W        W33433  16.219  17.544   0.093 -0.0725  0.1363  0.1705
15910W        W33434  10.996  12.203   2.846  0.3681  0.0847  0.1827
15911W        W33435  10.032  13.320  12.938 -0.0458 -0.0322  0.2184
15912W        W33436   0.622   0.067  11.438 -0.0983  0.0820 -0.3557
15913W        W33437  11.071   2.312   2.548  0.0466 -0.2309 -0.3039
15914W        W33438   2.085  17.044  11.985  0.1328  0.1820  0.0966
15915W        W33439   0.175  12.815   4.588  0.2121 -0.0178  0.0166
15916W        W33440  14.042   5.123  15.889  0.0400 -0.1735 -0.0678
15917W        W33441   8.751  11.375   0.161  0.1764 -0.0471  0.0014
15918W        W33442  16.272   5.484  14.074  0.2082 -0.2578  0.2276
15919W        W33443   0.756   8.859   4.746  0.0134 -0.0760  0.0504
15920W        W33444   0.531  12.997  14.248 -0.1828 -0.0998 -0.2908
15921W        W33445   8.000  13.338   4.530  0.0518  0.2541  0.0857
15922W        W33446   3.762   1.247   1.564 -0.3905 -0.1746 -0.0429
15923W        W33447  10.051   2.505  12.523  0.1564  0.3804 -0.0140
15924W        W33448  16.049  12.074   3.116 -0.1067  0.1733 -0.0014
15925W        W33449  14.053  15.524  15.643 -0.1279 -0.1415  0.1500
15926W        W33450  10.471   5.094  15.560  0.1049 -0.2672 -0.0959
15927W        W33451  10.484   1.112  15.554 -0.2213  0.1907  0.4285
15928W        W33452  13.799   8.370  13.441  0.1537 -0.1356 -0.0320
15929W        W33453   1.288   9.241   2.511  0.2873 -0.0903  0.1846
15930W        W33454  11.814  13.367  12.554  0.1649 -0.2951 -0.0686
15931W        W33455   8.299   4.935   1.316  0.2823 -0.1168 -0.0505
15932W        W33456   1.358   5.196   1.010  0.2252 -0.1859  0.1117
15933W        W33457  11.265   0.681   0.433 -0.0985 -0.1633  0.0501
15934W        W33458   0.817   6.698  11.811 -0.0569  0.0084 -0.0826
15935W        W33459   3.801  12.006   5.357 -0.2742 -0.0462 -0.1544
15936W        W33460   1.670  12.478  13.630 -0.2274 -0.1537  0.0292
15937W        W33461  12.440  16.692  11.475 -0.1542 -0.1831  0.2922
15938W        W33462   0.267  14.990   0.960 -0.0405  0.0517  0.2267
15939W        W33463   6.762   0.687   3.252 -0.3475  0.3444 -0.1443
15940W        W33464  15.127   7.886  12.640 -0.0312  0.0253  0.0068
15941W        W33465   4.944  11.211   4.349 -0.0832 -0.1242  0.1102
15942W        W33466  14.089   8.110   2.239 -0.1624 -0.0935  0.0427
15943W        W33467   7.730   2.852  15.245 -0.3029  0.0216 -0.0557
15944W        W33468   3.354  14.746   4.761  0.1338 -0.0983  0.0026
15945W        W33469  14.590   9.609  11.466 -0.0406  0.2600  0.1826
15946W        W33470   1.259  11.190  12.044  0.0939 -0.1706  0.1024
15947W        W33471   7.398  15.208  15.572  0.0056 -0.0243 -0.0086
15948W        W33472   2.765   7.033  11.428  0.1374 -0.1880 -0.0956
15949W        W33473  14.888   1.048   4.477 -0.1775  0.1136  0.1451
15950W        W33474   6.789   4.762   3.684 -0.0953  0.1433  0.2385
15951W        W33475   7.594   7.117   0.571 -0.0140 -0.1195  0.2798
15952W        W33476  17.239   2.285   3.431  0.0062  0.0737  0.2527
15953W        W33477   0.997   8.271  11.653  0.1656  0.4641  0.0435
15954W        W33478   6.414  12.206   3.695 -0.1679 -0.0987 -0.0269
15955W        W33479   0.082   7.550   2.295  0.3864  0.1106 -0.2448
15956W        W33480   0.035  13.063  14.143 -0.0239  0.3684  0.0384
15957W        W33481   8.759  15.489   5.119 -0.1774 -0.0388 -0.1768
15958W        W33482   6.334   8.556   3.886  0.0475  0.2777  0.0193
15959W        W33483   3.169   8.363   3.866  0.3100 -0.2018 -0.1231
15960W        W33484   9.050  16.195   1.076 -0.1457  0.0774 -0.1060
15961W        W33485  10.207   6.303  15.155  0.1243 -0.1325  0.2087
15962W        W33486  11.536   2.166  13.701 -0.0066 -0.0495  0.3219
15963W        W33487   5.449   0.994  14.360 -0.0917 -0.0524  0.0570
15964W        W33488   0.617  10.761   1.619  0.3021  0.0645  0.0476
15965W        W33489   6.229  14.863   0.590  0.2623  0.0763  0.3329
15966W        W33490  13.715   7.467  14.299  0.1149  0.3134 -0.2218
15967W        W33491   8.733  12.874   3.992 -0.1420 -0.0415 -0.0861
15968W        W33492   4.162  15.663  15.579  0.0407  0.0983 -0.1170
15969W        W33493   8.547   0.659   4.942  0.3215 -0.1309 -0.0497
15970W        W33494   8.765  12.324   1.702 -0.0956 -0.2032  0.3381
15971W        W33495  17.158   6.649   4.453  0.2908  0.0553  0.0433
15972W        W33496   0.138   3.250   2.820  0.0865  0.0505  0.0218
15973W        W33497   4.565   7.902   2.974  0.0792 -0.0749 -0.0522
15974W        W33498  13.000  13.522   3.946 -0.3397  0.2321 -0.0004
15975W        W33499  16.521  14.852  13.985  0.1582  0.0899 -0.1870
15976W        W33500   8.934  13.497  13.477  0.3736 -0.0481 -0.1257
15977W        W33501   4.637   5.968  15.496 -0.0569  0.2241  0.3275
15978W        W33502   1.095  12.666  13.188 -0.0346 -0.1497 -0.0728
15979W        W33503   3.230  13.556   1.110  0.2444  0.0425  0.0312
15980W        W33504   4.075   0.276  12.809  0.0366  0.3190 -0.0018
15981W        W33505  12.776   0.539  11.845  0.1646  0.2575  0.0177
15982W        W33506   3.104   5.004   4.490 -0.0890  0.1225 -0.0321
15983W        W33507   2.634   0.959  11.762  0.0905 -0.3310  0.2655
15984W        W33508  15.269   5.395   5.053 -0.1496 -0.1582  0.0825
15985W        W33509   8.292  14.693   5.128 -0.0841 -0.2145 -0.1732
15986W        W33510   0.240   2.342   3.586 -0.0550  0.2092 -0.1039
15987W        W33511   3.729   1.014   2.048  0.1631 -0.1167 -0.1086
15988W        W33512   9.217  10.211   0.173 -0.1307  0.1083 -0.0945
15989W        W33513   9.576   0.613  12.544 -0.3644 -0.1218  0.3135
15990W        W33514   9.947   5.605   0.977 -0.0269  0.2939 -0.0488
15991W        W33515  10.189  10.655   2.967  0.2720  0.0163  0.5290
15992W        W33516  16.113   5.540   5.942  0.2719  0.1872 -0.0490
15993W        W33517   6.702   9.930   2.037  0.0208  0.1040 -0.0203
15994W        W33518   6.458   5.967  11.725 -0.1244  0.0052 -0.1255
15995W        W33519  13.700   8.485   1.024 -0.0312 -0.2850 -0.0130
15996W        W33520  16.385   8.321   3.647 -0.2971  0.0214 -0.1133
15997W        W33521  13.640   4.397  11.567 -0.0625 -0.0061 -0.1360
15998W        W33522   0.533   0.057   2.577  0.2497  0.1000  0.1234
15999W        W33523   5.126   0.121   4.334  0.0294 -0.1160 -0.1465
16000W        W33524   6.307   7.579   2.938 -0.2581  0.0710  0.5799
16001W        W33525   3.743   1.320   1.018  0.0539  0.0752 -0.1653
16002W        W33526  13.242  13.944   2.734  0.0291  0.0746 -0.0291
16003W        W33527   9.774   6.660  12.411  0.0407  0.0662 -0.1831
16004W        W33528   3.431  12.878  12.635  0.0190  0.1762 -0.0629
16005W        W33529   5.682   9.497  15.387  0.1463  0.0840  0.2103
16006W        W33530  11.435  17.732  11.780  0.1837  0.0781 -0.2575
16007W        W33531  11.676  15.804   5.255 -0.1640  0.2880 -0.1505
16008W        W33532  17.008   8.310   0.060  0.0028 -0.1798  0.0593
16009W        W33533   0.542   5.878   0.946  0.1375  0.1613 -0.2472
16010W        W33534  14.521   9.278   3.548 -0.0506 -0.1050 -0.0033
16011W        W33535   9.347  16.912   0.851  0.2135 -0.1026 -0.0627
16012W        W33536  11.676   2.959   3.358  0.1743 -0.3048 -0.1430
16013W        W33537   4.289   0.703  14.437 -0.4229  0.0195 -0.0364
16014W        W33538  13.763  12.528  12.841 -0.2390 -0.3106  0.1640
16015W        W33539   6.026  17.745   0.955 -0.0130 -0.2065 -0.1309
16016W        W33540  10.771  11.923   3.216 -0.1254  0.1081  0.2859
16017W        W33541   4.155   4.885  14.581 -0.2357  0.1938 -0.1273
16018W        W33542   7.168  17.245  15.515  0.3274  0.0502  0.3017
16019W        W33543  10.848  12.586   3.932  0.1646 -0.0617 -0.1725
16020W        W33544  10.244   0.454  11.380 -0.2584  0.0231  0.1375
16021W        W33545   1.730   6.681   2.562  0.2046 -0.2047  0.0769
16022W        W33546   3.102   2.296  15.036  0.2062 -0.0465  0.1251
16023W        W33547   6.610  17.360   2.030  0.1031 -0.2382  0.3857
16024W        W33548  12.853  16.368  13.715 -0.1209  0.1372  0.0536
16025W        W33549   1.034   5.889   0.751  0.1152 -0.0078  0.3109
16026W        W33550   8.624  13.732   5.041  0.2480 -0.0089  0.1480
16027W        W33551  16.266   1.116  12.049 -0.1683 -0.0624 -0.0287
16028W        W33552  14.277   1.094   3.633 -0.0540 -0.0025 -0.0337
16029W        W33553  16.221   8.519  11.938  0.0903 -0.1472  0.1078
16030W        W33554   9.619  16.357  12.055 -0.0760  0.1171  0.1865
16031W        W33555  14.712   1.513   4.244  0.1276 -0.3211  0.0177
16032W        W33556  15.525  10.986  15.114 -0.0615  0.2138 -0.3553
16033W        W33557  17.292  12.513   4.372  0.1274  0.1592 -0.1939
16034W        W33558   5.791  10.864   2.599 -0.0753  0.3125  0.0751
16035W        W33559   5.891  11.157   4.971 -0.2871  0.0416  0.1823
16036W        W33560  15.474  14.660   0.234 -0.0139 -0.0358  0.1632
16037W        W33561  14.056   3.372   0.925 -0.1137 -0.2246  0.1880
16038W        W33562   0.901  17.145  13.802 -0.0557  0.0503 -0.1853
16039W        W33563   1.509   6.210  11.478  0.2443 -0.2763  0.1153
16040W        W33564   3.261   1.237   1.214  0.1780 -0.0092  0.0681
16041W        W33565  14.439   6.409   3.166  0.0120 -0.2175 -0.2117
16042W        W33566  16.935  11.537  12.746  0.1746  0.2615 -0.0608
16043W        W33567   7.505  12.361   3.408  0.0652 -0.0473  0.0689
16044W        W33568   9.303  17.762   2.769 -0.2239  0.0051 -0.0407
16045W        W33569  14.498   9.091   0.006 -0.0907 -0.0431  0.0158
16046W        W33570   2.510   8.549  16.164  0.2526 -0.2762  0.4613
16047W        W33571   1.522  17.091   4.551  0.0827  0.0778  0.0746
16048W        W33572  17.594  13.535   0.734 -0.2326 -0.0660 -0.2919
16049W        W33573  11.520   5.211  15.110 -0.2160  0.1721  0.1014
16050W        W33574  11.842  11.826  14.243  0.3625 -0.0321 -0.0853
16051W        W33575  12.956   3.263   3.088 -0.1623 -0.2610  0.0049
16052W        W33576   5.903   6.509   2.568 -0.1390  0.0477  0.2349
16053W        W33577   9.774  10.054   1.420  0.2710  0.0803 -0.1530
16054W        W33578  11.029  17.372   4.666 -0.1073  0.0459  0.1407
16055W        W33579  12.713   5.057   0.217 -0.2541  0.2047  0.0330
16056W        W33580   1.763  11.591  10.608  0.0817  0.0264  0.1538
16057W        W33581  14.868  12.919   5.216  0.3797 -0.1643  0.0913
16058W        W33582  12.173   2.587  15.930 -0.0981 -0.2050 -0.1835
16059W        W33583   1.624   9.557  14.011 -0.0833 -0.1264 -0.2550
16060W        W33584   7.561  14.022  12.928  0.2415 -0.0335 -0.1412
16061W        W33585  11.681  16.925  12.155 -0.0771 -0.1341 -0.1274
16062W        W33586  16.210   8.020  11.292  0.1914 -0.0509  0.3519
16063W        W33587   4.336  10.589  14.628  0.1673  0.1463 -0.3009
16064W        W33588   8.283  17.106  11.581 -0.1126  0.0318 -0.0991
16065W        W33589   3.129   4.744   1.258 -0.1481  0.0265 -0.1098
16066W        W33590  13.380  17.125   0.363  0.1473 -0.2429  0.0895
16067W        W33591   9.059   8.361   3.149  0.2702  0.0141 -0.1251
16068W        W33592   5.737   5.673   5.022 -0.0472  0.0959 -0.2473
16069W        W33593   4.767   1.117   1.223 -0.0714 -0.1782 -0.0565
16070W        W33594   8.046   5.369  16.153  0.1558  0.1409 -0.3137
16071W        W33595  15.550   8.440   3.507 -0.2491 -0.0444 -0.0845
16072W        W33596  16.687  11.994  11.228  0.2284 -0.0237 -0.0579
16073W        W33597   2.647   1.083  14.413  0.1748  0.5783  0.1533
16074W        W33598   3.347   5.973   1.496  0.1337  0.0135  0.1719
16075W        W33599   1.627   1.841   1.742 -0.2556 -0.0220  0.0773
16076W        W33600  14.430  13.249   0.884  0.2039  0.0302 -0.1630
16077W        W33601   2.855   1.363   0.919 -0.0932  0.1967  0.3915
16078W        W33602  14.663   2.433  13.076  0.4175  0.0191  0.3080
16079W        W33603   9.164   1.154   2.038 -0.0875 -0.0351  0.0127
16080W        W33604  17.267   8.715   0.090 -0.1337  0.0307 -0.1473
16081W        W33605   9.205   3.281  12.935  0.2690 -0.3199  0.0229
16082W        W33606   5.411  17.280   4.289  0.2464 -0.0199  0.0282
16083W        W33607   4.327   6.522  14.801 -0.1071  0.2193 -0.1866
16084W        W33608  10.952   5.181   1.996 -0.0512 -0.1684 -0.0875
16085W        W33609  16.820   3.301  11.784 -0.0799 -0.0343 -0.2799
16086W        W33610   0.977  17.791   4.298  0.1047 -0.0659 -0.2831
16087W        W33611   5.590   3.671   0.673  0.1403 -0.0226 -0.3216
16088W        W33612   6.389  16.831  12.781  0.2247  0.1499 -0.0198
16089W        W33613  16.746   0.949  12.181 -0.1360  0.2289  0.0247
16090W        W33614   4.939   9.021  14.332 -0.2441 -0.3443  0.0113
16091W        W33615   1.280   1.542  11.433  0.0803  0.1237  0.0260
16092W        W33616  15.280  12.928   3.780 -0.1594 -0.0048 -0.2179
16093W        W33617  13.972   8.015  15.124 -0.1412 -0.1958 -0.0319
16094W        W33618   9.770  15.761   0.844  0.1258 -0.0418  0.3776
16095W        W33619   9.992   0.204  15.192 -0.2012  0.3472  0.0474
16096W        W33620   3.833  13.921  14.784  0.0192  0.1036  0.0128
16097W        W33621   8.636  10.143   2.793  0.0482  0.0019  0.0427
16098W        W33622  11.686  15.405  12.973  0.1400  0.0818  0.2143
16099W        W33623  11.629   4.419   2.183  0.2352 -0.0368  0.0477
16100W        W33624   4.318   7.586   3.767  0.3088  0.0101 -0.1682
16101W        W33625   4.725  14.988  12.312  0.2142  0.0586  0.1096
16102W        W33626   1.164  15.349  11.736 -0.2644  0.1395 -0.2006
16103W        W33627   9.887  14.344   5.240 -0.2950 -0.0384  0.1134
16104W        W33628   7.514  12.780   1.166 -0.0780 -0.0494  0.1581
16105W        W33629   1.573  14.231   4.526 -0.1765 -0.1072  0.0882
16106W        W33630   5.693   1.858   0.052 -0.1601  0.1165  0.1429
16107W        W33631   4.417  17.948   1.853 -0.2409  0.0378  0.1283
16108W        W33632  10.442   2.639   2.966  0.0710 -0.0399 -0.3341
16109W        W33633   7.423   5.360   0.304  0.1782 -0.0662  0.1947
16110W        W33634  16.792  17.220   2.113 -0.0756 -0.1861 -0.1064
16111W        W33635  14.400  10.629  14.703 -0.2915 -0.0802 -0.2040
16112W        W33636  17.139  12.882   3.470  0.3937  0.1850 -0.0532
16113W        W33637   1.285   2.082   4.063 -0.0155 -0.2957  0.2228
16114W        W33638  13.771  10.496   0.821 -0.2539  0.3315  0.0193
16115W        W33639   4.139  11.452  11.927 -0.0321 -0.1890  0.2616
16116W        W33640  12.219   2.830  12.883 -0.1667  0.0204 -0.0093
16117W        W33641   0.588   8.102  13.399 -0.0206 -0.1785 -0.0689
16118W        W33642  17.538  16.879   0.258 -0.1920 -0.0142 -0.1703
16119W        W33643   2.482  17.592  13.244  0.0907 -0.4620  0.5013
16120W        W33644  12.263   2.842  12.339 -0.2235 -0.0825  0.2387
16121W        W33645   8.926   3.664   4.201  0.3088 -0.1530 -0.2147
16122W        W33646   2.285   5.274  13.249 -0.0123  0.0103 -0.2025
16123W        W33647   6.372   3.690   1.809 -0.0115 -0.4513  0.2591
16124W        W33648   7.186   7.943   0.809 -0.3781  0.1313 -0.3723
16125W        W33649  17.715   6.696   1.529 -0.0708 -0.1008  0.0035
16126W        W33650   1.653  17.165  11.764  0.3046  0.2701 -0.0697
16127W        W33651   6.927  10.197  16.259  0.0007  0.3210  0.0336
16128W        W33652  14.369   2.677  14.781  0.2186 -0.0094  0.0020
16129W        W33653  13.931   5.087   5.028 -0.1094  0.0233 -0.0766
16130W        W33654   2.432   4.663  12.851  0.0613  0.0193  0.1008
16131W        W33655   3.836   2.036   0.350 -0.0799  0.2808  0.0943
16132W        W33656   0.780   6.779   4.929  0.2222  0.0179  0.2081
16133W        W33657   2.032  10.103   5.104 -0.1263 -0.2333 -0.0767
16134W        W33658  16.469   6.918  12.807  0.3227 -0.2353  0.0096
16135W        W33659  17.745  13.469   3.340  0.1320  0.1434  0.1984
16136W        W33660  15.774   5.892  16.042 -0.0776  0.1894 -0.2584
16137W        W33661   2.615  10.839  12.270  0.0411 -0.2578  0.3412
16138W        W33662   3.913   9.364   0.732 -0.2711 -0.0124 -0.2691
16139W        W33663  14.809  12.124   3.897  0.0526  0.0030  0.2554
16140W        W33664   0.566  12.571   1.841  0.2576 -0.0164 -0.1783
16141W        W33665   9.317   6.771  12.799 -0.2361  0.1807 -0.3716
16142W        W33666  10.674   3.178   4.147  0.0371 -0.1169 -0.0817
16143W        W33667   9.227   4.538  12.799 -0.1790  0.1652  0.1968
16144W        W33668  13.174  14.787  12.998 -0.2235 -0.2547  0.0143
16145W        W33669   6.128   3.726  13.164 -0.2092  0.0010  0.0780
16146W        W33670   9.716   7.909   0.580 -0.1763  0.2163 -0.2322
16147W        W33671  10.325  16.398  11.263  0.3038  0.1298 -0.1625
16148W        W33672   5.392  10.823  11.662  0.0807 -0.2345  0.2045
16149W        W33673   8.564  17.528  11.516 -0.3023 -0.0342  0.2531
16150W        W33674   7.469   1.084  11.802  0.0689  0.2882  0.1103
16151W        W33675   7.344  10.637  12.372  0.2220  0.0952 -0.0983
16152W        W33676   1.149   4.769   0.243  0.1154  0.3812 -0.4634
16153W        W33677   9.018  12.150  11.715  0.1192  0.1528 -0.2404
16154W        W33678  17.113   1.983  15.909 -0.1607 -0.2877 -0.0143
16155W        W33679  10.366  10.193   0.970 -0.1514  0.0507  0.0240
16156W        W33680   8.632   8.020  12.754  0.0013  0.4221  0.1316
16157W        W33681   6.677   5.074  13.255  0.0283 -0.0802  0.0024
16158W        W33682  15.738  12.378  12.232 -0.2418 -0.1489  0.0590
16159W        W33683   5.259   0.727  14.824 -0.0197  0.3147 -0.2698
16160W        W33684   7.724  11.272  11.334  0.0407  0.1185  0.0460
16161W        W33685  13.591   3.309   0.183 -0.1794 -0.3029 -0.0287
16162W        W33686  17.115   3.071   3.061  0.0680  0.1320 -0.1812
16163W        W33687   3.134   0.598  13.081  0.3381  0.0019  0.1945
16164W        W33688   8.796   1.410   3.429 -0.1181 -0.1954  0.1677
16165W        W33689  12.394   3.133   4.344  0.0888 -0.2697 -0.1505
16166W        W33690  16.483   5.497   3.006  0.0493  0.2506 -0.0854
16167W        W33691  10.938   6.491  13.639  0.0917  0.0475 -0.1264
16168W        W33692   9.351   1.846   4.004 -0.0855 -0.0844  0.4211
16169W        W33693  10.705   1.242  11.507 -0.2688  0.4451  0.3339
16170W        W33694   8.903  17.676  15.969 -0.2467  0.3225  0.2671
16171W        W33695   8.531   0.865   0.657 -0.1301  0.0347  0.1943
16172W        W33696   7.691   6.144   5.826  0.3138  0.0426  0.1759
16173W        W33697  14.622  17.356  15.979 -0.0440  0.1326 -0.0081
16174W        W33698   0.961   2.760   4.296 -0.2766  0.0409 -0.0336
16175W        W33699   7.348  17.398  13.030  0.0355  0.0649 -0.1641
16176W        W33700   2.692  14.900   3.055 -0.0689 -0.0472  0.0887
16177W        W33701  14.356  17.838  13.086  0.0413  0.2185 -0.1935
16178W        W33702   6.951   1.834  16.000 -0.2461 -0.1474  0.0713
16179W        W33703   3.358   1.392   0.644  0.1583  0.0427 -0.0766
16180W        W33704   3.626  14.965   4.380  0.2250 -0.0543  0.1030
16181W        W33705  14.476   3.379   0.590  0.3912  0.1291 -0.1375
16182W        W33706  15.168   2.495  13.717 -0.0411 -0.2044 -0.3551
16183W        W33707  16.568   8.221  11.554 -0.0425  0.0640  0.3393
16184W        W33708   2.033   4.504   0.192 -0.3454 -0.0975 -0.1238
16185W        W33709   9.197   6.371  15.198  0.2594 -0.0920  0.1613
16186W        W33710  12.729   9.714  15.513  0.2584 -0.1146  0.0242
16187W        W33711  12.535   2.926  11.932  0.0254  0.1152 -0.1231
16188W        W33712   9.523   4.059   3.720  0.1783  0.0411  0.2313
16189W        W33713   8.925   1.519  11.336 -0.4017  0.2139  0.1414
16190W        W33714   5.803  11.291   2.159  0.1977  0.0813  0.3177
16191W        W33715   0.535  13.167   3.911  0.1045 -0.0277  0.0370
16192W        W33716  14.299  14.923  11.347  0.2427 -0.2679  0.1984
16193W        W33717   6.957  12.559  11.577  0.2615 -0.0786  0.1195
16194W        W33718   6.594   7.423   2.538 -0.0730  0.4486  0.1321
16195W        W33719  13.632  15.439  12.827 -0.3394 -0.1481 -0.0032
16196W        W33720  16.622  11.170   4.977 -0.0955  0.0515  0.0663
16197W        W33721   3.904   0.394  14.557  0.2009  0.0606 -0.1618
16198W        W33722  10.738  11.767   2.723 -0.2235 -0.1552 -0.1524
16199W        W33723   5.218  15.943  14.840 -0.2228  0.1414  0.0602
16200W        W33724  13.177  15.301  11.409  0.0769 -0.0838 -0.0659
16201W        W33725   5.909  10.506  13.305  0.1938 -0.1225  0.1606
16202W        W33726  15.182  11.288   2.437  0.1035  0.2778  0.1575
16203W        W33727  14.538  10.455  12.102 -0.1973 -0.2099  0.0233
16204W        W33728  11.596   6.531  15.183 -0.0428  0.0861 -0.4800
16205W        W33729   7.267  14.396   4.414  0.1593 -0.2001  0.0144
16206W        W33730   3.202   5.771   2.319  0.1004  0.0181  0.1220
16207W        W33731  15.358  12.305  12.680 -0.2292  0.0481 -0.0019
16208W        W33732  17.898   2.441   1.186  0.0918 -0.0311  0.2489
16209W        W33733  14.123   4.416  12.745  0.1689  0.0554 -0.3393
16210W        W33734   7.538   8.182   3.525  0.1106  0.0527  0.0743
16211W        W33735   0.652  13.651  11.590  0.0138 -0.4565  0.1451
16212W        W33736   0.396   4.875  15.895 -0.2825 -0.2119  0.0149
16213W        W33737  16.286   8.688  13.578 -0.1961 -0.0219  0.0998
16214W        W33738   9.584   8.465  14.180  0.0453 -0.0493  0.3485
16215W        W33739  15.183  12.287  13.206  0.0004  0.1432 -0.1865
16216W        W33740   1.853  14.744   1.207 -0.1735  0.1490  0.1157
16217W        W33741   3.920   6.753  14.989  0.1821  0.0413 -0.1640
16218W        W33742   8.918   1.304  15.062  0.2586  0.2054  0.1415
16219W        W33743   1.687  15.357   0.481 -0.2211  0.0756 -0.1710
16220W        W33744  12.731   4.442  13.920 -0.2293 -0.0541  0.0493
16221W        W33745  15.088   1.506   1.064 -0.0903  0.1105  0.3155
16222W        W33746  17.605   7.699   4.614 -0.0873  0.1947  0.2414
16223W        W33747   8.126  15.304  14.429 -0.1797  0.0187 -0.3754
16224W        W33748   3.635   5.472  11.400 -0.1283  0.1138  0.5327
16225W        W33749   1.069  14.281   4.779  0.1886 -0.1441 -0.2034
16226W        W33750   1.350  14.018   1.047  0.0004  0.0796  0.3041
16227W        W33751   4.608  11.547   4.621 -0.1023 -0.1085  0.2304
16228W        W33752  13.249  12.016   1.466  0.2183  0.1094 -0.1096
16229W        W33753  10.935  11.033   3.640  0.4377 -0.0173 -0.2521
16230W        W33754   9.042  17.310   3.861  0.0179 -0.2426  0.3073
16231W        W33755   1.648   3.582  13.460 -0.1274 -0.1061 -0.0565
16232W        W33756  12.187  11.063   4.925 -0.0630  0.1162 -0.0849
16233W        W33757   9.492   8.326   3.590  0.2042  0.3738 -0.3152
16234W        W33758  17.438  11.733  12.930 -0.1285  0.0866  0.2527
16235W        W33759   5.389  16.516  14.133 -0.2534 -0.0221 -0.1527
16236W        W33760   1.646   3.745   4.017 -0.1926  0.0611  0.3214
16237W        W33761   7.490   8.174  15.806  0.3489 -0.1119 -0.1773
16238W        W33762  14.544   0.304  13.187  0.0059 -0.2326 -0.0433
16239W        W33763  12.079   1.045  12.643  0.1327  0.3180 -0.0431
16240W        W33764   7.189   2.586  10.750 -0.0966  0.1092  0.2505
16241W        W33765  10.538  16.518  14.792 -0.1067  0.1617  0.0714
16242W        W33766   3.809   4.733  15.895  0.1176 -0.3479 -0.0734
16243W        W33767  11.928   8.172   0.449  0.1901 -0.0591 -0.0382
16244W        W33768  17.458   9.201  12.349 -0.0649 -0.2868  0.0762
16245W        W33769   6.443  13.801   4.279  0.0827 -0.3839 -0.1277
16246W        W33770   7.686   3.720  12.382 -0.1020 -0.1660  0.3941
16247W        W33771   7.375   7.466   1.517 -0.1221 -0.0431 -0.1233
16248W        W33772   4.473  13.442  12.651  0.2862  0.2149  0.2536
16249W        W33773   2.776  10.730   4.491 -0.0581  0.3166 -0.1235
16250W        W33774  12.911   1.028  11.909  0.0832 -0.1962 -0.3875
16251W        W33775   6.469   6.747   3.194 -0.4036  0.2482 -0.0245
16252W        W33776   0.206  10.107   5.676  0.1441 -0.2996  0.0619
16253W        W33777  13.412   4.162   0.302 -0.0789 -0.1785 -0.1129
16254W        W33778   0.162  11.346  13.676 -0.2066  0.1946  0.1675
16255W        W33779  10.664   0.174  13.816 -0.3221  0.1132  0.2184
16256W        W33780  17.957   3.207   3.799  0.2702 -0.0003 -0.0166
16257W        W33781   5.898   4.252   4.620 -0.1363 -0.0653  0.0077
16258W        W33782   5.035   1.546  12.129 -0.2025 -0.0956 -0.0005
16259W        W33783   8.728  12.759  13.048  0.1055 -0.0973 -0.2917
16260W        W33784   2.214   6.309  10.402  0.1455  0.1766  0.0486
16261W        W33785  15.008   0.344  13.140 -0.0267  0.1085  0.3114
16262W        W33786  10.739  16.645  11.312 -0.1007 -0.2797 -0.2344
16263W        W33787  15.083  11.572  16.174 -0.2897 -0.1896  0.1424
16264W        W33788   8.493   8.536   4.920 -0.1800 -0.1034  0.1904
16265W        W33789  13.957   9.678  11.316 -0.1010 -0.0783  0.0470
16266W        W33790  12.791   1.651  13.350  0.2133 -0.0394  0.0149
16267W        W33791   7.629   3.721  12.921 -0.0417 -0.0505 -0.1477
16268W        W33792  12.591  11.505  12.121  0.1041  0.1096 -0.1542
16269W        W33793  13.333  10.927  11.788 -0.1332  0.1095 -0.0986
16270W        W33794   5.605   3.989   4.250 -0.1045  0.2195 -0.0195
16271W        W33795   6.852  11.063   3.162 -0.2150  0.0080 -0.0010
16272W        W33796  10.783   4.606  12.927 -0.1669  0.0529  0.3068
16273W        W33797  13.393  11.997   2.783 -0.1694  0.0869 -0.0171
16274W        W33798  16.593   9.799  12.607  0.1444  0.1030  0.0020
16275W        W33799   3.750  10.530   2.156 -0.0632 -0.0111  0.0373
16276W        W33800  12.204   3.657   2.985 -0.1362  0.1322  0.2022
16277W        W33801   3.493   3.369   2.157 -0.1398  0.0165  0.0399
16278W        W33802   1.292  13.874  12.328  0.1329  0.0859 -0.1109
16279W        W33803  13.853  15.937  10.581  0.2110 -0.1078  0.2268
16280W        W33804  12.959  13.270  13.982  0.0159 -0.1871 -0.0755
16281W        W33805   9.791   8.706  12.184 -0.2169  0.0507 -0.2922
16282W        W33806   7.620  13.497  14.272 -0.3052  0.1855  0.3256
16283W        W33807   4.875   9.543  16.007 -0.2152  0.2084 -0.0525
16284W        W33808   3.044   6.148  15.472  0.0519  0.1811  0.3544
16285W        W33809  10.012   0.769  10.950  0.1631  0.0575  0.3189
16286W        W33810  15.994  14.875   0.590  0.2932  0.0368  0.1640
16287W        W33811  12.076   7.658   0.770  0.0342  0.0128  0.1586
16288W        W33812   1.743   3.810  12.084  0.5085  0.0609  0.0868
16289W        W33813   6.491   9.279  14.314 -0.1346 -0.0819  0.2516
16290W        W33814  15.929   4.118  13.327  0.1602 -0.0772  0.2675
16291W        W33815  17.836  15.024  15.384 -0.3419 -0.2700  0.1076
16292W        W33816   0.909  10.330   1.178  0.0135  0.0301  0.3553
16293W        W33817  12.278   8.144   1.299 -0.0744 -0.1612 -0.0866
16294W        W33818  13.779   8.308   2.572 -0.0523 -0.0983 -0.0535
16295W        W33819   8.096   9.738   3.505 -0.1937  0.1432 -0.2056
16296W        W33820   5.620  14.024   4.649 -0.0763  0.2437  0.4032
16297W        W33821   4.901   6.400   5.931  0.0588  0.1286 -0.0338
16298W        W33822  11.974   5.346  15.013 -0.2359 -0.1902 -0.0968
16299W        W33823  15.642   1.849   2.681  0.1848 -0.0095  0.2470
16300W        W33824   0.337   0.850  14.677  0.0007 -0.2424  0.1365
16301W        W33825   5.539  11.381   2.521  0.0513 -0.1116 -0.0995
16302W        W33826  16.598   7.437   3.848 -0.1821  0.1500 -0.2172
16303W        W33827   0.974   3.405  10.932  0.0708 -0.1873 -0.1166
16304W        W33828   0.452  15.011   0.437 -0.0401  0.1932 -0.1126
16305W        W33829   9.173   4.605  16.197 -0.2840 -0.0687  0.0972
16306W        W33830   1.632  17.430  13.917 -0.0475 -0.0034  0.3637
16307W        W33831   0.097  17.495   3.176  0.2045  0.2633 -0.3554
16308W        W33832   9.793   1.708  11.754 -0.0032  0.1237 -0.0964
16309W        W33833   5.291   2.901   1.198 -0.0322  0.0624  0.2197
16310W        W33834  17.411   5.925  14.720 -0.0526  0.0024  0.3115
16311W        W33835  17.872   1.171   4.769 -0.0521 -0.0066  0.2977
16312W        W33836  13.550  16.062  14.363 -0.0887 -0.1813  0.2284
16313W        W33837   0.803  15.966   5.476  0.1158  0.1300  0.1472
16314W        W33838   1.890   0.894  12.359 -0.0845  0.1808 -0.0294
16315W        W33839   7.207   1.907  11.710 -0.0112 -0.0088 -0.0860
16316W        W33840   6.929  13.801   1.839 -0.0020 -0.2229  0.1177
16317W        W33841  10.499  15.055   0.530  0.0584  0.0797 -0.2589
16318W        W33842  11.910   5.656  11.992 -0.1650 -0.1270  0.0942
16319W        W33843   8.498  12.454   4.200  0.0899  0.0063 -0.2052
16320W        W33844   0.228   7.075   3.653  0.0938  0.0793  0.4975
16321W        W33845  15.199  15.406   3.941  0.0780  0.2951  0.0331
16322W        W33846   7.515  10.368  16.260  0.2174  0.1093 -0.3063
16323W        W33847  11.959  15.979  11.257  0.0275  0.1302  0.2602
16324W        W33848   4.222   3.015  12.058 -0.1406 -0.0207 -0.0608
16325W        W33849   5.902   4.524   3.837 -0.1548  0.0332 -0.1396
16326W        W33850   6.071  10.333  11.138 -0.0021  0.1349 -0.2617
16327W        W33851  16.307   4.267   4.242  0.0643  0.1696  0.2331
16328W        W33852   1.309   4.636   1.606  0.0510 -0.2417  0.2025
16329W        W33853  11.867  14.507  14.692  0.0477  0.0041  0.1258
16330W        W33854  16.740   0.650   4.598 -0.1765 -0.1908  0.0371
16331W        W33855   6.406   9.907  11.006  0.1072 -0.2298  0.2857
16332W        W33856   7.185   7.012  12.148 -0.1081  0.2419  0.3000
16333W        W33857  11.584   6.279   3.114  0.0544 -0.0620 -0.2721
16334W        W33858   5.295   8.813  14.071  0.1609  0.0167 -0.0908
16335W        W33859   8.249   2.812  15.398 -0.1113  0.0508 -0.0956
16336W        W33860  12.349  17.214  13.617  0.3438  0.0029  0.2301
16337W        W33861   4.478   6.548  16.148  0.0125  0.2359  0.0091
16338W        W33862   8.500   7.258   0.353  0.3214 -0.1929 -0.0723
16339W        W33863  15.284   1.931   4.058  0.0952 -0.0092 -0.0396
16340W        W33864  10.088   6.161  14.590 -0.0883 -0.1859 -0.2490
16341W        W33865   8.117   3.564  15.718 -0.0011 -0.3755 -0.0218
16342W        W33866   8.125   3.929   2.235  0.2005  0.2511  0.0458
16343W        W33867  16.979   2.797  14.751  0.0371 -0.1858  0.0744
16344W        W33868   8.036   6.220   2.608  0.0677 -0.1982  0.0933
16345W        W33869   8.814   8.787   3.152  0.4783 -0.1653 -0.0800
16346W        W33870   9.481  11.665   2.461 -0.1852  0.1985  0.0562
16347W        W33871  17.128  10.063   0.972  0.1297 -0.1516  0.1869
16348W        W33872   0.639  11.765   1.303 -0.1945  0.0709 -0.0253
16349W        W33873  13.634   4.862   3.049  0.0890  0.0031 -0.0806
16350W        W33874   0.981  15.668   1.385  0.0384 -0.0889 -0.2752
16351W        W33875   1.422  11.158   4.162 -0.2810  0.2147 -0.0695
16352W        W33876  10.268   1.038   1.269 -0.0221  0.0434  0.0714
16353W        W33877  10.508  15.898   3.313 -0.4301  0.3420  0.0971
16354W        W33878   9.454   2.758  14.283 -0.0394 -0.0633 -0.0536
16355W        W33879  10.994   4.538   0.841 -0.1108 -0.0176 -0.0249
16356W        W33880   3.025  12.718   1.437  0.3666  0.2275  0.0554
16357W        W33881   9.409  11.105   3.457 -0.2180 -0.0571 -0.1438
16358W        W33882  14.818   0.581   0.392  0.6116 -0.0738 -0.2703
16359W        W33883   9.977  17.703   1.804  0.1083 -0.3471  0.0920
16360W        W33884   9.466   3.596  12.655  0.1290  0.0850 -0.1148
16361W        W33885  15.330  17.911   3.444  0.1784  0.1499  0.1132
16362W        W33886   3.815   3.413  11.857  0.0683  0.0043  0.0906
16363W        W33887  15.603   7.263   0.050  0.1298  0.0722  0.0357
16364W        W33888   5.871   4.953   0.237  0.0575  0.2526 -0.0152
16365W        W33889  12.211   2.210  15.107 -0.0294 -0.3705 -0.1786
16366W        W33890   6.403   4.117  14.482 -0.1001  0.0277  0.1378
16367W        W33891   2.098  13.769  12.408 -0.0215  0.0560 -0.0284
16368W        W33892  10.062   2.338  13.957  0.2828  0.0725  0.0082
16369W        W33893  14.637  11.831   1.277 -0.0455  0.0588 -0.1111
16370W        W33894  14.182   7.730  13.751 -0.1271  0.1287 -0.2875
16371W        W33895  16.925  17.844  14.046 -0.0550  0.0263  0.0647
16372W        W33896  12.735  11.891   0.553  0.0051 -0.0198 -0.0038
16373W        W33897   3.381  11.540   0.277  0.0994  0.0840 -0.2049
16374W        W33898   5.720   0.409  15.105 -0.2491  0.2318 -0.1213
16375W        W33899   8.845   6.787  14.618 -0.1146  0.2356 -0.0857
16376W        W33900   7.126  12.114   3.011  0.0454 -0.2240 -0.0370
16377W        W33901   8.938  15.181   0.686 -0.2449  0.2051  0.2486
16378W        W33902   7.133   7.085  14.216 -0.0555 -0.1585 -0.0268
16379W        W33903  11.195   4.873   5.156  0.1044  0.0350  0.0701
16380W        W33904  12.567  10.456  15.872  0.1218  0.3777 -0.0060
16381W        W33905   3.359  10.511  15.112  0.0180  0.0264  0.0529
16382W        W33906  11.208   5.739  12.388  0.0111 -0.0170  0.4169
16383W        W33907   1.812  15.283  14.602 -0.0970  0.2581 -0.1399
16384W        W33908   0.382  13.681   4.296  0.0501  0.1349  0.0296
16385W        W33909   9.380  12.326   0.955  0.1849 -0.1615  0.2708
16386W        W33910  12.241  17.289   2.823  0.1943  0.0268  0.0820
16387W        W33911  14.015   2.655   5.974  0.1358  0.2592  0.0867
16388W        W33912   9.138   2.624   2.323  0.2033  0.1270 -0.2974
16389W        W33913  17.275  17.447   4.552  0.0439  0.1071 -0.3115
16390W        W33914   6.226  11.478   4.152  0.1967 -0.0284  0.2021
16391W        W33915  14.240  15.321  11.751  0.1325 -0.0330 -0.0839
16392W        W33916  10.922  16.200   3.106 -0.0668 -0.0429  0.0472
16393W        W33917   5.830   3.350   3.451  0.1664  0.0907  0.0801
16394W        W33918   4.717  11.873  14.943 -0.1296  0.3572  0.3220
16395W        W33919   6.945   3.650  11.398  0.0228  0.1183 -0.2337
16396W        W33920  15.306  10.254  11.700  0.3121 -0.1356 -0.0887
16397W        W33921  11.015   4.159  11.263 -0.2983  0.3938  0.1257
16398W        W33922  12.205   5.000  13.569 -0.1827  0.2274 -0.1146
16399W        W33923   4.451   1.045  14.117 -0.2842 -0.1382  0.2638
16400W        W33924   2.601   2.909  16.058  0.0630 -0.0941  0.4109
16401W        W33925  15.446   4.770  11.402  0.1799 -0.5001  0.0566
16402W        W33926   5.267   1.620  15.160  0.0131  0.2400 -0.2274
16403W        W33927   2.658  15.874   4.483  0.0846 -0.0642 -0.0301
16404W        W33928  16.992   2.038  13.323 -0.1790  0.0781 -0.0352
16405W        W33929  16.161  16.695  13.865 -0.2078 -0.1551  0.1320
16406W        W33930   0.453  16.143  15.505  0.0393 -0.1516 -0.1618
16407W        W33931   7.535  14.697   0.009  0.0049  0.0384 -0.3734
16408W        W33932  16.569   3.661  13.950 -0.0366 -0.1074 -0.1012
16409W        W33933   3.075  10.059   4.878 -0.1190  0.3129  0.1169
16410W        W33934   9.428   7.975   1.463 -0.0332  0.1958 -0.2096
16411W        W33935  14.830   4.611  14.469 -0.0386 -0.1646 -0.1696
16412W        W33936   5.780   6.256  11.160 -0.1319  0.1561  0.1062
16413W        W33937  13.839  15.487   0.754  0.0542  0.0771  0.1226
16414W        W33938  15.312   5.180   4.509  0.0041 -0.2244  0.0864
16415W        W33939  15.868  14.210   3.945 -0.0187 -0.0380  0.3067
16416W        W33940  13.243   6.816   4.738 -0.1805 -0.1105 -0.0101
16417W        W33941   1.012   3.304   5.008 -0.1096 -0.2930  0.0926
16418W        W33942   0.285   8.955  11.830 -0.0611  0.1516  0.0997
16419W        W33943   5.020   0.770  13.290  0.1230  0.0647 -0.1250
16420W        W33944   5.835  14.614  14.335 -0.1729  0.4582  0.4583
16421W        W33945   2.082   0.854  16.156 -0.1890  0.0433  0.1408
16422W        W33946  13.649   0.986  14.334  0.2729  0.1107  0.1708
16423W        W33947   9.402  11.104   2.551  0.1762 -0.1292  0.0704
16424W        W33948   1.880   8.790  14.597  0.0917 -0.1674  0.0809
16425W        W33949  11.705  16.469  11.069 -0.1027 -0.0816  0.1250
16426W        W33950  15.281   0.708   1.695  0.0351 -0.0976  0.2009
16427W        W33951  16.456  15.219  13.582  0.1312 -0.0191 -0.0684
16428W        W33952   9.759   3.197  12.872  0.1728  0.1571  0.2364
16429W        W33953   8.900  13.916  11.811  0.2659  0.1621  0.2146
16430W        W33954   1.484  10.673  12.134  0.1088  0.3038 -0.0317
16431W        W33955   1.689  13.783   3.169 -0.0342  0.1605  0.0822
16432W        W33956  14.785   8.856   3.288 -0.0731  0.3698 -0.1301
16433W        W33957   0.710  16.046   1.535 -0.0195  0.0516  0.1676
16434W        W33958   9.895   2.188   3.219 -0.3827  0.1393 -0.0257
16435W        W33959   8.375  15.038  15.538 -0.3494 -0.1412  0.1912
16436W        W33960  16.199  10.728  13.872  0.0363 -0.2466  0.1506
16437W        W33961   2.130   6.112   5.602 -0.0535  0.0748 -0.1803
16438W        W33962  15.936   5.057  14.087 -0.3129  0.2428 -0.0285
16439W        W33963  17.636  14.768  14.964 -0.0404 -0.0719  0.1255
16440W        W33964  13.221  14.962   2.591  0.1818  0.1495 -0.1031
16441W        W33965  14.783   2.525   2.620  0.1403 -0.2555  0.1408
16442W        W33966  15.385  14.657  15.764  0.1141  0.0022 -0.1757
16443W        W33967   2.598   4.079  11.911 -0.0616  0.0492  0.0901
16444W        W33968   4.955   1.473   3.402  0.0651  0.1624  0.0733
16445W        W33969   2.801   5.508   2.407 -0.0604  0.0946 -0.0320
16446W        W33970  14.831   6.749  14.147 -0.2330 -0.0829 -0.1029
16447W        W33971   1.665   9.148  12.495 -0.1860  0.2160 -0.1564
16448W        W33972  14.497  12.971  12.082  0.3654 -0.1466  0.0668
16449W        W33973  15.239   7.305   0.862  0.1437  0.1744 -0.1246
16450W        W33974  11.345  15.113   0.051  0.0410 -0.2224  0.0407
16451W        W33975  15.874   8.305   3.897 -0.0896  0.0811  0.1367
16452W        W33976   5.657  14.603   2.864 -0.1624 -0.0990 -0.4297
16453W        W33977  12.660   3.944  15.503  0.1218  0.1240 -0.0924
16454W        W33978   8.616  10.934  11.758 -0.1249  0.5712  0.2264
16455W        W33979   6.879   6.268  11.775 -0.0711 -0.2727  0.2507
16456W        W33980  10.136   5.377   0.197 -0.2077 -0.1903  0.0044
16457W        W33981   2.894  11.797   5.130  0.1931 -0.3055 -0.1361
16458W        W33982  15.274  11.501   0.987  0.0781  0.2088 -0.1329
16459W        W33983   9.862  16.604   5.161 -0.0633 -0.2806  0.1732
16460W        W33984   4.114  17.012   2.951 -0.2500 -0.1400  0.1384
16461W        W33985   6.263  13.424  13.435 -0.0308 -0.0830  0.0843
16462W        W33986   7.477   9.285   5.213 -0.1756 -0.1896 -0.1263
16463W        W33987   6.838  16.939   1.615  0.0503 -0.4920 -0.2340
16464W        W33988  14.774  16.123  11.848 -0.2050 -0.1294 -0.0479
16465W        W33989   2.467  12.875   0.609  0.0592  0.0027  0.2125
16466W        W33990  11.321   1.501  12.731 -0.2644  0.4223  0.2128
16467W        W33991   0.844   9.599   5.397  0.2913 -0.2252  0.1314
16468W        W33992   8.332   0.051  12.757  0.0145 -0.2481  0.1463
16469W        W33993  15.575   8.426   2.194  0.0967 -0.1209 -0.0121
16470W        W33994   0.660   3.031   0.370  0.1121  0.2753 -0.3713
16471W        W33995  12.004  12.864  14.240 -0.1784 -0.0268 -0.1289
16472W        W33996   5.007   7.209   2.188 -0.1402 -0.0843 -0.1438
16473W        W33997  16.984  11.970  14.920 -0.1494 -0.0623  0.0326
16474W        W33998   5.004  12.326   0.024  0.0082  0.1108  0.1187
16475W        W33999  11.951   6.576  11.031  0.1850 -0.0864  0.3377
16476W        W34000  11.917  13.456   4.977 -0.0641 -0.0303  0.2317
16477W        W34001  11.115   1.708  11.901 -0.2334 -0.3313  0.0923
16478W        W34002  17.326  15.724  13.376  0.0386 -0.1247 -0.2628
16479W        W34003   1.100   3.708   4.272 -0.3171  0.1430  0.5041
16480W        W34004   0.378  10.166  15.054 -0.0694 -0.1523 -0.1022
16481W        W34005   6.419   4.437  15.654 -0.2306  0.2884  0.2155
16482W        W34006  12.071   1.237   4.563  0.2779 -0.0352 -0.0329
16483W        W34007  11.877  15.579  11.983 -0.1083 -0.0685  0.4001
16484W        W34008   7.848  16.198   4.325  0.2174  0.3469 -0.0163
16485W        W34009  13.025   9.628   0.826  0.3165  0.0966 -0.0949
16486W        W34010   6.442  14.829   2.901  0.1963 -0.3791 -0.0300
16487W        W34011  15.513   8.997  14.899  0.0653  0.1335  0.0487
16488W        W34012   9.921   4.245  11.091 -0.1133 -0.0968  0.3159
16489W        W34013   4.023  11.549  11.079 -0.0168 -0.2555 -0.3059
16490W        W34014   4.662   7.616  14.503  0.2453 -0.1137  0.1283
16491W        W34015   1.017  15.037   3.760  0.2562  0.3543  0.0720
16492W        W34016   4.790  13.551   0.709  0.3188  0.2476  0.1209
16493W        W34017   0.038   0.693  12.191  0.2335 -0.0811 -0.0158
16494W        W34018   8.303  10.668  15.795  0.1601 -0.3134  0.1687
16495W        W34019   2.534  14.610  12.361  0.3912  0.0074  0.1397
16496W        W34020  16.311   7.830  14.359 -0.0524 -0.0338  0.1360
16497W        W34021  17.611   7.493   0.423 -0.0174  0.1862  0.1199
16498W        W34022   7.057  12.687   0.790 -0.0823  0.3468  0.1704
16499W        W34023   8.531   3.980  14.429  0.2442  0.0308  0.3006
16500W        W34024  14.669   0.628  14.703  0.2194  0.2047 -0.0746
16501W        W34025  15.148   1.769  11.006  0.0750 -0.2463 -0.1357
16502W        W34026   9.581   2.979   4.815 -0.2068  0.1618 -0.0740
16503W        W34027  15.134   3.953   0.934 -0.2088  0.0538 -0.0354
16504W        W34028  17.091  15.658  15.704  0.1469  0.1512 -0.5251
16505W        W34029   1.372  10.949   3.290  0.1101 -0.2518  0.0055
16506W        W34030   0.482   0.414  11.950  0.4285 -0.0642 -0.1697
16507W        W34031   0.248   3.592   3.974 -0.0347 -0.1185 -0.0687
16508W        W34032   4.005   0.585   1.340 -0.2782 -0.0465  0.2897
16509W        W34033  13.892  14.365   4.517  0.1577  0.4026 -0.0291
16510W        W34034   8.757   1.057   3.006  0.2413  0.0365 -0.0880
16511W        W34035  12.539  14.772  16.140  0.3364 -0.1706 -0.2504
16512W        W34036  14.793   2.668   3.559  0.1039  0.2932 -0.2520
16513W        W34037   8.688  14.052  14.188 -0.0813 -0.0479  0.2454
16514W        W34038   2.340  13.240   3.068 -0.0117  0.3883  0.0113
16515W        W34039   7.739   2.311   3.372 -0.1912 -0.0512  0.2936
16516W        W34040   0.293   9.280  14.008  0.1589 -0.1549 -0.0113
16517W        W34041   1.993   2.669  12.641  0.1947 -0.1456 -0.0206
16518W        W34042   2.696   7.294   0.008 -0.0693 -0.0311 -0.0953
16519W        W34043  16.665  14.029  12.882 -0.4126 -0.1157  0.0394
16520W        W34044  11.720   0.307  12.788  0.0731 -0.1117  0.2002
16521W        W34045   2.907   4.591   3.279  0.3585  0.1974  0.1127
16522W        W34046   8.074  13.309  13.021 -0.1690 -0.0769 -0.2517
16523W        W34047  10.797   3.442   1.623  0.0770  0.0348  0.1079
16524W        W34048  12.480   9.932  15.978 -0.1292 -0.1649 -0.0074
16525W        W34049  12.147   6.532  13.915 -0.0911 -0.0233 -0.3676
16526W        W34050   8.155   3.741   3.041  0.2220 -0.2263  0.1513
16527W        W34051  13.902   6.451  13.794 -0.1964  0.0271  0.7089
16528W        W34052  11.463   7.774  11.343  0.0915 -0.1212 -0.1288
16529W        W34053   1.530  16.501   4.721 -0.1068  0.2488 -0.3237
16530W        W34054  12.418   6.651   1.226  0.3015  0.0618 -0.0129
16531W        W34055   1.400   0.334   1.570  0.1076 -0.2959  0.1162
16532W        W34056  17.721   2.491  15.626  0.1279 -0.1611 -0.1588
16533W        W34057   5.917  15.085  11.744 -0.2293 -0.5432 -0.0383
16534W        W34058  15.730  15.421   3.230 -0.0261 -0.1003 -0.3876
16535W        W34059  12.567   4.457   2.155  0.1963  0.1201 -0.0625
16536W        W34060   1.429   9.470  14.790  0.1664  0.2038 -0.0553
16537W        W34061   6.443   8.447  14.355  0.2574  0.1075  0.0976
16538W        W34062  10.829  15.493  15.351  0.2612 -0.2957 -0.0875
16539W        W34063  16.978   5.143  14.000  0.1515 -0.2442  0.0985
16540W        W34064   0.037   0.801  14.215 -0.1773  0.1816  0.1393
16541W        W34065  17.389   0.793   3.031 -0.0934  0.1355  0.1183
16542W        W34066  17.923   7.238   0.059 -0.0067 -0.3198 -0.2926
16543W        W34067   8.799   4.531   1.419 -0.0782  0.0269 -0.4093
16544W        W34068   1.532   4.178   4.448  0.0255  0.0258  0.1809
16545W        W34069  14.212   5.109   5.566  0.0851 -0.2091  0.2940
16546W        W34070   4.286   2.524  14.420 -0.0973 -0.0463 -0.1795
16547W        W34071   8.622  10.483  12.996  0.0086 -0.1736  0.0572
16548W        W34072   4.992   0.211  11.647  0.0010  0.1504  0.0920
16549W        W34073   2.909  17.202  12.447  0.0656  0.0525  0.0451
16550W        W34074  14.388   8.775  11.781 -0.2027  0.1586  0.0867
16551W        W34075   5.112   8.148  14.766 -0.0880  0.1011  0.1515
16552W        W34076   4.857  17.175  12.219 -0.1017  0.0531 -0.1852
16553W        W34077   1.878  10.712  14.590  0.1699 -0.3575  0.2320
16554W        W34078   4.434  17.437   1.036  0.2479 -0.1585 -0.0563
16555W        W34079   1.119  15.072  14.840  0.2870 -0.1324 -0.0391
16556W        W34080  16.097  12.471  16.006 -0.1501  0.2230  0.3242
16557W        W34081   0.298  15.329  11.719 -0.2345 -0.0801 -0.0612
16558W        W34082  12.648  15.450  12.878  0.1350 -0.1102  0.1216
16559W        W34083   7.391  15.180  16.080 -0.2431  0.2448  0.0959
16560W        W34084  16.174  10.296  11.465  0.4932 -0.3116 -0.1119
16561W        W34085   0.390  13.107   2.107 -0.0646 -0.1325 -0.2887
16562W        W34086   3.188  13.405   4.994 -0.0564 -0.1470 -0.1730
16563W        W34087   4.604   9.952   3.612 -0.0912  0.1297 -0.3832
16564W        W34088   8.294   3.455   2.021  0.1697  0.2398  0.1720
16565W        W34089  10.499   0.605  10.986 -0.0394 -0.0117 -0.1203
16566W        W34090  11.202  14.491  14.709 -0.0252  0.1882  0.0624
16567W        W34091   7.802  16.800  11.982 -0.0615  0.1461  0.1817
16568W        W34092   8.583  17.071   1.378  0.1060 -0.1704  0.3251
16569W        W34093   4.503   3.188   0.303 -0.0058  0.4425 -0.0715
16570W        W34094  12.309  14.661  13.051 -0.2644 -0.0752 -0.0458
16571W        W34095   0.779   4.252   5.399 -0.1226 -0.0545 -0.1544
16572W        W34096  17.742   4.934   5.066 -0.2159  0.1360 -0.1313
16573W        W34097   4.947  16.721   0.837 -0.0117 -0.0376 -0.0392
16574W        W34098   5.277   7.192  11.261 -0.2919 -0.0021  0.1249
16575W        W34099  12.169   8.439  12.946 -0.1703 -0.0032  0.2497
16576W        W34100   4.403   4.663  14.148  0.1460 -0.1613 -0.2842
16577W        W34101   1.745   9.792  13.170 -0.0632 -0.1773  0.1167
16578W        W34102   1.109   9.098  14.450 -0.0827 -0.1166  0.2151
16579W        W34103  13.104  10.922  14.813  0.1439  0.1012 -0.1949
16580W        W34104   2.471  15.740  11.624 -0.3274  0.0851  0.1315
16581W        W34105  15.003   9.351   1.632 -0.1918 -0.1174  0.2089
16582W        W34106   2.155   6.344  15.719  0.2331 -0.0858 -0.0573
16583W        W34107   1.979   4.162  15.632 -0.1578 -0.0758  0.0398
16584W        W34108  14.352  12.049   2.533 -0.1093 -0.0243 -0.0032
16585W        W34109   9.407  17.020   0.271 -0.0514  0.1809  0.3059
16586W        W34110   2.631   3.774   2.650  0.1088  0.1437 -0.1420
16587W        W34111  12.072  15.411   5.676  0.2484 -0.1262  0.4809
16588W        W34112   9.268  13.249  16.145  0.2932 -0.0187  0.2316
16589W        W34113   1.742  14.388  16.082  0.1088 -0.0079 -0.0953
16590W        W34114  14.639   0.206  15.438 -0.0693 -0.2131  0.1037
16591W        W34115  11.021   0.517  11.026  0.1869  0.0734 -0.0746
16592W        W34116  12.228   5.398   3.740 -0.3782 -0.2894 -0.0781
16593W        W34117   8.056  17.321   4.164  0.2184 -0.0707  0.1167
16594W        W34118   1.492  17.209   0.115  0.3079  0.1575 -0.1555
16595W        W34119  13.822   2.924   2.292 -0.5087 -0.1749 -0.0608
16596W        W34120  12.829   4.792   1.920 -0.1503 -0.1629  0.0251
16597W        W34121  13.924  11.161  15.395 -0.1144  0.1395 -0.0581
16598W        W34122  11.122   8.838  11.129 -0.0212  0.2146  0.0212
16599W        W34123   4.307  13.478   5.053  0.2633  0.2202 -0.2362
16600W        W34124   9.094   7.021  10.315 -0.0655 -0.1650 -0.1219
16601W        W34125  14.215   4.597  13.617  0.1815  0.2401 -0.0055
16602W        W34126   4.699   7.818   1.224  0.1202 -0.0423  0.2854
16603W        W34127   8.087  11.271  14.569  0.0763 -0.1220  0.0271
16604W        W34128  16.172  11.925   4.024 -0.0780 -0.1339 -0.1273
16605W        W34129  15.470   8.298   3.072  0.0677  0.1407 -0.0293
16606W        W34130   5.782  10.509   3.144  0.2878  0.0217 -0.2522
16607W        W34131  10.288   2.212   2.339 -0.3321 -0.1128 -0.1344
16608W        W34132  14.970  15.856   3.786  0.0149  0.3283 -0.1466
16609W        W34133   6.699  17.645  14.219 -0.2015 -0.0228  0.2550
16610W        W34134   8.403  13.371   0.201  0.0837 -0.0224 -0.0260
16611W        W34135   2.249   8.067   2.695 -0.0776  0.1205 -0.2313
16612W        W34136  17.424   9.475   1.930  0.3177  0.0575 -0.0848
16613W        W34137  11.640   6.053   2.297 -0.2494  0.2105 -0.1134
16614W        W34138   1.369   7.709   3.911 -0.0026  0.0252 -0.1742
16615W        W34139   8.104  11.419   5.066  0.0184 -0.2042  0.0870
16616W        W34140   4.008  12.770  16.138 -0.0148 -0.1334  0.0969
16617W        W34141  12.855  13.558   4.828 -0.0664 -0.3571  0.3113
16618W        W34142   4.465   3.495  11.903 -0.1966 -0.1550 -0.1207
16619W        W34143  16.902   1.359  12.464  0.0447  0.2675  0.0902
16620W        W34144   0.050  14.738   1.842  0.1254 -0.1942  0.1294
16621W        W34145  14.763   3.717  14.158  0.1572  0.1067 -0.1226
16622W        W34146   5.912   3.939  13.636 -0.1335 -0.1964 -0.2800
16623W        W34147  11.916  14.894   4.862  0.1021  0.1314 -0.0614
16624W        W34148  15.713  14.588  14.589 -0.0062 -0.1599  0.1129
16625W        W34149  16.113   3.914   3.944 -0.0587 -0.0489 -0.0523
16626W        W34150  14.237   1.802  11.452  0.0546  0.2353 -0.3039
16627W        W34151   4.337  10.819   0.311  0.0038 -0.2761  0.2964
16628W        W34152  14.092  10.977  14.505  0.1494  0.2256  0.2294
16629W        W34153   1.934  17.028   2.451  0.0787  0.0462 -0.3002
16630W        W34154  17.523  14.121   2.661  0.2996  0.2036 -0.2201
16631W        W34155   1.712   5.224  14.500 -0.0723 -0.2871 -0.1242
16632W        W34156   2.244   9.121   3.728 -0.0519 -0.0374 -0.1284
16633W        W34157  15.585  17.668  14.199 -0.3333  0.2194  0.3839
16634W        W34158   1.766   4.729   2.722 -0.0410 -0.0370  0.1981
16635W        W34159   4.927   7.491  13.097 -0.1508 -0.0947  0.1343
16636W        W34160  10.479   5.437  14.386  0.2656  0.1904 -0.4237
16637W        W34161  17.258   5.375   1.478 -0.1534 -0.2971 -0.0234
16638W        W34162  12.790  15.639  12.193 -0.0336  0.3464 -0.0071
16639W        W34163   6.752  11.018  13.431 -0.0714 -0.2579  0.1110
16640W        W34164   7.494   3.553  14.981 -0.0828  0.0429  0.0327
16641W        W34165   7.137   1.227   2.301 -0.1634 -0.0478  0.2248
16642W        W34166  13.962   7.863  12.049  0.3165  0.2122  0.0536
16643W        W34167   6.935  10.988  12.357  0.1577 -0.0445 -0.4215
16644W        W34168   0.547  14.427   2.656 -0.0060  0.0116 -0.1398
16645W        W34169  11.367  10.882   4.354 -0.2186  0.1558  0.0372
16646W        W34170  11.969  13.326   5.448  0.2265 -0.2489  0.2860
16647W        W34171  11.176   7.351  15.496 -0.3989 -0.0472 -0.3376
16648W        W34172  14.323  17.426   1.373 -0.0581  0.0263  0.1529
16649W        W34173   5.401  12.751   4.465 -0.2178 -0.2080 -0.0536
16650W        W34174   9.843  17.384  11.214 -0.0181  0.1169  0.2198
16651W        W34175   2.553  11.008   1.270  0.0295 -0.0496 -0.0057
16652W        W34176   2.526  12.113   3.767  0.1036  0.1331 -0.1314
16653W        W34177   9.932  15.911  13.683 -0.1775 -0.3868  0.1652
16654W        W34178  10.365   8.073  12.203 -0.1002  0.0746 -0.1567
16655W        W34179   2.382  12.089   1.989  0.1751  0.1577 -0.3927
16656W        W34180   8.578   3.697  14.074 -0.0821  0.1437  0.0609
16657W        W34181  15.415   1.166   4.414 -0.0630  0.1032  0.1657
16658W        W34182  10.351   5.425   1.237 -0.1016  0.0079 -0.0411
16659W        W34183  10.968   8.229   0.117 -0.1428 -0.2807  0.1815
16660W        W34184  12.335  10.637   4.666 -0.1665  0.3552 -0.1742
16661W        W34185  11.924   4.292  11.038 -0.3156  0.0608  0.0500
16662W        W34186   2.083  16.846  10.887  0.0086 -0.2404  0.0420
16663W        W34187   0.729   3.377  14.115 -0.1240  0.4500 -0.0367
16664W        W34188  15.263   8.539  11.929 -0.0645 -0.0912 -0.0541
16665W        W34189  17.500   6.627  15.459  0.0589  0.0083 -0.0116
16666W        W34190   0.589  11.575  11.966 -0.1591  0.0154 -0.2296
16667W        W34191  16.963  13.409   4.487  0.2663 -0.4679 -0.1711
16668W        W34192   4.187   3.062  13.218  0.1111  0.1452  0.1968
16669W        W34193  13.184   9.745  15.252 -0.2692 -0.3213  0.0466
16670W        W34194  10.709  12.674  11.677  0.4904 -0.2402  0.0334
16671W        W34195   3.322   1.334  15.276 -0.2851  0.1222 -0.5725
16672W        W34196  13.167  13.483  11.909  0.3637  0.1343  0.0476
16673W        W34197   2.803   9.580   4.840 -0.2532 -0.0182 -0.1753
16674W        W34198   2.863  13.088  13.493 -0.2751 -0.0621  0.0048
16675W        W34199   0.106  11.802   2.237 -0.0138 -0.0401  0.1629
16676W        W34200   7.470   5.986  14.484  0.1875  0.1276 -0.2973
16677W        W34201  11.317   3.841  12.154 -0.1121  0.2924 -0.2754
16678W        W34202   7.851  10.024  10.314  0.1828  0.0755 -0.1650
16679W        W34203  14.884  15.459   1.520 -0.0485  0.0898  0.0028
16680W        W34204   6.520  14.981   4.385  0.1241  0.2495 -0.0307
16681W        W34205  12.473  15.238  15.926  0.1781  0.0799  0.0764
16682W        W34206  12.661  17.267   4.732  0.0267  0.1175  0.2847
16683W        W34207   9.096   3.113   4.056 -0.0285 -0.0179  0.1508
16684W        W34208   2.878  16.464   5.292 -0.1160  0.0984 -0.4162
16685W        W34209  12.930   7.277  13.631  0.1192 -0.1217 -0.3251
16686W        W34210   2.950  10.354  15.851 -0.1959  0.2868 -0.3146
16687W        W34211  17.212  12.385   0.527 -0.0588 -0.1825  0.0703
16688W        W34212   7.718   7.122   4.150 -0.0382  0.0789  0.0523
16689W        W34213  10.797   5.457  13.085 -0.1398 -0.0288  0.1078
16690W        W34214  12.399  17.722  13.641  0.0067 -0.1294  0.1685
16691W        W34215   6.359  15.506   4.358 -0.0039 -0.0052 -0.1582
16692W        W34216   9.852   9.081   4.172  0.0279 -0.2163 -0.1468
16693W        W34217  15.559   0.951   5.509  0.0289 -0.0975  0.0903
16694W        W34218   9.948   0.708   1.637 -0.1543 -0.2066 -0.0894
16695W        W34219   2.770   6.143  14.928 -0.2825  0.1064  0.1461
16696W        W34220  10.662   4.034  15.432 -0.3511 -0.1298 -0.0547
16697W        W34221   8.633   5.708  15.245 -0.0676  0.1339 -0.2782
16698W        W34222   6.573   0.442  14.976  0.1556 -0.5073  0.1482
16699W        W34223  13.147  15.265   2.151 -0.0078 -0.0336  0.2022
16700W        W34224   7.529  10.856  15.364  0.2562  0.4314  0.3703
16701W        W34225  13.561   6.497   4.578 -0.2652  0.1484 -0.0944
16702W        W34226   9.531  10.451  13.272  0.0775  0.1529  0.2305
16703W        W34227   3.636  15.663  11.058  0.0196  0.2129  0.1750
16704W        W34228  12.160  15.095   1.762  0.1456 -0.0517 -0.0036
16705W        W34229  15.954  16.617   0.035  0.0682 -0.0429 -0.1631
16706W        W34230   9.215   7.597  14.539  0.2516 -0.1274 -0.0011
16707W        W34231  11.662   8.769   4.280  0.1104  0.0500 -0.1767
16708W        W34232  16.147  12.799  13.501 -0.1607  0.0171 -0.0926
16709W        W34233  17.586   5.228  11.408  0.1774 -0.0014  0.0004
16710W        W34234   7.500  14.926   5.802  0.2636  0.0722  0.4152
16711W        W34235   1.901  12.118   0.215  0.1561 -0.2024  0.2905
16712W        W34236  10.525   8.548   4.653  0.1296  0.3585  0.2205
16713W        W34237   3.116   5.779   5.363 -0.1466  0.2446  0.0818
16714W        W34238  17.277  16.114  13.029 -0.0971  0.2315 -0.1841
16715W        W34239   5.931   6.406   1.709 -0.2993 -0.0680  0.0914
16716W        W34240   3.740   6.645  12.391 -0.2700  0.2089  0.2689
16717W        W34241   8.917  12.081  14.734 -0.0832  0.2128  0.0054
16718W        W34242   6.526  15.578  13.230 -0.5068 -0.0047 -0.0570
16719W        W34243  15.603  14.937  12.139  0.2218  0.1908 -0.1647
16720W        W34244   3.890  15.545   0.745  0.1100  0.2284 -0.2606
16721W        W34245   5.519  15.797  15.615 -0.0879  0.0114 -0.1265
16722W        W34246  10.970   5.980  11.881  0.2674 -0.0629 -0.0784
16723W        W34247  14.222   4.331   3.931  0.1112 -0.0202 -0.2880
16724W        W34248  11.163  16.992  11.364  0.0635 -0.1308 -0.1180
16725W        W34249  16.421   9.808  11.524  0.0390 -0.0039  0.2611
16726W        W34250  15.578   3.967   3.800 -0.1730 -0.0911 -0.2968
16727W        W34251   9.418   1.228   0.784  0.0568  0.0390 -0.0146
16728W        W34252   0.068   5.907  11.814  0.0823 -0.1605  0.0427
16729W        W34253   9.553   0.798   1.290 -0.0263  0.2448 -0.2010
16730W        W34254   7.909   6.736   3.069 -0.0299  0.0882 -0.0270
16731W        W34255  11.373  12.546  11.665 -0.0002  0.1218 -0.1328
16732W        W34256   1.526   4.409   3.659 -0.0138  0.0899 -0.0016
16733W        W34257   0.541   4.030  11.604  0.0099 -0.0156 -0.3464
16734W        W34258  15.585  16.401   3.907 -0.1094 -0.3474  0.1745
16735W        W34259   3.475  11.388  13.257  0.0144  0.1933  0.2472
16736W        W34260  15.679   9.688   1.766 -0.1100 -0.2562 -0.4026
16737W        W34261  16.817  10.027  11.123  0.2909 -0.2325  0.3453
16738W        W34262   1.164  16.668  16.044 -0.1132  0.1991  0.0048
16739W        W34263  17.284  14.901   0.549  0.0274 -0.1515  0.0697
16740W        W34264   0.516  16.938   3.889 -0.1349 -0.0689 -0.2222
16741W        W34265   8.180   0.498  13.469 -0.2257 -0.0364 -0.1734
16742W        W34266  10.563  15.513   4.974 -0.1724 -0.3079  0.0482
16743W        W34267  16.447  15.112   3.133 -0.0097  0.1907  0.2364
16744W        W34268  14.043   9.736  14.808 -0.0759 -0.2174 -0.1287
16745W        W34269  16.114   2.631   0.047  0.3772  0.0466 -0.1510
16746W        W34270   2.872   1.418  12.755  0.1422 -0.0654  0.0684
16747W        W34271   5.061   4.710  14.996 -0.4253  0.1828 -0.3264
16748W        W34272   5.508  12.274  16.190  0.4576 -0.1852  0.1429
16749W        W34273  12.988   4.288   4.000  0.0155 -0.0143  0.1988
16750W        W34274   8.889   9.229   0.679 -0.3275 -0.1091 -0.0987
16751W        W34275  13.161   4.437  12.190  0.3297 -0.0114  0.1543
16752W        W34276  12.344   0.513   3.336  0.0658  0.2578  0.0166
16753W        W34277   5.729  17.809   5.494  0.1160  0.0710 -0.0103
16754W        W34278   7.172  11.305  13.173  0.0285  0.2410  0.1357
16755W        W34279   8.406  11.803   5.359 -0.2943  0.1263 -0.0017
16756W        W34280   6.080   3.798   1.409  0.0848  0.0925 -0.1091
16757W        W34281  12.316   1.576   1.655  0.1819 -0.0480 -0.0968
16758W        W34282   7.896   9.251  10.576  0.0854  0.4473  0.0571
16759W        W34283  13.651   5.261  12.577  0.2525  0.1204 -0.0336
16760W        W34284  12.078  17.284  11.197  0.2403  0.1382 -0.2574
16761W        W34285  14.927  16.786  12.111 -0.3204  0.2283  0.1299
16762W        W34286  17.587   3.286   3.478 -0.1139 -0.0406  0.2498
16763W        W34287  15.279   4.893   3.628 -0.1121 -0.1356  0.2919
16764W        W34288   6.391   9.408  14.769 -0.1309 -0.1435 -0.2963
16765W        W34289   7.263   0.658  13.984 -0.0784 -0.0692 -0.0914
16766W        W34290  14.029   9.674  11.875  0.0041 -0.2362  0.3395
16767W        W34291   8.298  14.913  12.813 -0.0259 -0.2848 -0.0184
16768W        W34292  16.733   1.879   0.640  0.0488  0.2140 -0.1910
16769W        W34293   7.248   5.011  13.261  0.1514 -0.1655  0.1763
16770W        W34294  17.386   2.246   0.400 -0.0404  0.0776 -0.2160
16771W        W34295   9.780  15.600  16.131 -0.1753  0.2506  0.1777
16772W        W34296   3.264   4.240   4.756  0.0208  0.1429 -0.0334
16773W        W34297   8.147  16.400   2.221 -0.0847 -0.1454  0.0586
16774W        W34298  17.505   1.924  14.684 -0.2027 -0.0191  0.1711
16775W        W34299  10.606   6.463   2.891 -0.2308  0.0940 -0.0475
16776W        W34300  13.137  11.020   2.432 -0.0430  0.0101 -0.0183
16777W        W34301  10.756   0.315   1.805 -0.0513 -0.1484 -0.1531
16778W        W34302   0.820   1.158  13.884 -0.0336  0.1863  0.3079
16779W        W34303   8.465  10.138   1.135  0.3132 -0.0057  0.1982
16780W        W34304   4.747  16.831   3.478  0.0138 -0.3264  0.3894
16781W        W34305   6.466   6.681  15.311 -0.1262 -0.1927  0.1259
16782W        W34306  11.251  17.819  15.518 -0.1471 -0.1137  0.1045
16783W        W34307  17.704   0.844  13.802 -0.1728 -0.1066  0.2729
16784W        W34308   5.790   1.670   2.657  0.1225  0.0652 -0.1414
16785W        W34309   7.653  17.242  15.458  0.0543 -0.0584  0.1594
16786W        W34310  10.766  17.170  13.157 -0.3614 -0.1744  0.0804
16787W        W34311   6.456  17.407   0.093  0.0656  0.0082 -0.1049
16788W        W34312   9.973   5.089  12.057  0.3723  0.1622 -0.3425
16789W        W34313   9.226   8.810  13.952 -0.1164 -0.2198 -0.2185
16790W        W34314   7.152   5.790   0.169  0.1543  0.0691 -0.0712
16791W        W34315  11.193   1.899  10.972  0.3247  0.3157  0.1127
16792W        W34316  14.096  13.939   5.745  0.0768 -0.0164 -0.0070
16793W        W34317  14.510  12.756  13.518 -0.0313  0.0220  0.0264
16794W        W34318  12.486   6.869  12.983 -0.0632 -0.0066  0.2457
16795W        W34319  16.772   1.703   3.345  0.3238 -0.0077 -0.0545
16796W        W34320   1.174   7.624   0.439 -0.0246  0.0992 -0.1888
16797W        W34321   3.803  16.203  11.947  0.1070 -0.0096  0.1070
16798W        W34322   5.050  14.334   2.183  0.0102  0.1120 -0.2123
16799W        W34323   5.562   6.079   3.536  0.2667  0.0011  0.0723
16800W        W34324   6.506   1.270  12.576  0.0274 -0.1893  0.2057
16801W        W34325   2.118  16.805  12.826  0.1405 -0.0052 -0.0328
16802W        W34326   9.423   8.989   3.028  0.1496  0.0908 -0.3833
16803W        W34327  12.092  15.354   3.811  0.2031  0.1425 -0.1799
16804W        W34328   0.472  15.078   2.390 -0.0309 -0.2086  0.3610
16805W        W34329   6.097   2.481   0.773 -0.1448  0.0418 -0.1300
16806W        W34330   7.474   7.012   1.492 -0.0306  0.2372  0.0493
16807W        W34331   6.704  14.694  12.022 -0.2839  0.1750  0.1006
16808W        W34332   6.630   5.114  16.048  0.1698  0.1177  0.1310
16809W        W34333   7.278   9.984  15.808 -0.0693 -0.1346  0.0275
16810W        W34334  13.595  10.636  13.361  0.3990 -0.3807  0.2215
16811W        W34335  15.184   1.423   3.937  0.2841  0.0296  0.1196
16812W        W34336  14.268  11.901  13.258 -0.1008  0.0936 -0.1092
16813W        W34337   0.103   8.490   4.491  0.2060 -0.0101 -0.0785
16814W        W34338  10.262   6.044  11.435  0.0425  0.2362  0.0268
16815W        W34339   4.797  13.230   1.692  0.2431 -0.1536  0.0214
16816W        W34340  10.884  17.316   0.348 -0.0343  0.0497 -0.2712
16817W        W34341   7.711   6.869   4.627  0.1723 -0.4407  0.0842
16818W        W34342  12.338  11.203   0.832  0.1306  0.1544 -0.1039
16819W        W34343   3.524   8.808  12.407 -0.3076 -0.0219 -0.0761
16820W        W34344  14.131  13.704  12.598 -0.0880 -0.1824  0.2239
16821W        W34345  11.256  15.478  14.491  0.1849  0.0091 -0.2142
16822W        W34346   0.874   2.784   3.545 -0.3329 -0.2305  0.0249
16823W        W34347  14.718  16.490  12.869 -0.2906 -0.0580 -0.1820
16824W        W34348   4.562   3.679   0.286 -0.0947  0.0246  0.0242
16825W        W34349   9.824   6.683  15.895 -0.1803  0.1304 -0.3363
16826W        W34350  13.491  10.977  15.635 -0.0210 -0.3145 -0.1710
16827W        W34351  13.196  15.435   3.597  0.0856  0.0347  0.0407
16828W        W34352  11.467   7.603  14.869 -0.0161 -0.2167  0.0094
16829W        W34353   6.819  14.706  11.528  0.0020 -0.0935 -0.1614
16830W        W34354  12.029   8.923  13.011 -0.3172 -0.1242  0.1490
16831W        W34355  11.987   9.669  11.834 -0.1919  0.1012  0.1558
16832W        W34356  10.957   4.867   2.379  0.1625 -0.1423 -0.0857
16833W        W34357   4.858  16.273   0.094 -0.2182  0.1391  0.1966
16834W        W34358   4.087   4.484   2.970  0.1646  0.1351  0.0944
16835W        W34359   0.067  12.253   4.357 -0.0734 -0.2893 -0.1217
16836W        W34360   6.643  12.968  11.737 -0.4009  0.3758 -0.1554
16837W        W34361   8.528  13.748   2.456 -0.2860 -0.0067  0.0093
16838W        W34362   9.903  13.321   5.124 -0.1420  0.1624 -0.0457
16839W        W34363   5.110   7.898   4.450  0.2523  0.0914  0.3003
16840W        W34364   8.496   1.460  12.356 -0.1703 -0.0902 -0.1128
16841W        W34365   5.493  12.456  14.488 -0.0278 -0.0243 -0.0151
16842W        W34366   6.604   6.630  13.560  0.1674 -0.1809 -0.1185
16843W        W34367  16.777  11.997  15.560 -0.0466  0.0565  0.2517
16844W        W34368   1.200   8.987   3.974  0.1854  0.0526  0.0722
16845W        W34369   6.437  15.991   4.597 -0.0519  0.0407 -0.4266
16846W        W34370   5.978  16.831  15.893  0.2720 -0.0530 -0.0664
16847W        W34371   2.439   4.781   3.211 -0.2994 -0.0990  0.1706
16848W        W34372   2.959   7.597  13.134 -0.1183 -0.1027 -0.0567
16849W        W34373   5.677   8.154  12.086 -0.1183 -0.1087 -0.0028
16850W        W34374  15.888   7.988  10.888 -0.1913 -0.1401 -0.4888
16851W        W34375   9.330   4.968  13.124 -0.3179  0.0223 -0.0712
16852W        W34376  14.062  16.881  10.386  0.2341 -0.4321 -0.0920
16853W        W34377   4.086  17.415  10.600  0.1631 -0.0166  0.4004
16854W        W34378  10.261   5.969   2.634 -0.1758  0.1602 -0.1043
16855W        W34379   5.054  10.580  10.815 -0.1737  0.1743 -0.0336
16856W        W34380   7.725   2.624   2.157  0.1706  0.1181 -0.1052
16857W        W34381   0.051   6.925   4.529  0.2772  0.0404  0.1378
16858W        W34382   1.354   9.724  11.686 -0.1905  0.1007 -0.2393
16859W        W34383   3.810   6.245   0.191  0.0481 -0.3431  0.0983
16860W        W34384   6.548   5.027  14.548 -0.1032 -0.0692  0.1495
16861W        W34385   1.404   7.985  15.081  0.0319 -0.0678 -0.2651
16862W        W34386  17.239  16.095  14.894  0.1880 -0.2710 -0.0121
16863W        W34387   5.575   6.259   3.048 -0.2195  0.0027 -0.0108
16864W        W34388   0.441  11.599   1.852 -0.0521  0.1494  0.4013
16865W        W34389  16.276  14.177   0.344 -0.0658  0.0469  0.3105
16866W        W34390   6.928   6.437  15.816  0.0497 -0.1647  0.2364
16867W        W34391   0.872   5.668  16.080 -0.0131  0.1030 -0.0323
16868W        W34392  14.451  10.012  13.487  0.0896  0.0534  0.1670
16869W        W34393   2.552   2.965  14.120 -0.2482 -0.2591 -0.2006
16870W        W34394   0.885   9.231  15.879 -0.1983 -0.2042 -0.2144
16871W        W34395   4.139  16.696   4.082  0.1246 -0.2253  0.3978
16872W        W34396  13.080  13.002  15.790  0.1279  0.5385 -0.1286
16873W        W34397  12.040   4.481   1.379 -0.2997 -0.0285  0.0028
16874W        W34398  15.303  16.356   3.528 -0.0751 -0.1933 -0.4885
16875W        W34399  16.119   5.107   3.811 -0.1222 -0.2199 -0.0160
16876W        W34400  11.299   5.779  13.266  0.0898 -0.2479  0.0256
16877W        W34401  14.403   9.539  12.217 -0.1833 -0.0774 -0.0989
16878W        W34402  16.398  16.673  14.777 -0.0429 -0.0221  0.1920
16879W        W34403   9.366   1.857  15.480 -0.2617 -0.4843 -0.2261
16880W        W34404   8.715   5.703  13.550 -0.0585  0.0512  0.2230
16881W        W34405   9.287  13.230   0.365  0.2127  0.1125 -0.0214
16882W        W34406   3.624   4.644   4.701 -0.2281  0.2810 -0.2734
16883W        W34407  12.506   6.249  11.068  0.0965  0.1810 -0.0322
16884W        W34408  14.527  17.468   4.114  0.0287 -0.0008  0.3516
16885W        W34409  15.308  15.894   1.387  0.0088  0.0623 -0.2780
16886W        W34410   8.154   8.407  11.648 -0.0001  0.0281  0.0236
16887W        W34411  10.002   4.041  12.057 -0.0508 -0.1642  0.2635
16888W        W34412   6.845   7.799   4.433 -0.1354  0.1653  0.2509
16889W        W34413   5.906  13.475  16.063 -0.1182  0.1477  0.1747
16890W        W34414   1.607  13.272   1.106 -0.3598  0.1402  0.0505
16891W        W34415   7.899  13.950  14.381  0.1011  0.1369  0.2574
16892W        W34416   4.813   6.957  14.003  0.0465 -0.2223  0.0391
16893W        W34417   0.460   0.679  12.435 -0.2419 -0.1560  0.0169
16894W        W34418   5.399   3.118   1.712 -0.0195  0.1195 -0.1859
16895W        W34419  10.465  11.936  14.152 -0.3684  0.0066 -0.0621
16896W        W34420   4.472   6.181   2.205 -0.0299  0.1278 -0.2626
16897W        W34421  16.612   1.934  14.630  0.3264 -0.1176  0.0370
16898W        W34422   1.421   2.536   3.856  0.0272 -0.1284  0.1959
16899W        W34423   7.473  16.896  11.609  0.1076  0.0757  0.2402
16900W        W34424   4.246   8.492   4.756  0.0658  0.0335  0.1898
16901W        W34425   9.978  13.395   0.995  0.0466 -0.2398  0.0753
16902W        W34426   4.000   5.261   1.448  0.1968  0.1165  0.0669
16903W        W34427  17.835  13.428  15.273 -0.2774 -0.2556 -0.1151
16904W        W34428  14.128  10.679  11.713 -0.0896  0.2681 -0.2059
16905W        W34429  11.146   4.251   0.416 -0.2223 -0.1009  0.1309
16906W        W34430   0.595   3.809  12.887  0.0261 -0.4012  0.1381
16907W        W34431  16.657  14.451  12.587  0.0457 -0.0078 -0.2215
16908W        W34432  17.471   8.317  14.785  0.2070 -0.1214  0.1270
16909W        W34433   8.281  15.730   5.093 -0.1296  0.1607 -0.0811
16910W        W34434   1.047   3.600   0.346  0.1052  0.1579 -0.0411
16911W        W34435   2.845   9.912   3.008 -0.0527 -0.1458  0.1279
16912W        W34436   6.829  12.345   2.234 -0.6144  0.1748 -0.0635
16913W        W34437   6.417   5.670  12.435 -0.0663  0.0258 -0.0547
16914W        W34438   7.097   4.997  15.280 -0.2463  0.0851 -0.1737
16915W        W34439   7.513  10.106   1.590 -0.2003  0.0993  0.5015
16916W        W34440  14.914  16.368   3.120 -0.0473  0.0604 -0.2669
16917W        W34441   0.601  10.743   2.575 -0.0083  0.0019 -0.1469
16918W        W34442  15.427  17.250   2.084  0.2145  0.0622  0.0187
16919W        W34443  16.753  10.756   2.713 -0.2340  0.0499  0.1514
16920W        W34444   3.249   6.458   2.904 -0.1050  0.2338  0.0052
16921W        W34445   7.553   7.577  13.275 -0.1761 -0.0801  0.0952
16922W        W34446   2.623   9.569  14.248 -0.0894  0.1355  0.0945
16923W        W34447   5.692   2.554   1.136  0.0301 -0.0345 -0.0178
16924W        W34448  17.595   3.117   1.580  0.1564 -0.0068 -0.1050
16925W        W34449  11.297  11.129  11.367 -0.1123 -0.1521 -0.2440
16926W        W34450  16.088   7.710   2.249 -0.3692 -0.0849  0.3064
16927W        W34451   3.641  16.950  12.984 -0.1897  0.1105 -0.3893
16928W        W34452   4.014   6.501   1.108 -0.0985 -0.0802  0.0211
16929W        W34453   3.291   2.045   2.705 -0.1495 -0.2585 -0.0692
16930W        W34454   2.414  16.637   1.820  0.0512  0.1119 -0.3253
16931W        W34455   7.309   5.635  14.861 -0.0062 -0.1422 -0.0041
16932W        W34456   4.427   3.003  15.738 -0.2389 -0.2928  0.0995
16933W        W34457  12.097  10.841   2.896  0.3656 -0.0008 -0.2527
16934W        W34458  10.838  13.471   1.575 -0.1981  0.0286 -0.0134
16935W        W34459  11.684  12.844   3.249 -0.1198  0.1952 -0.0266
16936W        W34460   1.401   2.763   2.257  0.0676  0.2520  0.2849
16937W        W34461  10.084   1.827  16.110  0.2441 -0.1669 -0.1289
16938W        W34462   1.227  12.570   4.107  0.0269 -0.0608  0.0494
16939W        W34463  11.394   6.945   4.065  0.1402 -0.0082 -0.0551
16940W        W34464   2.810   0.073   3.346  0.2489  0.0635 -0.3523
16941W        W34465   6.953  15.076  15.828  0.1676 -0.0430  0.2943
16942W        W34466  15.757   5.265  14.544 -0.1187  0.0753  0.1809
16943W        W34467  10.262   9.638   3.626  0.0928  0.2310  0.1778
16944W        W34468   7.341   9.924   0.103  0.0154  0.3095  0.0791
16945W        W34469  15.957   2.398   1.437  0.0044  0.1104  0.1363
16946W        W34470   4.513  10.614   4.047  0.1758 -0.1850 -0.2602
16947W        W34471  13.455   4.766   4.971 -0.0155 -0.2022  0.1272
16948W        W34472   4.953   8.340   4.616 -0.1255  0.0050 -0.2988
16949W        W34473   3.313  12.039   2.248  0.0048  0.3881  0.2773
16950W        W34474  12.771   7.712  13.134 -0.1127  0.0138  0.3517
16951W        W34475   4.492   8.077   4.580 -0.0330 -0.2886  0.0320
16952W        W34476   6.846   8.455   0.214  0.3393  0.2047  0.1563
16953W        W34477  15.741   1.762  13.490  0.3452  0.0030 -0.0006
16954W        W34478  11.888   0.353   0.453  0.0838  0.2490  0.1902
16955W        W34479   2.463  12.663   3.768 -0.0150  0.1602  0.0278
16956W        W34480  16.779   2.586   1.663  0.0095 -0.1157 -0.2365
16957W        W34481  16.339  15.251   0.497 -0.0706  0.1576 -0.0488
16958W        W34482  15.279  10.623  10.692  0.2628  0.0666 -0.2837
16959W        W34483   2.609   3.948  13.216 -0.0114 -0.3214  0.1826
16960W        W34484   0.918   5.105   4.261 -0.0556  0.0064  0.0759
16961W        W34485   0.020  10.648  12.284 -0.2283  0.0428  0.1447
16962W        W34486   6.654  14.206  11.857  0.2708 -0.0406  0.1999
16963W        W34487  10.060   1.350   3.013  0.0780 -0.1362 -0.0752
16964W        W34488  10.284  14.837   4.239  0.0000 -0.0232  0.1862
16965W        W34489   8.299  11.322  11.911 -0.1184 -0.1857  0.1288
16966W        W34490  11.364   9.767   2.256  0.1871  0.2323  0.1338
16967W        W34491   2.053   6.979   0.650  0.2737  0.1669  0.2800
16968W        W34492   1.882   6.531  13.225 -0.2473  0.1833 -0.0704
16969W        W34493   8.901   3.779  14.932  0.1331  0.1893 -0.0755
16970W        W34494   9.825   4.617  12.031  0.3763  0.2131  0.0405
16971W        W34495   5.958   9.841   1.830  0.1686  0.0929  0.0373
16972W        W34496   2.188   2.672  11.744 -0.0030 -0.0307 -0.0394
16973W        W34497   1.441  10.100  12.861 -0.1672  0.1104 -0.0244
16974W        W34498   4.534   4.640  13.564  0.2567  0.3054 -0.1183
16975W        W34499   7.874   2.549  16.122 -0.2113  0.1250 -0.0083
16976W        W34500   7.995  15.267   0.972 -0.1133  0.1797 -0.1253
16977W        W34501  10.121   6.309   1.664 -0.0455  0.1712  0.3597
16978W        W34502   0.443   7.808   2.963  0.0778 -0.0695  0.3103
16979W        W34503   9.410   0.287   3.642 -0.1663 -0.2192  0.0738
16980W        W34504  15.415   8.003  14.410 -0.1112  0.2346 -0.1494
16981W        W34505   5.232   7.349   5.034 -0.0304  0.0682 -0.0529
16982W        W34506   3.490   9.893   0.117  0.0178  0.0533  0.0241
16983W        W34507  13.047   2.502  15.956  0.1805 -0.2835  0.2615
16984W        W34508   2.899  14.212   0.646  0.0171 -0.1755  0.0502
16985W        W34509   7.593   1.435  14.917 -0.2610  0.0499 -0.3432
16986W        W34510   1.798   0.891  15.032  0.1514  0.0120  0.0929
16987W        W34511   0.417   2.697   2.709 -0.2253  0.1846 -0.0487
16988W        W34512   9.615  13.232  12.031 -0.0202  0.0421  0.2665
16989W        W34513   1.967  17.463   4.365 -0.1504  0.0101  0.1287
16990W        W34514   6.180  10.294   0.200 -0.1616 -0.2856 -0.1462
16991W        W34515   2.757   2.712   4.986 -0.2964  0.0845 -0.0842
16992W        W34516   7.164  13.323   0.294 -0.1050 -0.1513  0.1335
16993W        W34517  11.600   3.397   2.011 -0.2172  0.0942  0.1547
16994W        W34518  17.469  15.320   3.511  0.0026 -0.0246 -0.5200
16995W        W34519   6.025  17.009  14.898 -0.0453 -0.0928  0.2528
16996W        W34520   3.149   2.408  12.774  0.0861  0.0628 -0.1386
16997W        W34521  17.522  16.572  14.844 -0.0203 -0.1010  0.3881
16998W        W34522   8.184   0.286   1.859 -0.0007  0.2529 -0.0477
16999W        W34523   7.724   5.358   2.252  0.0037  0.3415  0.0834
17000W        W34524   1.581   2.495   0.717  0.0830  0.0260 -0.0442
17001W        W34525   9.957   1.060   3.852 -0.2367 -0.0478  0.1095
17002W        W34526   3.884  14.466  12.558  0.1427  0.0199  0.2781
17003W        W34527   8.944  14.088  11.341  0.0899 -0.0622 -0.0300
17004W        W34528  15.641   4.385   3.421  0.0216  0.1470  0.1291
17005W        W34529   7.397   5.766  13.976  0.2050 -0.1458  0.3793
17006W        W34530  15.090   8.617  14.050 -0.2820 -0.0304 -0.3637
17007W        W34531   0.023   0.304   1.859 -0.0646 -0.1689  0.0483
17008W        W34532  15.286   3.764   0.112 -0.0992 -0.1336 -0.1391
17009W        W34533  10.173   3.979   1.977 -0.0178  0.2154  0.5343
17010W        W34534  11.438   9.464  14.259 -0.3162 -0.0633  0.1498
17011W        W34535   7.955   8.868   0.782  0.0299 -0.2027  0.2446
17012W        W34536  17.207   8.451  15.885 -0.1844 -0.0166  0.1440
17013W        W34537  17.356  12.384  14.950 -0.2509 -0.1125  0.1842
17014W        W34538  11.876   8.249   2.287 -0.1920 -0.1292 -0.2158
17015W        W34539   1.586   9.294   3.083  0.1761 -0.0472 -0.0748
17016W        W34540  10.379  10.394  12.743  0.1639  0.2230  0.1762
17017W        W34541  11.751  15.179   3.458  0.2413 -0.0016 -0.1170
17018W        W34542  12.703   5.684  15.330 -0.0561 -0.0330  0.0393
17019W        W34543  13.174   1.020   0.717  0.0281 -0.1825  0.1412
17020W        W34544   3.395  17.349   2.547  0.0925 -0.3743 -0.0994
17021W        W34545  10.810   8.472   4.191 -0.2054  0.0017 -0.0095
17022W        W34546  10.791  10.168   0.620  0.1677  0.3323  0.1735
17023W        W34547   0.420   3.801   2.340 -0.1327  0.2060  0.0347
17024W        W34548   0.160   8.856   3.052  0.3245  0.2723 -0.3554
17025W        W34549   8.784   7.379   1.320 -0.4136  0.0023 -0.2239
17026W        W34550  14.365   7.802   0.057 -0.2988  0.1257 -0.2913
17027W        W34551   7.127   0.169  11.901  0.0535 -0.1890  0.1596
17028W        W34552   7.578  12.793  11.920 -0.0823  0.2140 -0.0238
17029W        W34553   4.228   4.062  15.588 -0.1492  0.0662 -0.2717
17030W        W34554  10.964  17.142   2.191 -0.0515  0.1194  0.1227
17031W        W34555  10.573   4.997  13.171 -0.3259 -0.3629 -0.1930
17032W        W34556  17.279  10.905   3.629 -0.3823  0.1476 -0.1272
17033W        W34557  15.489   2.290   3.756  0.1496 -0.2689 -0.3011
17034W        W34558   1.844   6.050  16.083 -0.0575  0.0703 -0.0367
17035W        W34559   1.723  13.974  14.250 -0.1254  0.1833  0.1223
17036W        W34560  13.076  13.059   4.195 -0.0616  0.1996 -0.3561
17037W        W34561   1.367   8.076   4.230 -0.3306  0.1267  0.1993
17038W        W34562  17.118  14.676  13.396  0.0258  0.0925 -0.2400
17039W        W34563  17.062  14.595   3.939 -0.1705  0.0968  0.3254
17040W        W34564   1.904   1.910  11.927 -0.2539 -0.0539 -0.0478
17041W        W34565   2.336  15.987  14.051  0.0001 -0.3145  0.0115
17042W        W34566   3.850  17.729   2.444 -0.0848 -0.2444 -0.1890
17043W        W34567   0.508  15.716   3.750  0.0871 -0.1399  0.1331
17044W        W34568   7.623  12.893   5.190  0.0393  0.0526 -0.0368
17045W        W34569   8.692   2.286  12.607  0.1016 -0.1237  0.2386
17046W        W34570   9.762  13.121   4.615 -0.3610  0.1363  0.1556
17047W        W34571  13.075   7.227   4.391 -0.3287 -0.0271  0.0624
17048W        W34572  14.460  16.040  13.061 -0.0626  0.2937 -0.2359
17049W        W34573  16.336  11.648  11.241  0.0538 -0.0224 -0.0621
17050W        W34574   8.941   2.224  14.754  0.3185 -0.1410  0.0706
17051W        W34575  16.582   2.926   3.096 -0.0986  0.0060  0.3541
17052W        W34576   4.258   8.034   0.254 -0.1484  0.0397  0.0527
17053W        W34577  17.247   7.712  14.686 -0.0583  0.2190  0.1955
17054W        W34578   0.248   6.660   4.896 -0.2827 -0.0793 -0.3901
17055W        W34579   6.271   3.948   2.262 -0.1509  0.0496  0.1635
17056W        W34580   3.785  17.255  15.202 -0.0371  0.0442  0.1156
17057W        W34581  10.944   6.763  11.858  0.2532 -0.0653 -0.2108
17058W        W34582  16.261  14.424  16.026 -0.1626 -0.2462  0.1157
17059W        W34583   5.126   9.676  12.687  0.0958 -0.0142  0.0015
17060W        W34584  14.846  16.331   3.693 -0.1098  0.2008 -0.0617
17061W        W34585   1.203   2.418  14.584  0.1452  0.0011  0.0048
17062W        W34586   9.849   9.795   3.074  0.1708 -0.1110 -0.2546
17063W        W34587   4.562   4.866  15.698 -0.2762  0.1568  0.2095
17064W        W34588  10.230  10.816   4.280 -0.3693  0.1086  0.0707
17065W        W34589   6.171   9.869   3.608 -0.0026 -0.1368  0.2102
17066W        W34590   1.250  13.096  15.788  0.2443 -0.0914 -0.2148
17067W        W34591  17.789   5.074  12.491 -0.1023 -0.1956 -0.1339
17068W        W34592  12.361  13.404  11.521 -0.0447 -0.1035  0.3178
17069W        W34593  10.409   2.101   1.800 -0.0983  0.0533 -0.0529
17070W        W34594   4.753  12.762  12.365  0.2321 -0.1223 -0.1671
17071W        W34595  17.052  15.862  13.807  0.4162 -0.0544  0.2167
17072W        W34596   5.291  16.251   1.649 -0.2758 -0.1343 -0.0347
17073W        W34597   9.300  12.286  15.610  0.1331 -0.2792  0.0814
17074W        W34598   6.603   9.005   1.021 -0.0738 -0.0883 -0.0607
17075W        W34599  12.027  11.600  15.212 -0.2734  0.1263  0.1952
17076W        W34600   6.234   3.791   4.656 -0.0797  0.0531  0.0168
17077W        W34601   7.970   1.131  15.124  0.0071  0.0141  0.2829
17078W        W34602  17.317  15.167  13.421  0.0187  0.1502  0.0960
17079W        W34603  14.962  15.346  14.286  0.1194  0.1197  0.1088
17080W        W34604   5.488   7.536  13.092  0.0202  0.0144 -0.2168
17081W        W34605   5.883   5.120  15.436  0.0196  0.1232 -0.2564
17082W        W34606   8.737   6.883   2.579 -0.1653  0.1616 -0.0070
17083W        W34607  13.710   0.435   0.807  0.2963 -0.1731 -0.0943
17084W        W34608  13.569   4.332  13.457 -0.3424 -0.2071  0.0078
17085W        W34609  10.992  17.338  14.081  0.0793  0.1146 -0.1293
17086W        W34610   0.498  13.791  11.156  0.1107 -0.1839  0.0163
17087W        W34611   8.343  11.963   4.353 -0.0555 -0.2647 -0.0956
17088W        W34612  16.133   8.022  11.791  0.1774 -0.0267  0.0947
17089W        W34613   6.357  14.691  15.157 -0.1894  0.0395 -0.0775
17090W        W34614   5.612  16.457   3.917  0.1500  0.1712  0.2079
17091W        W34615  10.094  16.106   1.329 -0.3605  0.0669  0.2930
17092W        W34616   2.068  16.224   1.986 -0.0835  0.1165 -0.4196
17093W        W34617   2.002   6.742   0.175  0.0674  0.0911  0.1668
17094W        W34618   4.384   2.683  13.969  0.3226  0.0363  0.2337
17095W        W34619  16.724   0.484   1.177  0.1217 -0.0127 -0.2171
17096W        W34620  16.760   3.090   4.619  0.2912  0.1701 -0.1327
17097W        W34621   0.320   9.836  16.053 -0.0531 -0.3385  0.0726
17098W        W34622   7.506   0.291  10.566  0.1014 -0.0805  0.1653
17099W        W34623  17.834  14.321   4.714  0.0340  0.1839  0.2386
17100W        W34624   0.249   4.821   3.272  0.0335  0.0038  0.0423
17101W        W34625   0.898  10.637  14.955 -0.0697  0.0988  0.1616
17102W        W34626  16.381  12.874  12.399 -0.1894  0.0874  0.3130
17103W        W34627  17.179   0.806   4.375  0.0638  0.1865 -0.1395
17104W        W34628   9.494   0.073   2.362  0.2677 -0.0416  0.0754
17105W        W34629  11.044  12.155   1.027 -0.2661  0.2858 -0.3295
17106W        W34630   5.544  13.101   2.327  0.0035  0.1974 -0.1522
17107W        W34631   6.047   2.294  14.794 -0.1080 -0.2708 -0.1279
17108W        W34632  17.886  14.018  13.377  0.1622  0.0504 -0.0632
17109W        W34633   3.740   1.079  15.113  0.2255 -0.0648 -0.2416
17110W        W34634   4.040   4.712  13.773 -0.0078 -0.0591  0.1605
17111W        W34635   4.107  11.801  14.507  0.1930 -0.0771 -0.3718
17112W        W34636  11.674  13.092   4.689  0.0606 -0.2659 -0.1894
17113W        W34637  11.097  13.440   2.416 -0.3690 -0.2818  0.2482
17114W        W34638  14.799  17.032   5.705 -0.1084  0.0091 -0.0976
17115W        W34639   0.949   8.228  15.993  0.0540  0.0173 -0.1805
17116W        W34640  16.542   5.600   2.531 -0.4050 -0.3685  0.0577
17117W        W34641   4.155  11.050  14.728  0.0279  0.1776 -0.0501
17118W        W34642  15.984  16.563  14.392  0.0076 -0.0244 -0.1501
17119W        W34643   8.057   7.476   0.269  0.0073 -0.1911 -0.1137
17120W        W34644   6.522   9.123   4.273 -0.0745 -0.2514 -0.0109
17121W        W34645   0.344   9.486  12.683 -0.2288  0.3212 -0.1295
17122W        W34646  12.538   5.149   1.008  0.0113  0.0678  0.3688
17123W        W34647   0.316  12.502   0.844 -0.1870 -0.0709  0.0639
17124W        W34648   4.424  11.442  14.561 -0.0403  0.1340  0.2399
17125W        W34649   6.806   0.178  15.883 -0.2357 -0.1755  0.1065
17126W        W34650  15.447  17.276  13.897  0.1340 -0.1144 -0.0706
17127W        W34651   0.194   5.446   5.073 -0.0242  0.1218  0.2033
17128W        W34652   5.767   9.172   0.783  0.1515  0.0824  0.3103
17129W        W34653  13.080   7.868  16.126  0.0083  0.1946 -0.3430
17130W        W34654  16.891   7.343  15.383  0.1707  0.0272  0.0218
17131W        W34655   9.662  15.370  11.172  0.1766  0.1165  0.2000
17132W        W34656   1.766   2.031   5.500 -0.3130  0.0000 -0.0026
17133W        W34657  11.939  16.494   2.284  0.3093 -0.0801  0.2218
17134W        W34658  14.625  13.952   2.856  0.2821 -0.1634  0.1085
17135W        W34659  10.627   5.947  16.049  0.0849  0.0417 -0.2635
17136W        W34660   3.766   6.291   3.603  0.3993 -0.0820  0.1190
17137W        W34661   1.999  16.696  12.365 -0.0408 -0.0881  0.0566
17138W        W34662  15.544   0.813   2.839  0.2147 -0.0477  0.3097
17139W        W34663  13.120   7.797  15.133  0.0403 -0.1613  0.4385
17140W        W34664  12.881  11.443  15.442 -0.0946 -0.0256  0.0070
17141W        W34665   8.453  16.789  15.766 -0.1503 -0.1657  0.2880
17142W        W34666  14.562  12.024  12.519  0.1705  0.0031  0.1546
17143W        W34667   1.903   0.296   3.417 -0.2559  0.0854  0.1910
17144W        W34668  15.059  10.790   4.345  0.0924  0.3915 -0.2635
17145W        W34669   5.956   8.724   0.349 -0.0497  0.0849  0.2625
17146W        W34670   9.145  17.550   5.971  0.2773  0.1805  0.1355
17147W        W34671   5.137  12.681  14.829 -0.0215  0.3130  0.3576
17148W        W34672  15.142  14.878   1.092 -0.0450  0.0149  0.1448
17149W        W34673   1.595   7.452   6.229  0.1665  0.2446  0.3448
17150W        W34674  14.541   7.368  15.200  0.1534 -0.0572 -0.1706
17151W        W34675   8.108   2.095   0.967  0.0001  0.1155  0.0878
17152W        W34676  11.653   4.703  15.927  0.0315 -0.0542  0.0977
17153W        W34677   7.990   7.083  14.700 -0.0158  0.3380 -0.0846
17154W        W34678  10.867  14.652  13.773 -0.2726  0.0617  0.0849
17155W        W34679   2.748  11.296  13.799 -0.0459  0.1392 -0.2333
17156W        W34680   0.523  11.297  14.396  0.1352 -0.0103 -0.1822
17157W        W34681   7.583  17.064   4.241 -0.3333  0.0465  0.0087
17158W        W34682  17.063  12.670   1.682 -0.1349 -0.0474 -0.0019
17159W        W34683   4.906   4.175   4.245  0.1555 -0.0926  0.3686
17160W        W34684   6.701  12.558  12.957 -0.1048  0.1991 -0.0090
17161W        W34685  17.857  13.507  13.652  0.0341  0.0215  0.2272
17162W        W34686   0.887   6.477   0.781 -0.2320 -0.0845 -0.0494
17163W        W34687  17.599  14.627  12.826 -0.0588  0.2621 -0.1125
17164W        W34688  13.537   3.909  11.353  0.1912  0.0019  0.0512
17165W        W34689   8.029   0.869   3.511  0.2039  0.0882  0.1524
17166W        W34690   3.736  17.361   0.796  0.0120  0.2855  0.2556
17167W        W34691  13.641  12.374  13.303 -0.1214  0.0543  0.1140
17168W        W34692  14.830  13.226   4.311 -0.2252  0.0294 -0.0378
17169W        W34693   2.347   3.681   4.626  0.0980  0.1466 -0.1322
17170W        W34694  12.141   1.068  10.776  0.1376 -0.0994 -0.0175
17171W        W34695  11.886   2.938  14.786 -0.2435 -0.2706 -0.0712
17172W        W34696  13.322   8.199  12.465  0.0320 -0.2906 -0.0382
17173W        W34697  10.919  12.386  15.832  0.1452  0.1519 -0.0266
17174W        W34698   5.666  17.616  15.621 -0.1315  0.4568  0.0637
17175W        W34699   8.479  17.369   2.213 -0.0168  0.2614 -0.0810
17176W        W34700   6.093  10.468   1.191  0.1008 -0.0157  0.2859
17177W        W34701  17.597   6.509  12.487  0.0593 -0.2034  0.0258
17178W        W34702   1.547  10.089   5.157  0.0231 -0.2788  0.1453
17179W        W34703   9.760   6.343  13.192 -0.2061  0.0705  0.2794
17180W        W34704   6.551   8.316   4.485 -0.0246 -0.1508  0.2463
17181W        W34705   5.763  10.677   4.630  0.4838 -0.2766  0.0154
17182W        W34706   9.074   5.485   4.153  0.1344 -0.1076  0.1817
17183W        W34707  10.174  12.387  13.218  0.0668 -0.2231 -0.2492
17184W        W34708  17.295   2.421  14.976  0.2237 -0.2134  0.4178
17185W        W34709   7.934   7.352  15.084 -0.2242 -0.0323 -0.2063
17186W        W34710   5.174   1.240  12.537 -0.0648 -0.1352  0.0511
17187W        W34711   7.945   7.945  13.334  0.3457  0.0443 -0.1607
17188W        W34712  16.799   7.350  13.199  0.2626 -0.0389 -0.1201
17189W        W34713  13.920  16.840   1.477  0.0410 -0.0519  0.0532
17190W        W34714  14.814   8.007  15.470  0.0610  0.0692 -0.1110
17191W        W34715  17.404   4.062   4.836  0.0182  0.1044 -0.2836
17192W        W34716   2.060   6.366   2.319 -0.0372  0.0576 -0.1429
17193W        W34717  13.763  10.589  15.252 -0.3609  0.2045 -0.1856
17194W        W34718  15.784   3.138  14.466 -0.1770  0.1110 -0.1248
17195W        W34719  14.391  15.470  12.264 -0.0355  0.0119 -0.0433
17196W        W34720   0.649  14.828  15.077  0.3159  0.0161 -0.1365
17197W        W34721  15.166   9.284  14.044  0.0986 -0.0954 -0.2253
17198W        W34722  13.250  10.711  15.237  0.1353 -0.0394 -0.0345
17199W        W34723  12.074   0.310  14.326  0.0642 -0.1863 -0.0376
17200W        W34724  11.454  16.676   4.341  0.0818  0.0316  0.0300
17201W        W34725   0.567   2.806  11.271 -0.0212 -0.0585 -0.0965
17202W        W34726  12.506   9.577  13.430  0.0143 -0.0777 -0.0250
17203W        W34727   1.604  12.339   4.386 -0.0537  0.1836  0.0689
17204W        W34728   5.929   9.321  11.461 -0.0845 -0.1678 -0.3083
17205W        W34729   9.861  12.169   4.875 -0.0499  0.1560 -0.3244
17206W        W34730  10.226   9.198  16.038  0.0955 -0.0228  0.0597
17207W        W34731   3.612  14.945  13.874 -0.1081 -0.1161 -0.0425
17208W        W34732   6.375  12.754   4.922  0.1370 -0.2986  0.0883
17209W        W34733  16.931  15.145   2.200  0.4282  0.3904  0.0641
17210W        W34734  11.010  13.275  12.447 -0.1047  0.0322 -0.1802
17211W        W34735   7.960  17.398  15.960 -0.0705 -0.0200 -0.3648
17212W        W34736  10.290  11.340   2.117  0.0695  0.3342 -0.3549
17213W        W34737   2.109  12.541  10.940 -0.0565 -0.1090 -0.0459
17214W        W34738  11.720  17.865  14.327  0.2328 -0.0071  0.1467
17215W        W34739   2.051  12.092  12.687 -0.0707  0.0458  0.2522
17216W        W34740   9.627   7.093   1.558 -0.1060 -0.0001 -0.1798
17217W        W34741  10.153  12.880   0.594 -0.0688  0.3178  0.2182
17218W        W34742   7.291   9.448  11.007 -0.0532  0.0252  0.2614
17219W        W34743  15.043   7.172   1.682 -0.2741 -0.0551 -0.2698
17220W        W34744   4.137  16.100  15.962 -0.0455  0.2424  0.2963
17221W        W34745   6.171   4.189   1.720 -0.3246 -0.1377 -0.2199
17222W        W34746   8.476  15.303   0.713  0.0981  0.2290  0.1742
17223W        W34747   3.067   7.651   0.627 -0.2127 -0.2060  0.3482
17224W        W34748  15.177  16.296  14.059  0.0213 -0.0846 -0.0924
17225W        W34749   1.848   4.656  14.257  0.0187 -0.1187  0.0020
17226W        W34750   5.014  13.113  15.133 -0.4599 -0.0778  0.1641
17227W        W34751   2.126  11.588  11.825  0.3392 -0.0081  0.0077
17228W        W34752   2.389  12.343   5.849 -0.2769 -0.1567 -0.0509
17229W        W34753  16.628   9.459   4.453  0.1344  0.1411  0.1594
17230W        W34754  17.774  16.512   3.074  0.1022 -0.0254 -0.1584
17231W        W34755  12.350   9.437   3.058 -0.2579  0.0525  0.0779
17232W        W34756   9.554  13.608   0.645  0.1398  0.1685  0.1496
17233W        W34757   8.110   1.865  13.696 -0.1158  0.0281  0.0639
17234W        W34758   7.513  12.005   0.183 -0.3164  0.0410  0.0456
17235W        W34759   0.273   6.445   2.851 -0.1502  0.0314 -0.0012
17236W        W34760  15.341  15.461   2.848  0.2829  0.3725 -0.0598
17237W        W34761   2.795  16.097  15.242  0.0486  0.3765 -0.0425
17238W        W34762  15.834   4.864  11.788  0.1771  0.0016  0.1131
17239W        W34763   2.511   0.135   1.957 -0.1821 -0.0275 -0.2014
17240W        W34764   2.359  10.198  11.744 -0.1107 -0.1442 -0.0283
17241W        W34765   5.552   6.712   2.808 -0.1001  0.1117 -0.0877
17242W        W34766  11.161   5.377   4.918 -0.0545  0.0133 -0.0571
17243W        W34767   7.856   2.227   2.877 -0.0504 -0.1385 -0.0188
17244W        W34768   4.330   5.815   3.057  0.0511  0.0057 -0.0720
17245W        W34769   0.145   4.866  13.317  0.0938  0.1545  0.2426
17246W        W34770  12.982  17.596  14.543  0.1071  0.1654  0.1298
17247W        W34771  13.808  10.019  14.326 -0.1044  0.0726 -0.0839
17248W        W34772   1.147  10.633  14.074  0.2558 -0.0930 -0.2497
17249W        W34773   4.803   3.286   3.031 -0.0703  0.3789 -0.1590
17250W        W34774   0.162   6.944  15.943  0.2454  0.1161 -0.0691
17251W        W34775   9.922   0.280  11.089 -0.5106 -0.2252  0.2355
17252W        W34776  10.035   5.706  12.578  0.0367  0.1423  0.4403
17253W        W34777   4.053  13.052  15.104  0.1153  0.1137 -0.0633
17254W        W34778   6.218   9.847  11.493  0.2488  0.1932 -0.3027
17255W        W34779   2.018   1.771   0.887 -0.2626  0.1083  0.5765
17256W        W34780   6.545  12.899  15.564 -0.0737  0.1373  0.2456
17257W        W34781   1.250   5.259  15.273  0.4045 -0.2228  0.0066
17258W        W34782   7.881  12.273  14.975 -0.0034  0.2402  0.0468
17259W        W34783   2.829   0.811   1.582 -0.0903  0.1371  0.0072
17260W        W34784  14.163  16.494  11.173  0.0789 -0.0088  0.0947
17261W        W34785   3.414   6.386  13.780  0.1956 -0.1674  0.0273
17262W        W34786   4.390  15.854  14.747  0.0455  0.1091 -0.0975
17263W        W34787   8.979   0.523   0.434  0.2354 -0.1846  0.1078
17264W        W34788  14.098   2.299  14.586  0.1047  0.1738 -0.0673
17265W        W34789   2.905   7.693  11.376  0.2091 -0.0845  0.0220
17266W        W34790   7.825   1.937   1.448  0.2375  0.1060 -0.1231
17267W        W34791   5.940  14.906  13.520  0.2130 -0.1847  0.3322
17268W        W34792  10.197  10.839  15.372 -0.0281  0.1109  0.2587
17269W        W34793  13.089   8.473  12.977  0.1791  0.1459 -0.3876
17270W        W34794   5.650   0.459   1.695  0.0366  0.1336  0.1138
17271W        W34795   1.028  17.050   0.659 -0.0619  0.0418  0.1645
17272W        W34796  16.512   9.811   2.839 -0.1374 -0.0025  0.0318
17273W        W34797  13.046   7.782   2.691 -0.1451  0.3073  0.3593
17274W        W34798   2.973   0.248  16.133 -0.0100  0.1087  0.0977
17275W        W34799  10.893   1.602  14.758 -0.1061 -0.0728 -0.1371
17276W        W34800   7.150   5.666   1.654 -0.1372  0.4333  0.0389
17277W        W34801   0.184  16.504   4.849  0.2509  0.0287 -0.0118
17278W        W34802   2.329   3.197  11.957 -0.2406 -0.1647 -0.3988
17279W        W34803  11.350   7.821   2.947  0.1867 -0.0027  0.1095
17280W        W34804   2.808  12.512   4.616  0.3079 -0.2254 -0.0581
17281W        W34805  16.747   6.156   5.022 -0.1317  0.2799 -0.2083
17282W        W34806  10.105   1.865  12.585  0.1203 -0.1412  0.2354
17283W        W34807   6.817   7.505   3.026  0.0263 -0.1709  0.0671
17284W        W34808  17.927  14.072  11.980  0.0662  0.2323 -0.0724
17285W        W34809  14.356   9.239   4.114  0.0265  0.1062  0.0106
17286W        W34810  11.271  17.354  15.433  0.0343 -0.0691 -0.0328
17287W        W34811   9.398   1.443  16.181 -0.0433  0.0280  0.1840
17288W        W34812  12.777   4.216   3.530 -0.2571 -0.0957 -0.0922
17289W        W34813  17.781   5.861   0.029 -0.2136 -0.1098  0.3051
17290W        W34814   8.849  14.266   4.798 -0.1054  0.0706  0.0023
17291W        W34815  14.310   3.022   2.333  0.0803  0.0419  0.1819
17292W        W34816  10.909   7.306   3.249  0.0627  0.1195 -0.0312
17293W        W34817  14.192   2.527  12.389  0.3419  0.1197  0.1189
17294W        W34818   5.258   9.519  13.421 -0.1622 -0.0250  0.2776
17295W        W34819   5.833   7.287  15.617 -0.0097 -0.1407  0.3621
17296W        W34820   6.250   1.003  13.967  0.0640 -0.1526  0.2704
17297W        W34821   3.666   8.027  11.757  0.2263  0.2084 -0.0575
17298W        W34822  16.258  16.810   1.332  0.1888 -0.0798 -0.1064
17299W        W34823   2.867   8.298   1.483  0.4401  0.2921 -0.1363
17300W        W34824  15.539   9.696  11.282 -0.0352  0.0585 -0.1913
17301W        W34825   8.859   7.267  12.016 -0.2373 -0.2108 -0.3528
17302W        W34826  11.107   6.042   0.164 -0.0189  0.2086  0.2100
17303W        W34827   1.786   7.409  12.240  0.1505 -0.1115  0.1962
17304W        W34828  16.511  10.883  13.507 -0.0361 -0.1543 -0.1946
17305W        W34829  12.845   6.807  12.183  0.1480 -0.0721  0.0082
17306W        W34830  16.737  11.944   4.618  0.0275 -0.1531 -0.0036
17307W        W34831   4.643   9.299   4.965  0.0927  0.3279 -0.2627
17308W        W34832   0.836  13.469   4.188 -0.1283 -0.0691  0.0646
17309W        W34833   3.097  13.712   0.614  0.0782 -0.2203 -0.0153
17310W        W34834   9.466   7.996  15.976 -0.0164  0.3814  0.1614
17311W        W34835   4.635   3.912   3.935  0.1357  0.1772 -0.0257
17312W        W34836  13.156   0.881  14.318  0.3435  0.1351 -0.3892
17313W        W34837   7.885   2.474  15.637  0.0549 -0.0343 -0.3373
17314W        W34838  16.876   1.581   1.715 -0.1530 -0.0686  0.3253
17315W        W34839   0.800   8.663  11.219  0.0190  0.1121  0.1658
17316W        W34840  14.012  16.042   5.866 -0.0631 -0.0597 -0.1187
17317W        W34841   3.769   6.804   4.291 -0.1837 -0.0259  0.2900
17318W        W34842  11.739  16.494  12.469  0.0680 -0.1708  0.3766
17319W        W34843   2.299  13.705   0.911 -0.0206  0.1784 -0.1346
17320W        W34844  14.595   3.267   5.700 -0.2554  0.0072  0.1491
17321W        W34845   3.590   4.307   3.054 -0.2410 -0.2258 -0.1573
17322W        W34846   1.994  16.703  13.903  0.0885 -0.2419  0.2302
17323W        W34847   9.243   2.309  15.762  0.0908 -0.2527  0.3074
17324W        W34848  12.803  17.516  13.293  0.1053  0.1276 -0.0692
17325W        W34849   2.456   3.956   1.224 -0.0019 -0.0248  0.0555
17326W        W34850   1.529  15.630   2.286  0.1363 -0.0721 -0.1805
17327W        W34851  15.643  13.904  11.844 -0.2861  0.3213 -0.0323
17328W        W34852  14.055  14.860   3.213 -0.2589  0.1110 -0.0622
17329W        W34853  14.639   4.464  14.971 -0.0144  0.1905 -0.1050
17330W        W34854   5.623  13.186   4.802  0.0992  0.0149 -0.0310
17331W        W34855   9.991   2.187  11.432  0.0417  0.0231 -0.0046
17332W        W34856   3.014  10.622   0.815 -0.4159 -0.2516 -0.1585
17333W        W34857  15.231   1.847  11.653 -0.1664  0.2831 -0.0078
17334W        W34858   3.305  15.375  13.637 -0.0807  0.0050  0.1937
17335W        W34859  16.525  11.825   0.218  0.2354 -0.0193  0.0928
17336W        W34860   6.118  12.032   4.999 -0.0036  0.0452  0.0589
17337W        W34861   0.781   2.224   1.043  0.2181  0.1336 -0.1190
17338W        W34862   2.556  13.583   1.336  0.0210 -0.1384 -0.3414
17339W        W34863  14.929  11.928  12.172  0.0901 -0.0402  0.1445
17340W        W34864   7.806  10.840  15.797  0.3034  0.1792  0.2512
17341W        W34865   8.799   9.984   3.328 -0.0110  0.3084  0.1501
17342W        W34866   6.235  14.026  12.447 -0.0197  0.2572  0.1134
17343W        W34867   3.695  13.200  14.466 -0.0528  0.0947 -0.2042
17344W        W34868   0.617  15.336  14.922  0.0214 -0.2726  0.2957
17345W        W34869   1.192   0.139   0.377 -0.0114 -0.1734  0.1092
17346W        W34870   0.875   3.220  14.542 -0.0816 -0.1488  0.1352
17347W        W34871   2.450  14.153   0.753  0.0524 -0.2320 -0.1479
17348W        W34872  16.423  15.415   4.359  0.0104  0.1349 -0.2042
17349W        W34873  16.616   1.825  15.112 -0.1320 -0.0929  0.0703
17350W        W34874   4.939   4.220  11.766  0.0011  0.1405  0.1068
17351W        W34875   4.202   4.920   2.810  0.0808 -0.2281  0.3248
17352W        W34876  15.050   6.647   4.368 -0.1768 -0.1309 -0.1201
17353W        W34877  16.935  12.143  12.078  0.1963  0.0266 -0.3322
17354W        W34878   0.618   4.957   4.737 -0.0244  0.1359 -0.1534
17355W        W34879   7.068  15.906   1.923 -0.3430  0.0880  0.1577
17356W        W34880  11.495  15.680   1.817 -0.1920 -0.2703 -0.0385
17357W        W34881   1.949   5.279  15.519 -0.1815  0.3441  0.0401
17358W        W34882   9.760  10.079   0.318 -0.1834  0.1669  0.4293
17359W        W34883  15.052  13.253   2.618 -0.2039  0.0636 -0.1332
17360W        W34884  14.393   6.082   1.827 -0.0926 -0.0647 -0.1248
17361W        W34885   3.876   2.422   0.009 -0.0989 -0.0657  0.0616
17362W        W34886   0.793   9.305   2.452  0.0554 -0.2911  0.1270
17363W        W34887   8.175  13.611  13.435  0.3345 -0.1480  0.4256
17364W        W34888  11.973   4.569   4.019  0.0793 -0.2246 -0.0512
17365W        W34889   1.294  12.049   4.107 -0.0918 -0.1586  0.1063
17366W        W34890   5.896  13.680   4.917 -0.0728 -0.0635 -0.1118
17367W        W34891   8.735   5.403   5.650 -0.0396  0.0109  0.2543
17368W        W34892   5.431   5.580   0.619  0.2638  0.1481  0.2055
17369W        W34893  11.344  13.467   4.875  0.1988  0.2528 -0.1323
17370W        W34894   1.022  15.433  14.025 -0.0622 -0.0283  0.0555
17371W        W34895   8.115   2.249   0.394 -0.1892 -0.2561  0.0218
17372W        W34896  17.522   6.197   0.340  0.1771 -0.0559  0.0498
17373W        W34897  16.601  10.428  11.329 -0.3973 -0.0065 -0.0841
17374W        W34898  17.665   0.945   0.393  0.2815 -0.2053 -0.0162
17375W        W34899  12.275  14.424  15.022  0.0799  0.1209  0.1228
17376W        W34900   4.064   4.855  15.521 -0.0303 -0.0460 -0.2630
17377W        W34901  17.963   4.325  14.562  0.1001 -0.5049  0.0960
17378W        W34902  10.627   4.465  13.403  0.5512 -0.2237  0.2753
17379W        W34903  15.019   0.064   2.071 -0.1013  0.1618 -0.0718
17380W        W34904   2.023   2.529   3.134 -0.0766  0.1507 -0.5965
17381W        W34905  10.784   9.131   1.811  0.3343  0.1138  0.0049
17382W        W34906  10.440  12.116  12.884  0.2191 -0.0546 -0.1270
17383W        W34907  11.490   0.738   2.677  0.0050  0.3613 -0.0675
17384W        W34908  14.564  15.296   2.115  0.1097  0.1017 -0.1467
17385W        W34909   9.801   0.369  11.586  0.1938  0.0818  0.1531
17386W        W34910   8.265   2.272   3.272 -0.0203  0.1444 -0.0105
17387W        W34911   1.001   2.692  12.888  0.0210  0.1646  0.0416
17388W        W34912  15.100  15.316   0.793 -0.2425  0.0886  0.1642
17389W        W34913   8.816   4.859  12.903 -0.0745 -0.1466 -0.2010
17390W        W34914   0.931   9.455   1.418 -0.1506 -0.0769  0.1235
17391W        W34915  16.456   1.629  16.103 -0.0489 -0.1753  0.1276
17392W        W34916  17.931   2.064   4.615 -0.1422  0.0435  0.1103
17393W        W34917   5.748  15.155  12.180 -0.0049  0.1760 -0.3783
17394W        W34918   5.910   3.445   4.943  0.3376 -0.0028  0.2957
17395W        W34919  14.932  10.584   3.883  0.1191 -0.1754 -0.1008
17396W        W34920   5.445   1.731  15.754 -0.0374  0.2245 -0.3088
17397W        W34921   6.547   1.553   4.987 -0.0249 -0.0802  0.2361
17398W        W34922   3.138   7.222  15.946  0.0076 -0.0047 -0.0906
17399W        W34923   4.596   5.353  15.944 -0.0355 -0.1942  0.4517
17400W        W34924  10.519   5.192   3.591 -0.0339  0.1825  0.0567
17401W        W34925   6.785   8.719   4.301 -0.0648  0.1112  0.0126
17402W        W34926   5.301  12.376   4.143  0.4064 -0.0873 -0.3184
17403W        W34927   2.770   7.427   2.861  0.2793  0.0308  0.1229
17404W        W34928   6.894   6.445   1.558 -0.0403  0.1223  0.0640
17405W        W34929   8.044   6.944  15.369  0.2801 -0.1053 -0.0932
17406W        W34930   6.906   8.635   2.132 -0.2378 -0.2002  0.1456
17407W        W34931   8.360   9.850  13.964 -0.3387 -0.2275 -0.2778
17408W        W34932  16.886   1.149  11.715 -0.1494  0.0089  0.0160
17409W        W34933  14.560   9.656  15.643  0.2250  0.1085 -0.1307
17410W        W34934   6.479   5.869  15.016 -0.2487 -0.2394 -0.3630
17411W        W34935  15.483   0.894  16.191  0.0252 -0.3023 -0.0012
17412W        W34936   4.962   5.219  14.995  0.0992  0.0254 -0.0548
17413W        W34937   3.343   9.196  11.041 -0.3694  0.3417 -0.1708
17414W        W34938  11.887   2.433  12.771  0.2153  0.0553  0.1931
17415W        W34939   9.490  14.846  11.368  0.1182 -0.4917 -0.1105
17416W        W34940  16.776   3.300  13.445  0.3098 -0.1842  0.2914
17417W        W34941   0.364   2.948   5.187 -0.1773  0.0340  0.1876
17418W        W34942  13.316   8.670  15.998 -0.1480  0.1264  0.2082
17419W        W34943   5.336  12.837   1.594 -0.0407  0.1609  0.0284
17420W        W34944   7.803   9.564  15.079 -0.0951 -0.5481  0.1479
17421W        W34945   9.850   1.953   0.722  0.0418 -0.0101  0.1155
17422W        W34946   0.400  15.807   4.271  0.0016  0.1023 -0.1345
17423W        W34947   1.034   3.357  10.412 -0.0996 -0.1279  0.0224
17424W        W34948   3.330   8.827   2.886  0.0315 -0.0909 -0.1783
17425W        W34949  11.369   3.393  13.349 -0.0122  0.0533  0.0920
17426W        W34950   1.137   8.036   1.312  0.0153 -0.3094  0.1638
17427W        W34951   7.095   6.394   3.993  0.0546  0.0127 -0.1913
17428W        W34952   6.283   7.510   0.837 -0.3365  0.0782 -0.0429
17429W        W34953   0.549   8.317  14.303  0.1050  0.0726 -0.2355
17430W        W34954   9.217   5.000  13.629  0.1873 -0.0392 -0.2411
17431W        W34955  16.619   8.793  12.838 -0.2396  0.1974  0.0078
17432W        W34956   8.475  15.273  13.968 -0.0022 -0.1368  0.0040
17433W        W34957   3.331   0.731   2.163  0.1291 -0.0832 -0.1010
17434W        W34958  13.938   0.600  14.189 -0.1824  0.0079  0.0451
17435W        W34959  13.187   4.795  13.666 -0.1622  0.0735 -0.2235
17436W        W34960   2.772  17.785   0.071 -0.0271 -0.0745 -0.1833
17437W        W34961   6.072  15.163   1.415  0.1777  0.3009 -0.0322
17438W        W34962   9.516   4.634  13.575  0.1943 -0.1761 -0.1317
17439W        W34963  15.261   5.908   0.576 -0.0016 -0.0033 -0.3792
17440W        W34964  13.655   1.639   0.886 -0.1501 -0.0091 -0.0100
17441W        W34965  10.731  17.606   5.016 -0.1774  0.1165  0.0907
17442W        W34966   2.535   4.808  13.309  0.0788 -0.2912  0.0732
17443W        W34967   3.834   9.772  16.062 -0.0745  0.0742  0.3095
17444W        W34968   4.291  14.642  15.761 -0.2058 -0.0162  0.0007
17445W        W34969   0.024  15.770   3.766  0.0094 -0.0799  0.0000
17446W        W34970  10.497  12.695  16.096 -0.2105  0.2195 -0.2007
17447W        W34971   8.900  11.191  15.074  0.1869  0.2327 -0.0686
17448W        W34972  13.791   4.860  15.564  0.1904  0.2644  0.1142
17449W        W34973  17.265  14.113  14.079  0.2036  0.1046 -0.0974
17450W        W34974   9.961   7.143  12.116 -0.0701 -0.2752  0.0872
17451W        W34975   3.042   6.088  11.669 -0.0960 -0.4097  0.2421
17452W        W34976  12.045  12.155  13.846 -0.0616  0.1034 -0.1149
17453W        W34977  15.751   8.284   5.556 -0.0461  0.2255 -0.2409
17454W        W34978  13.371  17.575  12.899  0.2763  0.0074  0.2988
17455W        W34979  13.156   7.446   0.500  0.1281  0.2269 -0.2421
17456W        W34980   8.451  11.341  14.202  0.0217  0.0407 -0.1529
17457W        W34981   6.718  14.258   4.239 -0.0816 -0.2796  0.0827
17458W        W34982   0.722  11.200   1.977  0.1872  0.1353 -0.0372
17459W        W34983  15.375  12.675   1.750 -0.1398 -0.1352  0.3125
17460W        W34984  11.477   7.705  15.767  0.4209 -0.3369  0.2510
17461W        W34985  16.153   5.215   4.336 -0.0134  0.0984  0.0958
17462W        W34986   1.750   5.384   2.124  0.0088 -0.0599 -0.0064
17463W        W34987   4.714  11.614   1.975 -0.2857 -0.1376  0.1770
17464W        W34988  10.791  11.745   0.873 -0.3206  0.0228  0.3277
17465W        W34989   1.741   6.704   3.531  0.2402 -0.0292  0.0323
17466W        W34990  14.939  16.205  11.286  0.2369 -0.0374  0.1792
17467W        W34991  15.685   1.608   4.154  0.3166  0.0483 -0.0193
17468W        W34992   8.754   1.683  10.831 -0.2918  0.1914 -0.2800
17469W        W34993  17.444   1.466   3.641  0.1744 -0.0601  0.0816
17470W        W34994  17.903   1.721   3.567 -0.2004  0.1596  0.0644
17471W        W34995  13.881   7.374   3.922  0.0305  0.3029 -0.1835
17472W        W34996  16.456   3.416  12.222  0.0504  0.1091  0.0457
17473W        W34997   7.903  11.312   4.385  0.3117  0.1535 -0.2814
17474W        W34998   5.348  14.437   4.920  0.3107 -0.0431  0.0829
17475W        W34999   4.778   6.046  11.764 -0.2595  0.0699 -0.1464
17476W        W35000   0.136  11.881   4.027 -0.1047  0.2201  0.1069
17477W        W35001   1.897   3.071  14.734  0.2735 -0.0909 -0.2060
17478W        W35002  13.042  12.932  13.407  0.1350 -0.1060  0.0282
17479W        W35003   3.790   4.185   1.069 -0.0143 -0.1083 -0.1175
17480W        W35004   0.131   1.608  11.079  0.0725  0.0884  0.0925
17481W        W35005   9.125  13.063  12.905 -0.1209  0.0821 -0.1106
17482W        W35006  17.761   8.580  11.182 -0.0280  0.0345  0.1521
17483W        W35007   1.325   6.460  14.144  0.1344  0.0461  0.5039
17484W        W35008   6.859   0.185  15.363  0.1230  0.1200 -0.0478
17485W        W35009  16.191   0.502  10.819 -0.1584 -0.0671  0.2654
17486W        W35010  14.537  10.761  11.251 -0.0430 -0.0192 -0.1473
17487W        W35011   1.265  11.662   0.115  0.0615 -0.0505 -0.1632
17488W        W35012   6.392   9.274  12.628  0.1689 -0.2314  0.3174
17489W        W35013  15.230  11.327  14.066  0.2222  0.0659  0.0125
17490W        W35014   3.886   6.701  15.506  0.0608 -0.3026 -0.1588
17491W        W35015  11.779   5.055   3.677  0.1453 -0.0361 -0.0017
17492W        W35016  12.931   9.379   3.975 -0.1384  0.0637 -0.0341
17493W        W35017   8.642   7.670  13.592 -0.0490 -0.2835  0.0842
17494W        W35018   7.279  11.628  15.494  0.1979 -0.0210  0.2145
17495W        W35019  11.911  14.037   0.160 -0.0614  0.3868  0.2073
17496W        W35020   2.564  16.334   2.601  0.1232 -0.0454  0.1314
17497W        W35021   9.062   3.702   0.463  0.0327  0.1054 -0.1050
17498W        W35022  13.774   1.090  15.047 -0.0905  0.0485  0.1664
17499W        W35023  16.587  13.251  15.583 -0.0069 -0.2695 -0.0887
17500W        W35024   7.060   2.400  15.896 -0.2741 -0.1604  0.1559
17501W        W35025  11.580   4.177  15.786 -0.1923  0.3035  0.1208
17502W        W35026  17.241   2.404  13.149  0.0335  0.2086 -0.0075
17503W        W35027   8.230   0.876  14.742  0.1166 -0.3640 -0.0469
17504W        W35028  17.751   1.970   0.082 -0.4477  0.0411 -0.3310
17505W        W35029   3.153   9.811  13.247  0.2109 -0.0999 -0.1260
17506W        W35030   1.590  15.350   5.046 -0.0609 -0.3122  0.1992
17507W        W35031   3.568   4.995   4.228 -0.1889  0.1212 -0.1726
17508W        W35032  13.385  17.707  14.958  0.0947 -0.0569 -0.0643
17509W        W35033   4.059   3.879  14.666  0.1483 -0.0744 -0.2153
17510W        W35034   2.006  14.746   2.646 -0.0574 -0.2649  0.1332
17511W        W35035   6.823   3.876   2.071 -0.0466 -0.0550 -0.4273
17512W        W35036  10.102  15.373   0.798  0.2559  0.1665  0.0457
17513W        W35037   1.528  11.618   3.878 -0.1202  0.3680 -0.2528
17514W        W35038  14.977  12.780  15.269 -0.2053  0.0471 -0.0131
17515W        W35039   9.111   3.424   0.898 -0.0296 -0.6892 -0.1813
17516W        W35040  11.508  11.752   2.098  0.4288 -0.0450 -0.3140
17517W        W35041  10.375  12.524  12.062  0.1309 -0.2138  0.0223
17518W        W35042   8.808   8.601  15.192  0.2631 -0.0502 -0.2500
17519W        W35043  17.013   6.999  12.536  0.2206 -0.0007 -0.0991
17520W        W35044  14.373   9.961   1.885 -0.1208  0.1192  0.0176
17521W        W35045  17.366   9.925  13.573  0.0215  0.1286  0.1980
17522W        W35046   8.159  14.578   4.662 -0.0277  0.1993  0.1323
17523W        W35047   5.084  12.180  14.662  0.0895  0.0178 -0.3046
17524W        W35048  14.155  16.036   0.651 -0.1439 -0.2257 -0.0469
17525W        W35049   5.363   0.778   2.382  0.2637 -0.1666  0.1043
17526W        W35050  13.737   4.282   4.963  0.0305 -0.3657 -0.4569
17527W        W35051  17.734   4.258   1.139  0.1411  0.3888  0.1245
17528W        W35052  12.330  14.318   3.017 -0.3663 -0.0825 -0.0610
17529W        W35053  13.546  13.587   1.878  0.0696 -0.0116 -0.2063
17530W        W35054  15.131  13.987   0.729  0.1086  0.2469  0.0211
17531W        W35055   2.568   8.828   4.471 -0.1381  0.0674  0.2968
17532W        W35056   1.676  10.871  13.274  0.1332 -0.0859  0.0240
17533W        W35057   6.744  10.553  14.153 -0.2181  0.1481  0.2544
17534W        W35058   7.785  16.403  14.737 -0.0749  0.1722 -0.1865
17535W        W35059   4.182  15.478  14.191  0.1808  0.0065  0.0657
17536W        W35060   0.290   6.059   1.863 -0.0465  0.1039 -0.0770
17537W        W35061  10.266  15.347   2.230  0.3858 -0.0979 -0.1403
17538W        W35062  16.690   3.925   3.152  0.1923  0.2006  0.0252
17539W        W35063   8.095  15.181  14.980  0.2611 -0.0686 -0.0477
17540W        W35064   1.458   3.839  11.453  0.1701 -0.2167  0.1765
17541W        W35065  17.069   7.060   3.865  0.1766 -0.1097  0.2432
17542W        W35066   2.868  12.273   2.545  0.2134  0.1321 -0.0750
17543W        W35067   8.209   4.464   4.430 -0.1413  0.2017  0.2442
17544W        W35068   9.412  10.376   1.963 -0.0978  0.0539  0.0033
17545W        W35069  17.064   8.673  12.906  0.1547 -0.1080  0.2723
17546W        W35070  15.839   4.682   3.817  0.2448 -0.1558 -0.0060
17547W        W35071   6.085  10.472   2.787  0.0748  0.1174  0.0533
17548W        W35072  16.356  11.942  13.557 -0.1240  0.2069  0.2132
17549W        W35073  11.226  17.809  12.746  0.3242  0.4155  0.0296
17550W        W35074  17.260   0.811  14.511  0.0902 -0.0841 -0.0302
17551W        W35075  16.982  17.637   4.185  0.1638  0.0853 -0.3137
17552W        W35076  10.631   0.673  13.703  0.2943 -0.2921  0.3014
17553W        W35077   3.038  13.870   1.449 -0.3265  0.1512  0.2447
17554W        W35078   8.567   9.960  12.853 -0.1349  0.0850  0.0030
17555W        W35079   3.044  16.841  15.769 -0.2324  0.1905 -0.1624
17556W        W35080   8.804   0.578   1.162 -0.4649  0.0304 -0.0644
17557W        W35081   4.812  14.590  10.917  0.0382 -0.0242  0.0840
17558W        W35082   0.705   9.491   3.033  0.0991  0.1488 -0.0071
17559W        W35083   9.173   9.676   1.938 -0.0555  0.0610 -0.0564
17560W        W35084   0.926  10.120  11.561  0.0620  0.0381 -0.0183
17561W        W35085   2.750   3.223  14.656 -0.3562 -0.3639 -0.1000
17562W        W35086  14.298   4.095   0.876 -0.0774 -0.1606 -0.1104
17563W        W35087   3.065   4.261   1.179  0.0553  0.1491 -0.0703
17564W        W35088   4.687   8.220  12.065  0.0856  0.0372  0.1443
17565W        W35089  16.893  15.487  13.523 -0.0023 -0.0422 -0.2327
17566W        W35090  10.987  10.702   0.431 -0.0863  0.0025 -0.0684
17567W        W35091   5.398   6.872  14.342 -0.1604 -0.3781  0.0278
17568W        W35092   6.727  14.054   4.696  0.1024  0.2107 -0.2750
17569W        W35093   1.958  16.437   4.444  0.3728  0.0618 -0.0700
17570W        W35094   7.427   8.624  13.430 -0.1627 -0.1948  0.1499
17571W        W35095  16.753  10.815  14.427  0.1161  0.2790 -0.1871
17572W        W35096   8.032  12.600   4.329 -0.1612 -0.0218  0.2416
17573W        W35097  10.675   8.609   1.783  0.0446 -0.0577 -0.1155
17574W        W35098   6.363   2.538   3.153  0.2169 -0.0493 -0.1819
17575W        W35099   5.384   7.935   1.864  0.1717 -0.0504  0.1250
17576W        W35100  14.706  11.411   2.737 -0.1896  0.0310  0.0967
17577W        W35101   4.547   9.729  14.991  0.2682 -0.1344 -0.0079
17578W        W35102  10.245  12.177   0.485  0.0575  0.1200  0.0457
17579W        W35103   9.130   8.486   0.373 -0.0377  0.1976 -0.0900
17580W        W35104   5.901  13.445   2.131 -0.2887 -0.0582 -0.0105
17581W        W35105  11.553   0.441  14.285  0.3779  0.1676 -0.1740
17582W        W35106  16.107   8.462  11.434  0.2461 -0.1963  0.1610
17583W        W35107  13.800  17.291  12.684 -0.0584 -0.0672  0.2666
17584W        W35108  16.610   6.534  13.866  0.1866  0.1557  0.1501
17585W        W35109   6.936  15.025   0.131 -0.2170  0.1634  0.1256
17586W        W35110   7.668   5.600   3.975  0.1062 -0.0264 -0.1838
17587W        W35111  14.383  11.150   2.439  0.2566  0.0810  0.0299
17588W        W35112  12.286   9.706   2.009 -0.3717  0.0111 -0.0095
17589W        W35113   2.567  11.497   1.889 -0.3227  0.2844 -0.3736
17590W        W35114   3.227   6.153   2.024 -0.0300  0.2972  0.1102
17591W        W35115   0.553  11.040   3.873 -0.2236 -0.0228 -0.3175
17592W        W35116  15.285   5.569  11.486  0.1899  0.1183 -0.0965
17593W        W35117   0.692  13.866  13.926 -0.2772  0.0163 -0.1079
17594W        W35118  17.537  10.371  15.478 -0.0016  0.1510 -0.0234
17595W        W35119  14.736   3.485  11.092 -0.1686 -0.0483 -0.1130
17596W        W35120  11.568  13.126   3.610 -0.0279  0.0159  0.1515
17597W        W35121   1.762  17.892   0.271  0.1530  0.0665 -0.1466
17598W        W35122  13.223   5.971   4.380 -0.1294 -0.3824 -0.1899
17599W        W35123   6.902   0.988   0.597 -0.2851 -0.3826  0.3252
17600W        W35124  15.707  11.404  11.147  0.2082  0.0954  0.0361
17601W        W35125  10.094   7.970  13.525  0.0884  0.0774  0.0669
17602W        W35126   3.704  13.644   0.892 -0.0960 -0.0079  0.2890
17603W        W35127   9.090  17.004  14.194 -0.1507 -0.0401  0.0353
17604W        W35128  17.376  14.563  13.979 -0.0958  0.2254 -0.2522
17605W        W35129   4.548   7.189  12.316 -0.2462  0.4252  0.0401
17606W        W35130  15.443   6.924  15.429 -0.0404  0.2463  0.0027
17607W        W35131   0.206  10.389  14.094  0.1751 -0.1319  0.0676
17608W        W35132  13.497  10.156  13.127  0.0834  0.2521 -0.1843
17609W        W35133   7.988   5.672   1.434 -0.2600  0.3437 -0.4193
17610W        W35134   7.645   4.736   0.615  0.1096  0.1486  0.2045
17611W        W35135   3.962   9.658  15.022  0.1637 -0.0871 -0.3105
17612W        W35136   9.480   0.391   0.028 -0.1280 -0.0435 -0.2013
17613W        W35137  15.604  17.140   0.714  0.0566  0.3113  0.1182
17614W        W35138   4.342  14.486   4.877  0.0469 -0.2995  0.0911
17615W        W35139  10.706  17.571   4.385  0.2036  0.3436 -0.1622
17616W        W35140  10.929   5.914  12.774  0.4410  0.0420 -0.1966
17617W        W35141   8.743   2.916   4.328 -0.3405  0.2558 -0.0077
17618W        W35142  17.750  12.130   2.042 -0.0823 -0.2097  0.0151
17619W        W35143   8.127   6.081  14.128 -0.2610  0.0165  0.0227
17620W        W35144   5.438   7.482  16.139  0.1667 -0.1473  0.0074
17621W        W35145   5.238   5.008  12.671  0.2411  0.3403 -0.0293
17622W        W35146   6.491   1.424   1.609  0.0360 -0.2952 -0.1577
17623W        W35147   3.666  12.758  14.112  0.1188 -0.1572  0.0125
17624W        W35148   4.014  11.368  13.640 -0.0805 -0.0542 -0.1411
17625W        W35149  13.969   9.904   4.526 -0.3633  0.2571  0.3132
17626W        W35150   7.884  13.499   1.602 -0.1358  0.0567  0.2840
17627W        W35151   3.049   2.295  15.645 -0.1364 -0.0312 -0.0521
17628W        W35152  14.850  17.416   1.227  0.1192  0.2100  0.1035
17629W        W35153  15.838   7.506   4.528  0.2223 -0.1506  0.0517
17630W        W35154  16.880   3.905   0.884 -0.0902 -0.1430  0.2124
17631W        W35155   9.842  10.570  11.730  0.0357 -0.1155 -0.1566
17632W        W35156  14.588  17.060   1.539  0.3020 -0.0363 -0.1341
17633W        W35157  12.573   2.564   3.500  0.0510  0.1850 -0.0589
17634W        W35158   3.236   6.733  15.948 -0.0583 -0.3347 -0.1937
17635W        W35159   0.964  17.340  15.314  0.1861  0.2836 -0.0054
17636W        W35160  12.787   2.965   2.016  0.1968  0.0072  0.1218
17637W        W35161  15.583   5.677   1.406  0.0671  0.0239  0.1071
17638W        W35162   7.817  17.743  13.125  0.1418 -0.3124 -0.0952
17639W        W35163   8.456  10.079  13.389 -0.1448 -0.2345 -0.1030
17640W        W35164   0.812   6.005  13.609 -0.1526 -0.2252  0.2611
17641W        W35165  15.598  15.243   0.440 -0.1669 -0.0519  0.2214
17642W        W35166   9.811   8.274   4.671  0.2367  0.3736  0.0695
17643W        W35167  13.914  11.522   4.259 -0.1001 -0.0875 -0.2737
17644W        W35168  16.612   6.966  11.706 -0.1442  0.1587  0.0122
17645W        W35169   5.507   4.191  13.677  0.0393  0.2293  0.0834
17646W        W35170   8.878  16.999  14.728 -0.1344 -0.1522  0.0158
17647W        W35171   8.826  16.369   6.036  0.1637 -0.0082  0.0958
17648W        W35172   9.737   6.403  14.952 -0.0350 -0.2289  0.0546
17649W        W35173   5.095  12.618  15.336 -0.2554 -0.1646 -0.1473
17650W        W35174  10.671   6.849  14.747  0.0989  0.1020  0.0915
17651W        W35175   9.050  16.649   0.341 -0.0424 -0.2822  0.1094
17652W        W35176   3.957   2.586   2.090  0.1909  0.0415 -0.2081
17653W        W35177  15.687   8.777  16.169  0.0456  0.1283 -0.1972
17654W        W35178  17.117  10.254   1.469 -0.0509  0.0697  0.1320
17655W        W35179   9.474   5.410  15.853 -0.0395  0.0170 -0.4178
17656W        W35180   4.347  11.048  13.303 -0.0817 -0.0833 -0.1572
17657W        W35181  12.577   3.116  14.681  0.0251 -0.0160 -0.1720
17658W        W35182  10.140  16.540  12.724  0.3097 -0.2643  0.0212
17659W        W35183   5.940   6.217   2.189 -0.0330  0.1392 -0.3051
17660W        W35184  12.810  17.650   4.998  0.2139 -0.1845 -0.0103
17661W        W35185   2.043   1.020  11.419  0.1185  0.2753  0.3805
17662W        W35186  15.656  10.186  11.347 -0.2727 -0.0908 -0.0888
17663W        W35187  12.714  14.944  12.870 -0.0974  0.1265 -0.1872
17664W        W35188   5.140   7.553   0.629 -0.4135  0.0898 -0.1287
17665W        W35189   2.614  12.331  15.634  0.0521  0.0569 -0.0485
17666W        W35190  16.840   5.239   1.212  0.0325 -0.0043  0.1199
17667W        W35191   7.202  10.785  13.296 -0.1441 -0.0083 -0.0898
17668W        W35192   6.986   9.239   2.613  0.1009  0.2592  0.0532
17669W        W35193  15.056  14.456   0.430  0.2765  0.4770  0.0867
17670W        W35194  11.539   8.741   1.505 -0.0902 -0.0904 -0.2957
17671W        W35195   7.154   0.103   3.217  0.0144 -0.0474  0.0406
17672W        W35196  17.742   1.216   1.591  0.1112 -0.1787 -0.4202
17673W        W35197  16.909  14.354  13.782 -0.0414  0.0463  0.0454
17674W        W35198   7.133   7.715  14.720 -0.5292 -0.0437  0.1188
17675W        W35199  17.780  13.930   1.684  0.3363  0.1010 -0.0531
17676W        W35200  12.145   7.252   3.853 -0.2353  0.1558  0.1481
17677W        W35201  11.231  10.808  13.418  0.2065 -0.0234 -0.1713
17678W        W35202  17.223   7.897   0.251 -0.1711  0.1651 -0.3264
17679W        W35203  10.672  11.023  11.976  0.0516  0.0078  0.2318
17680W        W35204   8.481  17.576  14.791  0.2778  0.0258  0.1637
17681W        W35205   5.599  11.893  15.905  0.1097  0.1563  0.0604
17682W        W35206   8.760  16.743  15.346  0.1648  0.0878 -0.0703
17683W        W35207  11.275  15.126  11.031 -0.0073  0.2220 -0.0714
17684W        W35208   5.429   0.487   4.453 -0.0185  0.1590  0.0660
17685W        W35209  11.027   0.002   1.475 -0.0957  0.1708  0.2502
17686W        W35210   0.334  14.029  13.068  0.2340 -0.2124 -0.3963
17687W        W35211   2.719   9.825   3.987 -0.0242  0.1530  0.1931
17688W        W35212  16.403  16.381  13.521 -0.2161 -0.1519 -0.3067
17689W        W35213  12.475   6.547  15.795 -0.0651 -0.1515  0.0806
17690W        W35214  10.613  12.371   1.217  0.4469  0.0614 -0.0932
17691W        W35215  11.170   3.147  12.944  0.1701 -0.1212  0.1215
17692W        W35216  10.446  16.210   2.837  0.2961  0.0510 -0.1673
17693W        W35217   4.802   2.584   4.900 -0.2287  0.0120 -0.0183
17694W        W35218  11.309   4.146  11.669  0.1845 -0.0745 -0.0439
17695W        W35219  12.353   8.060   3.806  0.0350 -0.2242  0.0316
17696W        W35220   3.090   3.100   5.632 -0.0024  0.0228  0.0822
17697W        W35221  13.431   2.238   2.828 -0.2542 -0.0250 -0.2609
17698W        W35222  16.689   4.590   1.498 -0.0961  0.1941  0.0328
17699W        W35223   9.346  17.567  15.408  0.1081  0.1221 -0.0397
17700W        W35224  17.551  11.199  13.885 -0.0675 -0.2771 -0.2091
17701W        W35225  11.973  16.702  14.875  0.2365  0.2443  0.0311
17702W        W35226  16.521  14.456  15.229  0.0177  0.0289 -0.2381
17703W        W35227  13.414   6.778  15.284 -0.0316  0.0987 -0.1029
17704W        W35228   7.825   7.812  12.902 -0.0579 -0.1477  0.3280
17705W        W35229   2.072  11.484  13.139 -0.1269 -0.1545  0.2017
17706W        W35230   8.806   4.315  11.794 -0.1235 -0.2054  0.0735
17707W        W35231  13.287  16.724  11.378  0.2245  0.1367 -0.1889
17708W        W35232   7.586  17.485  14.480 -0.2139  0.0038 -0.1301
17709W        W35233  14.111   9.532   3.240  0.0834 -0.1220  0.2984
17710W        W35234  17.923  12.718   5.030 -0.0185 -0.2323 -0.2668
17711W        W35235   2.501   1.775  12.687 -0.1333 -0.1364  0.0276
17712W        W35236   9.910  17.725  13.545 -0.0210 -0.2287  0.0142
17713W        W35237  11.452   5.726  14.824 -0.0413 -0.0410 -0.0232
17714W        W35238  10.293  10.073   2.267  0.0345 -0.1356 -0.2030
17715W        W35239   7.409  12.907   0.460  0.2148 -0.1412 -0.2805
17716W        W35240   1.262  15.343  13.544  0.0035 -0.2426  0.1020
17717W        W35241  10.679   3.033   2.653  0.1678  0.0489 -0.2226
17718W        W35242  12.867  13.234  11.520  0.0168  0.1469 -0.0971
17719W        W35243  12.127  16.778  13.994  0.1987  0.1246 -0.0075
17720W        W35244   3.654  14.930   2.854  0.1343 -0.2177  0.0085
17721W        W35245  13.941  16.384   2.883 -0.0855  0.2630  0.3230
17722W        W35246  17.915   5.997   2.232 -0.0724 -0.1487  0.0402
17723W        W35247  14.158  11.379  16.211  0.1090  0.1382 -0.2075
17724W        W35248   7.160   7.474   4.732 -0.3875  0.0854  0.1527
17725W        W35249  15.245   6.794   0.904 -0.1583  0.2840  0.0596
17726W        W35250   7.409   3.541   4.199  0.0536 -0.0051 -0.0125
17727W        W35251  10.091  16.834   3.722 -0.0772 -0.2343 -0.2290
17728W        W35252   5.099   7.891   1.489  0.1932  0.1237  0.2245
17729W        W35253  13.484   5.037   3.551 -0.0964 -0.0025 -0.1317
17730W        W35254   2.863   6.052   3.720  0.0287  0.0383  0.0565
17731W        W35255   8.223   8.989   4.778 -0.0285 -0.0920  0.2111
17732W        W35256   0.578   2.174  12.162 -0.1930 -0.1071 -0.1838
17733W        W35257   7.998   4.146   0.364  0.2113 -0.1092  0.2381
17734W        W35258   7.761  12.650  14.038 -0.0648 -0.1141 -0.3418
17735W        W35259  17.817   1.266  13.398  0.0578 -0.2785 -0.0518
17736W        W35260  14.753  14.287  16.161 -0.0201  0.0166  0.0200
17737W        W35261   6.821  14.154  15.072  0.1504  0.1165  0.2383
17738W        W35262  15.145  10.064  14.337  0.2734 -0.3120 -0.0000
17739W        W35263   9.277   4.034  14.684  0.1717  0.1641  0.3695
17740W        W35264  14.488   8.136   0.427 -0.0757 -0.0253 -0.1044
17741W        W35265  16.187   2.595  15.842 -0.0054 -0.0720 -0.0322
17742W        W35266  11.069  15.236   0.969  0.4427  0.1302 -0.0343
17743W        W35267  12.825   6.424   3.305  0.0769 -0.0304 -0.0326
17744W        W35268   7.770   6.558  16.120  0.0014 -0.0040 -0.1035
17745W        W35269  17.234  15.410  13.903 -0.0213  0.0171 -0.2580
17746W        W35270   8.019  16.625   3.580  0.1883 -0.0582  0.0757
17747W        W35271   7.332   6.008   4.279  0.1712  0.0077  0.2525
17748W        W35272  16.594  13.981  13.690 -0.0629  0.2725 -0.2143
17749W        W35273  12.537   8.415   1.673 -0.2696  0.0939  0.1210
17750W        W35274   5.462  13.174  14.060  0.0928 -0.3323  0.0670
17751W        W35275  15.143   9.286  11.868 -0.2486  0.0530 -0.0439
17752W        W35276   8.804   9.898  12.379  0.2533 -0.0629  0.1504
17753W        W35277   7.961   1.211  14.152  0.2097 -0.1236  0.1506
17754W        W35278   7.032   9.929   3.737  0.2116 -0.2163  0.0473
17755W        W35279   1.249   3.554   3.694 -0.0536  0.1091 -0.0682
17756W        W35280  17.830   1.842  11.420 -0.2923 -0.0676 -0.0469
17757W        W35281   7.463   4.892  12.809 -0.1073  0.2333  0.1905
17758W        W35282   0.015   8.876  10.394  0.1033  0.0079  0.1077
17759W        W35283   0.605   1.673  12.405  0.1122  0.2326 -0.0757
17760W        W35284  13.972   8.849   2.694 -0.0375 -0.3196 -0.1179
17761W        W35285   9.390   5.653   1.039  0.0712 -0.3011 -0.2480
17762W        W35286  11.637   4.454   3.520 -0.1016  0.1905 -0.2913
17763W        W35287   0.096   9.732  13.846 -0.0079  0.1045  0.1376
17764W        W35288   8.066   1.445   2.114 -0.2279 -0.2031  0.0502
17765W        W35289  16.062  15.619  10.517  0.0766  0.2868  0.0426
17766W        W35290   6.741   2.232   2.910  0.3871  0.5096 -0.0206
17767W        W35291   0.210   0.081  11.679  0.2363  0.0252 -0.3153
17768W        W35292  10.349  17.001  14.807  0.0658  0.1194 -0.0233
17769W        W35293  12.837   0.802   4.335 -0.1792  0.2207  0.3302
17770W        W35294  11.435   8.423   3.000 -0.0130 -0.0423 -0.1037
17771W        W35295  11.220  14.860   4.681 -0.1509 -0.0418  0.2241
17772W        W35296   0.990  11.355  15.558  0.1850 -0.1675  0.0145
17773W        W35297   6.768  15.816   5.052 -0.1127 -0.0825 -0.2149
17774W        W35298  16.752   7.502  14.385  0.0979 -0.2154  0.1888
17775W        W35299   2.433   3.209   3.864  0.1653  0.0929 -0.2431
17776W        W35300  11.885  11.336  12.606  0.1862 -0.1409 -0.0737
17777W        W35301   5.744  13.597  14.107 -0.0176  0.3167  0.0551
17778W        W35302   0.696  11.821   0.345 -0.0622  0.2410 -0.0919
17779W        W35303   6.825  17.419   1.477  0.1605  0.1865 -0.1475
17780W        W35304  16.089  15.584   1.885 -0.1799  0.0902 -0.0118
17781W        W35305  12.228   7.621  13.114  0.0023 -0.1164  0.1446
17782W        W35306   3.551   6.863   0.967  0.1796  0.0988  0.0968
17783W        W35307   3.550  14.824  12.685 -0.2268 -0.1862 -0.0215
17784W        W35308  11.327   0.883   3.821  0.2007 -0.5016  0.0196
17785W        W35309  11.207   6.562   0.043  0.0280 -0.3914 -0.1184
17786W        W35310  15.443  16.545   4.350  0.0970 -0.0217  0.0469
17787W        W35311   1.517  15.575  14.003 -0.0740  0.1130  0.1075
17788W        W35312  13.745  16.487  14.124 -0.1661 -0.0603 -0.1517
17789W        W35313   0.624   0.814   1.578  0.2276  0.2010 -0.1820
17790W        W35314   0.688   8.461  13.780 -0.2365  0.1797 -0.0417
17791W        W35315  12.938  17.106   5.123  0.0680  0.3668  0.0254
17792W        W35316   3.131   7.700   5.424 -0.0224 -0.5006 -0.1357
17793W        W35317  11.569   4.630   0.631 -0.0459 -0.0639  0.0557
17794W        W35318  16.897   6.102   3.294 -0.1043 -0.1440  0.1426
17795W        W35319  17.358   9.431   2.803  0.4388  0.1180  0.1283
17796W        W35320   8.563  11.874   6.341 -0.1294 -0.2524  0.1671
17797W        W35321  13.135  14.286   0.028  0.3555  0.0694 -0.3664
17798W        W35322   4.598   8.808  12.058 -0.0002  0.1507 -0.0391
17799W        W35323  12.187  14.543   0.194 -0.3733  0.0276 -0.0638
17800W        W35324   7.084   0.495  14.436 -0.2479 -0.0153 -0.1687
17801W        W35325   6.273   6.774   3.685 -0.1016 -0.0469  0.0146
17802W        W35326   7.362  12.078   2.490  0.2520 -0.0663  0.1567
17803W        W35327  16.377   6.989   2.200 -0.1104 -0.0468 -0.1861
17804W        W35328   9.402  10.070   1.051 -0.1392 -0.3977 -0.0886
17805W        W35329   0.276   7.441  14.459  0.1216  0.1985 -0.0778
17806W        W35330  13.412  15.950   0.031  0.0013  0.0358  0.0267
17807W        W35331   9.972  13.549  14.196 -0.0477 -0.0155  0.0294
17808W        W35332   9.329   6.795  13.383  0.0185  0.1421  0.1759
17809W        W35333  12.046   5.327  15.610 -0.1426  0.2607  0.0347
17810W        W35334   0.905   6.057  12.585  0.1172 -0.1334  0.2186
17811W        W35335  10.815  17.497  12.712  0.0704 -0.0330 -0.1653
17812W        W35336   6.512   9.535   5.354 -0.2686 -0.2239  0.1129
17813W        W35337  12.907  17.850  13.738  0.1990 -0.0784 -0.0038
17814W        W35338  10.430   8.286   2.208  0.1508 -0.0189 -0.5178
17815W        W35339  16.169   1.304  12.510 -0.0582 -0.0953 -0.0847
17816W        W35340  12.971   1.537  14.766 -0.0501 -0.1106 -0.4552
17817W        W35341  11.155  10.354  14.259  0.0833 -0.0311 -0.0373
17818W        W35342  12.696   8.314   1.121 -0.1039 -0.1589 -0.1973
17819W        W35343   1.967   2.259   0.232  0.0109 -0.0524 -0.1605
17820W        W35344   7.917   6.152  14.580 -0.0735 -0.2196 -0.4245
17821W        W35345  10.692  10.255  14.004 -0.0054  0.0457  0.1612
17822W        W35346  14.072   0.567  12.348  0.0090 -0.1908 -0.0005
17823W        W35347  17.342   6.358  15.045 -0.0780  0.0120  0.2594
17824W        W35348  13.289   8.481   4.419  0.2000 -0.1557 -0.1895
17825W        W35349  14.904   9.836   1.879  0.0094  0.3111 -0.0599
17826W        W35350  13.062   7.284  14.164 -0.1611  0.1129  0.0114
17827W        W35351   9.119   7.932   1.908 -0.0164  0.0143 -0.1850
17828W        W35352  14.877   9.508  16.053 -0.0891  0.0981  0.0615
17829W        W35353  11.050   0.480   4.454  0.0157  0.1436  0.2123
17830W        W35354   5.986   7.140  13.900  0.2331 -0.0907 -0.3069
17831W        W35355   7.791  11.111   4.816 -0.3255  0.2368  0.0039
17832W        W35356   4.971  10.977   5.199  0.2072  0.1910 -0.2541
17833W        W35357   0.873  16.511  15.344 -0.1370 -0.0259  0.1891
17834W        W35358   8.217   5.822   0.366  0.0464  0.0332  0.1948
17835W        W35359   1.728  10.849  11.369 -0.1325  0.0224 -0.0641
17836W        W35360   5.976   9.693   1.185 -0.0379  0.1785  0.1474
17837W        W35361  15.382   4.626   1.655 -0.0769 -0.1924 -0.0358
17838W        W35362  17.956  15.541  15.325 -0.1611  0.0306 -0.0517
17839W        W35363   9.956  11.987  14.150 -0.4603 -0.0827  0.0454
17840W        W35364  15.196   0.841  11.589 -0.2541  0.3301  0.1636
17841W        W35365  10.949  10.756   5.050  0.1145  0.1359  0.1561
17842W        W35366   1.938   9.817   3.738  0.1848 -0.1769  0.1007
17843W        W35367  16.948   1.441  16.150 -0.0544 -0.1479  0.2427
17844W        W35368   0.085  16.703  13.107 -0.1673 -0.0936  0.0745
17845W        W35369  10.006   6.391  13.596 -0.0410  0.0393  0.2983
17846W        W35370  10.236   9.913   5.720  0.1838 -0.1003  0.3952
17847W        W35371  13.927   1.983   2.637 -0.1499  0.2993 -0.0051
17848W        W35372   9.423   4.342   1.634  0.1155 -0.0072 -0.1955
17849W        W35373   5.886   5.129  15.987 -0.1002  0.0216 -0.3515
17850W        W35374   9.398  13.440  12.532  0.1493  0.1499  0.1402
17851W        W35375   9.069  11.507  12.907  0.2744 -0.4089  0.1106
17852W        W35376   3.330   6.909  12.132  0.4300 -0.0863 -0.0789
17853W        W35377   7.196  13.656   3.389  0.0144 -0.2963  0.0717
17854W        W35378  14.881  12.793  12.349 -0.1129  0.0830  0.1860
17855W        W35379   9.915   3.052   1.380  0.1917 -0.0401  0.1368
17856W        W35380   1.013  15.311   5.017  0.2586 -0.4218 -0.0594
17857W        W35381  13.608  15.210   4.792  0.2426 -0.0726  0.2773
17858W        W35382   9.749   0.474   5.252 -0.1226  0.1801 -0.0368
17859W        W35383  13.290  12.420   2.582 -0.1243 -0.0568 -0.2485
17860W        W35384   5.551   0.186   2.718 -0.3271  0.1072 -0.0060
17861W        W35385   2.403   3.841   5.465 -0.0725  0.1935 -0.1643
17862W        W35386   2.975   6.832   0.097 -0.2047 -0.3354 -0.3623
17863W        W35387   5.177   2.139  12.822  0.1620  0.4005  0.2519
17864W        W35388  13.661  13.572   0.962 -0.1810  0.3573  0.1243
17865W        W35389   4.259   3.682   4.958 -0.2424  0.0849  0.0170
17866W        W35390  14.983   7.691  15.112 -0.4548  0.1996 -0.1758
17867W        W35391   0.510  12.787   0.443  0.1387  0.0143 -0.0565
17868W        W35392   0.614   6.159   3.120  0.0149  0.0539  0.0253
17869W        W35393  15.123   2.773   4.608 -0.0279 -0.1729 -0.3862
17870W        W35394   6.121  10.905   3.192  0.1880  0.1385 -0.0049
17871W        W35395   1.612  14.060  15.716 -0.0140  0.0346 -0.2469
17872W        W35396  13.847  17.031  11.351 -0.0801  0.2393 -0.0170
17873W        W35397  17.279   6.480   0.720 -0.2042 -0.0929 -0.1721
17874W        W35398  10.699  16.028  14.807  0.0775 -0.0883  0.0116
17875W        W35399  10.465  16.574  11.780  0.0630  0.0751  0.0214
17876W        W35400   9.271  15.709   0.942  0.0711 -0.3895  0.0851
17877W        W35401   0.699  12.861  11.645  0.0631  0.2393 -0.0818
17878W        W35402  15.220   3.812  14.358 -0.2266 -0.1194 -0.1080
17879W        W35403  17.083  11.663   1.906 -0.0650  0.4195 -0.5634
17880W        W35404  11.257   3.220  15.149  0.1465 -0.1622 -0.0548
17881W        W35405  13.252  16.172   0.565 -0.0710 -0.4842  0.0774
17882W        W35406  11.586  16.639  13.995  0.0561 -0.0001 -0.1159
17883W        W35407   9.749   6.002  13.950  0.2318  0.2506  0.0535
17884W        W35408   0.534  13.371  11.956 -0.0373  0.1269 -0.3525
17885W        W35409   5.528   7.752  12.408  0.0701  0.2327 -0.0505
17886W        W35410   8.551  12.838  15.510 -0.0922  0.0948 -0.1086
17887W        W35411  14.931   8.835  11.776  0.1855 -0.0407  0.4408
17888W        W35412  12.209   7.955  14.899 -0.0595  0.0343  0.2078
17889W        W35413   9.972   9.714  12.014 -0.2868  0.2255  0.0146
17890W        W35414   8.558   8.168  16.050  0.1274 -0.0243 -0.1861
17891W        W35415  15.728  14.945   5.515  0.1106  0.1015  0.2830
17892W        W35416  11.804  17.452   0.068  0.1094  0.0046  0.2019
17893W        W35417  16.652   3.578  15.507 -0.1282 -0.1525  0.1763
17894W        W35418   8.976  12.654  15.439  0.2564 -0.1459 -0.2853
17895W        W35419  17.891  14.399   3.721 -0.0740 -0.0961 -0.3121
17896W        W35420  10.130   4.513  14.850 -0.0666 -0.1262 -0.0253
17897W        W35421   9.846   3.504   0.051 -0.0600  0.1069 -0.2909
17898W        W35422   3.933   4.649  13.174  0.1659  0.1468  0.0059
17899W        W35423  10.624  15.426  15.816  0.0118  0.4094  0.0903
17900W        W35424  12.333   1.331  16.181 -0.1364 -0.3419  0.1880
17901W        W35425  14.208   6.485  12.594  0.0674  0.1561  0.0670
17902W        W35426   1.887   6.306   1.851  0.0323  0.2789  0.1968
17903W        W35427  10.852   7.701  15.256  0.0331 -0.3557 -0.3817
17904W        W35428  14.139   8.637   2.324  0.0219 -0.0851 -0.2288
17905W        W35429   4.859  14.584  15.568  0.1031 -0.1992  0.0976
17906W        W35430   8.132  17.807  13.950 -0.0791 -0.0676 -0.3615
17907W        W35431   3.816   2.539  14.558 -0.1277  0.0140  0.0234
17908W        W35432  16.880  11.962   1.006  0.2238 -0.3418  0.0709
17909W        W35433   4.883   4.533  15.913  0.1487 -0.0452  0.0366
17910W        W35434   8.776  13.325  10.672  0.0824 -0.0667  0.0672
17911W        W35435  10.397  13.522   1.930 -0.2265  0.2313  0.3910
17912W        W35436  17.594   0.053  14.706  0.2204  0.1741  0.1153
17913W        W35437   1.350   0.115   4.490 -0.2606  0.0864  0.0844
17914W        W35438  12.237  12.964  15.259 -0.0663  0.1075 -0.0460
17915W        W35439  14.905  14.776  13.405 -0.0203  0.3148 -0.0115
17916W        W35440   3.577  17.758   5.437 -0.2570  0.3631 -0.1194
17917W        W35441  12.410   1.157   3.769 -0.2633 -0.0479  0.1286
17918W        W35442   1.552  13.380   2.176 -0.2562  0.1324  0.0977
17919W        W35443   0.045   5.313  13.584 -0.0012  0.0334  0.2298
17920W        W35444  11.719  16.847  14.494  0.2169 -0.0701  0.1577
17921W        W35445  10.855  14.876   1.758 -0.1090  0.4151 -0.0188
17922W        W35446   3.507  11.887  15.339  0.1961  0.2343  0.2014
17923W        W35447   4.019  14.184  11.358 -0.1842 -0.5111  0.0319
17924W        W35448   7.245  17.513   0.907  0.1389 -0.3448 -0.0221
17925W        W35449  14.120  10.906  15.032 -0.1767  0.2596  0.0667
17926W        W35450  12.717   1.986   4.348 -0.1404  0.0768 -0.0260
17927W        W35451   1.296  13.589   1.343 -0.0725  0.2162  0.0716
17928W        W35452  10.683   6.626  15.624  0.0727  0.1005 -0.0368
17929W        W35453  16.979   5.469   3.797  0.0421 -0.0069 -0.0347
17930W        W35454  17.588  15.001   0.145  0.2426 -0.0798 -0.2417
17931W        W35455   9.756  13.905   3.041 -0.0398  0.1822  0.0660
17932W        W35456  15.328  16.365   1.770  0.1547  0.1185  0.3131
17933W        W35457   2.201   1.254  12.676 -0.0387 -0.0924 -0.4571
17934W        W35458  15.440  15.341  13.194  0.1024  0.1373 -0.5303
17935W        W35459  14.633  13.178  15.158  0.0883  0.1113 -0.0600
17936W        W35460   6.937   4.371  15.627 -0.1514 -0.0794  0.1554
17937W        W35461   2.672  12.151   4.252  0.0126  0.4610  0.2357
17938W        W35462   6.054   3.798  14.571 -0.1417 -0.1114 -0.0883
17939W        W35463   6.820   4.322   1.154  0.0537  0.1404 -0.0989
17940W        W35464  17.530   2.332  10.506 -0.0985 -0.2264  0.0991
17941W        W35465   1.475   4.999  12.912  0.0690 -0.1520  0.2471
17942W        W35466  10.978   3.135  15.576 -0.2033 -0.0329 -0.1332
17943W        W35467  14.097  17.262  10.911  0.2132 -0.0815 -0.3854
17944W        W35468  16.855  11.016   3.129  0.1472  0.2149 -0.0453
17945W        W35469  11.555   9.025   1.029  0.0396 -0.3500  0.2444
17946W        W35470   5.621  11.003   0.614  0.0237 -0.0735  0.0207
17947W        W35471   5.007   4.031  13.548 -0.0599 -0.4085  0.0021
17948W        W35472   3.288  16.869  11.677  0.0120 -0.0306 -0.2046
17949W        W35473   5.913  15.494  12.771 -0.0672 -0.0088  0.2045
17950W        W35474   8.400  16.133  13.654  0.0544 -0.1026 -0.0663
17951W        W35475  17.342  17.191  12.797  0.1276  0.1580 -0.0140
17952W        W35476  12.087   0.092   3.248 -0.1100  0.0127  0.2531
17953W        W35477  15.575  14.365   2.978 -0.0992  0.1864 -0.1556
17954W        W35478  15.206   7.464  14.435  0.2950 -0.2265  0.1246
17955W        W35479  16.220   5.637  14.647  0.2825 -0.3074  0.0273
17956W        W35480   6.239   6.288  15.051  0.1932  0.1166 -0.1019
17957W        W35481   5.437   5.473  14.888  0.4390  0.0673  0.0887
17958W        W35482   9.660   5.856   2.940 -0.2099  0.4004  0.2469
17959W        W35483   7.280   3.934  12.603 -0.1315 -0.0931 -0.0281
17960W        W35484   1.278  13.420  12.625 -0.2378 -0.0960  0.4013
17961W        W35485  16.166  15.939   3.157  0.0150 -0.1720 -0.2660
17962W        W35486  12.114  15.563  11.406  0.0095 -0.0357  0.3183
17963W        W35487   1.355   4.727  10.421 -0.1109 -0.1867 -0.0044
17964W        W35488   0.446  12.447  11.881  0.1353 -0.1750  0.0649
17965W        W35489   2.087   1.511  14.674 -0.0014 -0.1516 -0.0336
17966W        W35490   9.485  11.754   0.605 -0.2777 -0.2227  0.3172
17967W        W35491   6.730   4.177   3.529  0.0774 -0.1354  0.1593
17968W        W35492  11.039  14.331  12.529  0.0381  0.0460  0.1943
17969W        W35493   2.916   1.006   5.103  0.2160 -0.0440 -0.1304
17970W        W35494   5.295  12.357  14.052  0.0713  0.2547 -0.1901
17971W        W35495   1.595  10.189   3.935  0.0477 -0.0322 -0.2674
17972W        W35496   7.109  13.491   5.492 -0.0734  0.0542  0.1253
17973W        W35497   8.701   9.947  10.574 -0.1441  0.0431  0.0326
17974W        W35498   4.863   0.137  15.506 -0.2492  0.0272  0.0836
17975W        W35499   3.801   2.153   1.724 -0.3059 -0.0620 -0.2196
17976W        W35500   3.483   6.647   2.445  0.1235 -0.3697  0.1542
17977W        W35501   9.423   8.588  13.560  0.0566  0.1027 -0.0283
17978W        W35502  17.535   6.455  11.543 -0.0421  0.0564  0.2962
17979W        W35503   0.418   7.216   2.432 -0.1124 -0.1335 -0.1941
17980W        W35504  11.302   6.960   0.852 -0.1367  0.0994  0.1045
17981W        W35505   5.147   8.816   3.655  0.0768  0.0818  0.2404
17982W        W35506   9.579  14.915   3.061 -0.2175  0.0931 -0.2119
17983W        W35507   1.490  11.725   1.658 -0.2231  0.0046  0.0215
17984W        W35508   8.721   2.841   1.933  0.0711 -0.1463  0.1900
17985W        W35509   2.498   1.382  11.443  0.3755 -0.0346  0.0966
17986W        W35510  10.296  14.270   2.902  0.3346 -0.0798  0.1775
17987W        W35511   3.169   7.626   4.529  0.1081 -0.0217  0.1452
17988W        W35512   4.949   3.876   1.826  0.0074 -0.1693  0.0134
17989W        W35513  14.400  15.110   3.554 -0.4082  0.0593  0.0925
17990W        W35514  14.752  16.441  16.185  0.0127 -0.0602  0.3097
17991W        W35515   5.288  10.250  11.533 -0.3644 -0.3927 -0.2685
17992W        W35516  12.309  12.509  14.050 -0.1055 -0.2185 -0.1655
17993W        W35517  17.616  12.546  11.227  0.1412  0.3219 -0.1095
17994W        W35518   4.814  14.084  12.219 -0.0021  0.1421 -0.0633
17995W        W35519  14.768   6.704   0.805 -0.1141 -0.0822  0.0143
17996W        W35520  16.451   5.540   3.885  0.0180 -0.0395 -0.0314
17997W        W35521   3.178   2.645   1.555  0.3136  0.0176  0.0982
17998W        W35522  13.191   6.627   2.178  0.0618 -0.2678 -0.1934
17999W        W35523  16.918   0.869  15.030 -0.1997  0.1340 -0.1328
18000W        W35524   3.816  16.959   3.820 -0.0597  0.0058 -0.0406
18001W        W35525  15.970  11.805  12.234 -0.1322 -0.0625 -0.1995
18002W        W35526   9.715  13.962  14.026 -0.1690 -0.1648  0.1645
18003W        W35527  10.529   1.646   3.132 -0.1498 -0.3189  0.0861
18004W        W35528  15.878   7.255   2.242  0.0818  0.1880  0.0648
18005W        W35529  10.625   9.462  14.892 -0.1535 -0.0773  0.1504
18006W        W35530  13.526   9.346  13.614 -0.0986  0.1239  0.1007
18007W        W35531  11.003  12.505   2.065 -0.3490 -0.0950 -0.0336
18008W        W35532  11.685   9.447  13.819  0.3504 -0.3038  0.1031
18009W        W35533   3.436  17.371  13.115  0.0803  0.0439 -0.0571
18010W        W35534   1.803   4.297  14.647  0.0140 -0.0926 -0.1905
18011W        W35535  11.874  13.593   1.374 -0.0934  0.0385  0.0526
18012W        W35536  12.591   8.848   4.032  0.0010 -0.1215 -0.2273
18013W        W35537   9.461  11.868  14.104  0.0239 -0.2366 -0.1565
18014W        W35538   5.385  16.586   2.066 -0.0578 -0.3308  0.1142
18015W        W35539  17.124   7.970  11.500 -0.3420 -0.0910  0.1934
18016W        W35540   5.479   5.453  15.792  0.0652 -0.1117 -0.1032
18017W        W35541   8.966   9.675  11.872 -0.1098  0.0374 -0.0063
18018W        W35542   1.889   1.755   2.245  0.1078  0.0446 -0.2126
18019W        W35543  12.221   4.753  15.352 -0.0881  0.1009 -0.4107
18020W        W35544  14.286   4.515  16.250 -0.0169  0.2164 -0.2460
18021W        W35545  17.865  12.582  15.081 -0.0446  0.0583  0.1212
18022W        W35546  15.368  16.507  15.435  0.0306 -0.1978 -0.2014
18023W        W35547   9.872  14.992  12.198  0.3978 -0.3507 -0.1760
18024W        W35548   3.706  14.552   2.425 -0.1209 -0.0041  0.0129
18025W        W35549  10.488  11.635  15.273 -0.0824  0.0735  0.0110
18026W        W35550  15.432   9.858   3.746  0.2279 -0.1820 -0.1988
18027W        W35551   9.013   8.022   3.712  0.3817 -0.1856  0.4134
18028W        W35552  16.607  17.286  11.617  0.0415  0.1929 -0.1869
18029W        W35553   6.370   5.094  11.261 -0.0345  0.2056  0.0859
18030W        W35554   9.558   1.446  14.663 -0.0411 -0.2409 -0.0831
18031W        W35555   6.977   5.066  13.670  0.0889  0.0929 -0.1531
18032W        W35556  16.467  12.202   4.315 -0.0379 -0.1481  0.0616
18033W        W35557   5.131  14.787  11.220  0.2170  0.0052 -0.2505
18034W        W35558   2.731   2.841   4.188  0.0120 -0.0740  0.0791
18035W        W35559   6.284  17.823  12.431 -0.0169 -0.1017  0.0108
18036W        W35560  11.894   6.465  16.181 -0.2050  0.1726  0.1497
18037W        W35561  17.044   4.690   3.954  0.1712 -0.0883 -0.2188
18038W        W35562  12.265  12.538  13.558 -0.1972  0.0645 -0.0732
18039W        W35563   4.453   5.782  12.035 -0.0469  0.3591  0.1297
18040W        W35564   9.328   3.172  12.461 -0.1652  0.1634  0.0883
18041W        W35565   0.330  16.599  14.219  0.2675 -0.0309  0.0060
18042W        W35566  13.730   7.945  13.703  0.1414  0.0849 -0.1345
18043W        W35567   7.954  13.891  14.878  0.1216 -0.0499  0.0340
18044W        W35568   0.567  15.133  13.935  0.1310  0.0852  0.0462
18045W        W35569   7.083  15.639  11.876 -0.4178  0.0497  0.1495
18046W        W35570   8.579  14.505  14.511  0.1092  0.0301 -0.2333
18047W        W35571  15.109   6.349   4.759  0.1625 -0.1432  0.1431
18048W        W35572  14.596   7.980  13.697 -0.3408  0.6212  0.0544
18049W        W35573   7.458   5.485   3.420 -0.1763  0.0037 -0.3053
18050W        W35574  14.633   3.136  14.959 -0.2394  0.0372  0.0653
18051W        W35575  16.526  11.155  12.286 -0.0175  0.0505  0.2245
18052W        W35576  12.916   5.820   2.613 -0.0572 -0.0548  0.1496
18053W        W35577   7.825   1.692   0.985 -0.1129 -0.1454  0.1161
18054W        W35578  15.547  16.238   0.867  0.2294  0.0083 -0.1703
18055W        W35579  12.247   4.716   2.950  0.0439  0.0597 -0.0964
18056W        W35580  12.911   8.055  11.584  0.3172 -0.2323 -0.1027
18057W        W35581  10.634   4.788   4.144 -0.0878  0.0388 -0.1402
18058W        W35582   9.253   2.088   3.209  0.0313 -0.0097 -0.1398
18059W        W35583  14.885  15.716   2.946 -0.1993  0.0916 -0.1274
18060W        W35584   0.767  14.595  14.173 -0.3078 -0.3824  0.2684
18061W        W35585   0.412   2.633  12.208  0.0683 -0.2192 -0.1008
18062W        W35586   6.991   1.118   3.912  0.2294 -0.0535  0.0006
18063W        W35587  11.770   1.530   1.484 -0.3640  0.1849  0.1621
18064W        W35588  11.717  12.138  15.453  0.1249 -0.0246  0.3943
18065W        W35589  13.837   7.784  14.675 -0.0043 -0.0236 -0.0489
18066W        W35590   7.232  15.393   1.988  0.1667 -0.1145 -0.0037
18067W        W35591  17.749   1.628  14.287  0.2103 -0.0345  0.2652
18068W        W35592  17.630  11.259  15.757 -0.0771 -0.1442  0.0549
18069W        W35593  17.456   4.379   2.764 -0.1472 -0.0494  0.1908
18070W        W35594  15.109  13.836  15.325 -0.0534  0.2225  0.1090
18071W        W35595   7.149  12.188  14.507 -0.0471  0.2390  0.1100
18072W        W35596   8.401   4.160   1.719 -0.1077 -0.1176  0.1259
18073W        W35597   0.544   4.740   4.060  0.0569 -0.0846  0.2379
18074W        W35598  11.041   2.430  12.414  0.1245  0.1154  0.0086
18075W        W35599  16.340   0.403   1.463 -0.2697  0.0860 -0.2938
18076W        W35600  10.191   4.394  14.280 -0.0353  0.1704 -0.0390
18077W        W35601  10.673   6.328   2.352 -0.1241 -0.1992 -0.1058
18078W        W35602  16.008   7.152   1.517  0.1929  0.2263  0.2502
18079W        W35603   1.358   6.604  12.386  0.0420  0.1359 -0.1422
18080W        W35604   4.125  14.132  15.911  0.0694  0.0592 -0.0766
18081W        W35605   4.462  11.406  12.705 -0.2399 -0.3534 -0.2012
18082W        W35606  13.277   6.694  12.526 -0.2433  0.0096 -0.1639
18083W        W35607  16.685   0.341   2.817 -0.0664 -0.0649  0.3359
18084W        W35608   0.555   8.811  12.227  0.0153 -0.0948  0.0349
18085W        W35609   4.742  12.556  15.685 -0.1313  0.4714 -0.0353
18086W        W35610  10.350  16.870  13.032 -0.0663  0.0945 -0.0357
18087W        W35611  12.646   0.234   1.998  0.0021 -0.0541 -0.1136
18088W        W35612  10.171   4.105   4.372 -0.3528 -0.0702 -0.2386
18089W        W35613   6.191  12.894   1.429 -0.0345  0.0657  0.1630
18090W        W35614   0.808   0.790   4.345  0.1246  0.2657 -0.0818
18091W        W35615  17.176   9.653  15.207  0.0579  0.0258 -0.0613
18092W        W35616   8.926  10.621  11.558  0.0612  0.0766  0.0485
18093W        W35617  11.525  12.823  11.268  0.6029 -0.1698  0.3025
18094W        W35618  11.599   6.903   1.316 -0.0446  0.0170  0.3424
18095W        W35619   0.186  15.238  14.432  0.0350  0.1859  0.1651
18096W        W35620   0.424  10.417   4.647  0.0151  0.1024  0.1175
18097W        W35621  10.652   6.955  12.862 -0.0178  0.3135  0.3427
18098W        W35622  12.274   0.679   0.676 -0.3602 -0.2601  0.0822
18099W        W35623   4.796  11.337  13.174 -0.0869 -0.1445 -0.0482
18100W        W35624   1.004   5.736   3.795 -0.2606 -0.3432  0.0296
18101W        W35625  11.266   7.021   1.794 -0.2407 -0.0687 -0.0630
18102W        W35626   4.628   0.999  11.763  0.4419 -0.0732 -0.2969
18103W        W35627   1.347   6.849   3.228  0.0091 -0.0048  0.2679
18104W        W35628   4.662   9.957   0.011  0.3041  0.0062  0.0391
18105W        W35629  16.677  13.313   1.328  0.1019  0.0006 -0.1805
18106W        W35630   5.679  14.447   2.236  0.0347  0.1501 -0.1039
18107W        W35631   7.551   6.570   4.152 -0.1717  0.0178 -0.2842
18108W        W35632  17.738  10.943   3.846 -0.1571  0.3397  0.0592
18109W        W35633   1.840   6.766  15.482 -0.1794 -0.2413 -0.2950
18110W        W35634  14.606  10.825   2.117 -0.0450 -0.3140  0.0685
18111W        W35635   9.307   1.915   4.487  0.3305 -0.2714 -0.1470
18112W        W35636   6.580  13.334  14.199  0.3959 -0.0224 -0.0580
18113W        W35637   2.168   8.890  11.546  0.0039  0.1988 -0.0054
18114W        W35638  11.127   4.524  13.359  0.2231  0.0285 -0.0670
18115W        W35639   8.437   0.804   2.116  0.1372 -0.0413  0.1946
18116W        W35640  10.341   3.924   3.224  0.2040 -0.1547  0.1321
18117W        W35641  17.683   8.944   2.678 -0.0923 -0.2010  0.1160
18118W        W35642   3.996   1.557   5.268  0.1732 -0.0836  0.1481
18119W        W35643  11.036  13.152   3.724 -0.1476 -0.0849  0.2525
18120W        W35644   8.915  10.059   4.177 -0.0553  0.0013 -0.0857
18121W        W35645  16.681   2.176  15.591 -0.2667 -0.2056  0.1353
18122W        W35646   4.889   2.846  13.956  0.0472 -0.1535  0.3152
18123W        W35647  12.460   0.738   2.946  0.0349 -0.2731  0.2675
18124W        W35648   3.926   2.425   4.854 -0.4765 -0.1569 -0.0135
18125W        W35649  12.996   2.055   1.092 -0.0464  0.3152  0.2196
18126W        W35650   1.551   3.628  13.008 -0.0202 -0.0014 -0.0501
18127W        W35651   3.524   7.575  11.997 -0.0053 -0.0321  0.0682
18128W        W35652  16.216   3.880   4.459  0.1710  0.0130 -0.4923
18129W        W35653  12.748   9.998  15.033  0.1196 -0.1601 -0.0324
18130W        W35654   0.979  17.640   4.865 -0.2746 -0.1380 -0.1386
18131W        W35655   2.538   8.747   3.957 -0.1461  0.1755  0.0224
18132W        W35656  11.274   1.647  13.219  0.1383 -0.1276  0.1719
18133W        W35657   9.311  13.537   4.390 -0.0848  0.1087 -0.0172
18134W        W35658   3.800   5.847   4.967  0.0981 -0.0210  0.3033
18135W        W35659  13.226  16.169   2.392 -0.2428 -0.3224  0.1973
18136W        W35660   4.888  13.637  12.452 -0.1279  0.2795  0.3910
18137W        W35661  13.698  13.436  15.548  0.2258  0.0596  0.0803
18138W        W35662  15.119   9.640   4.239 -0.0783 -0.2129 -0.0251
18139W        W35663   9.695  16.719  13.748  0.2026 -0.1049 -0.0102
18140W        W35664   5.106  11.575  15.729 -0.0387 -0.1642  0.1473
18141W        W35665   5.273  14.624  14.322 -0.1528  0.1515 -0.1888
18142W        W35666   7.099   3.595   1.118  0.1292  0.2293  0.0368
18143W        W35667  10.169   1.860  14.109 -0.0263 -0.1264 -0.2395
18144W        W35668  16.096   7.269   1.036  0.1108  0.2381  0.3623
18145W        W35669  17.593   8.799  15.796  0.2231 -0.1156  0.0840
18146W        W35670   1.651  11.802  11.685  0.1454  0.1299 -0.1402
18147W        W35671   9.175  16.814  16.133  0.1797 -0.2705  0.0607
18148W        W35672   3.092   3.061   4.710 -0.2740 -0.3873  0.1455
18149W        W35673   1.907   7.406  13.725  0.1452 -0.0060 -0.2132
18150W        W35674   4.751  10.415   4.490 -0.1946 -0.3149 -0.1221
18151W        W35675  11.954   6.031  12.272 -0.2044 -0.0253 -0.3686
18152W        W35676  16.310   3.967   0.027  0.0459  0.1461  0.2318
18153W        W35677  17.643  17.453   0.365  0.1941 -0.1210  0.1532
18154W        W35678  10.687  17.338  14.963 -0.2695 -0.1159 -0.3242
18155W        W35679  15.065  15.800  14.798 -0.1435 -0.3148  0.1256
18156W        W35680  12.204  16.244   3.050  0.1351 -0.0030 -0.1404
18157W        W35681   3.756   9.193   2.196  0.0548  0.1950 -0.0314
18158W        W35682   8.596  17.785  15.581  0.0860  0.0230 -0.1601
18159W        W35683   1.206   6.526  14.651  0.0013  0.0646 -0.2837
18160W        W35684  13.013   2.956   0.630  0.0371  0.0088 -0.0341
18161W        W35685   5.917  12.303   0.887  0.1307 -0.4151 -0.0917
18162W        W35686   5.111   4.802   3.640 -0.2944 -0.3477 -0.0441
18163W        W35687  17.716   1.285  12.537 -0.1901  0.1535 -0.1255
18164W        W35688   4.842  11.574   1.101  0.0775  0.2275  0.0344
18165W        W35689  15.714   0.084  15.899  0.0600 -0.0997 -0.0954
18166W        W35690   5.790   2.256   2.809  0.0654  0.2217  0.0489
18167W        W35691   6.347  14.764  11.734  0.0595 -0.1314 -0.1144
18168W        W35692  15.338  11.282   3.144  0.1038  0.3067 -0.0492
18169W        W35693   9.719  16.997  15.962  0.0366 -0.1637  0.0471
18170W        W35694  11.080  11.730  13.726 -0.0696  0.1015  0.1428
18171W        W35695  15.440   2.419  14.703 -0.1439 -0.1304  0.0190
18172W        W35696   2.664  15.275  14.789  0.1179 -0.1533  0.5814
18173W        W35697  16.196   3.436  13.079  0.1471  0.0351 -0.1039
18174W        W35698   7.168  14.547   2.222 -0.1255 -0.0737  0.3199
18175W        W35699   8.885  15.941  14.402 -0.2049  0.0461 -0.1883
18176W        W35700  14.684  10.892  15.722 -0.1474  0.1872 -0.3378
18177W        W35701   5.486  16.695   5.125  0.2128 -0.3319  0.0198
18178W        W35702  14.622   3.040  12.444 -0.0326  0.0393  0.3730
18179W        W35703  15.905  11.555  13.988 -0.0209  0.3674 -0.1672
18180W        W35704  17.959  17.639  11.473 -0.1956 -0.2065  0.2353
18181W        W35705  13.903   2.390   3.030  0.2271 -0.0549  0.1770
18182W        W35706   4.822   2.578   5.737 -0.5093 -0.2218 -0.1310
18183W        W35707  16.277   4.752   0.619  0.0192  0.0794  0.0359
18184W        W35708  17.411  16.193   3.174 -0.1952 -0.1253  0.2132
18185W        W35709  14.498   8.560  15.676 -0.0363  0.0924 -0.1687
18186W        W35710  12.769  15.836  15.325 -0.0719  0.3732 -0.0295
18187W        W35711   2.779   2.709   2.621 -0.0471 -0.1833  0.2321
18188W        W35712   9.248  13.052  15.194 -0.0078 -0.0364  0.0169
18189W        W35713  13.492   7.105   0.568  0.0128  0.0055  0.1526
18190W        W35714  11.361   3.060  16.034 -0.1538 -0.0595  0.2360
18191W        W35715  13.546   8.632   3.924 -0.1518 -0.2860  0.3216
18192W        W35716  14.690  14.618   5.185  0.1499  0.2329 -0.0935
18193W        W35717  17.261  15.063  14.308  0.2145  0.0511 -0.1935
18194W        W35718  10.360  13.259  14.220 -0.2249 -0.1433  0.0191
18195W        W35719  11.556  17.467  11.197 -0.0587  0.1558 -0.0780
18196W        W35720   8.865   2.887   1.444  0.0258 -0.2308  0.1124
18197W        W35721  16.547   5.511   6.237  0.2746 -0.2463  0.1531
18198W        W35722  17.105  14.328   1.670 -0.0254  0.2214 -0.0170
18199W        W35723   4.464  13.000  13.754  0.0483 -0.1886 -0.1773
18200W        W35724  13.228  11.869  11.421 -0.1091 -0.1219 -0.0929
18201W        W35725  11.246  12.827   4.046  0.0188  0.0055 -0.1109
18202W        W35726   0.720  13.411   5.222 -0.0286 -0.1051 -0.1465
18203W        W35727  11.627   8.063  16.113 -0.2310  0.0342  0.2901
18204W        W35728  11.302   6.158   5.509  0.1942  0.0207  0.0521
18205W        W35729   1.988   1.346  15.112 -0.0703  0.0251  0.1823
18206W        W35730   1.330  16.474   2.896 -0.1673  0.2900  0.1514
18207W        W35731  11.180  17.104   1.698 -0.0943  0.2765 -0.3466
18208W        W35732   6.435   9.300   3.416  0.2401  0.3049  0.1406
18209W        W35733   4.728  12.323  11.261 -0.1481  0.1989 -0.1487
18210W        W35734  12.294   2.198  14.031  0.1417 -0.1870  0.0861
18211W        W35735  15.304   9.750   1.431 -0.1155 -0.0060 -0.0623
18212W        W35736   7.456   0.710   1.099 -0.3733 -0.2474 -0.0024
18213W        W35737  13.508  17.342   5.806  0.2180 -0.0659 -0.0318
18214W        W35738  11.864  11.504   1.165 -0.0701 -0.0342  0.0132
18215W        W35739   6.076  10.756  11.951 -0.0151  0.1812  0.0089
18216W        W35740   9.438  11.224  12.950  0.1563  0.0340  0.0605
18217W        W35741  10.540   7.476   3.610  0.1925  0.1033 -0.2233
18218W        W35742  12.916  13.888   1.341  0.3379  0.0152 -0.1640
18219W        W35743   8.043   7.854   1.068  0.1755  0.1433 -0.2089
18220W        W35744  10.458   1.461   1.160 -0.1257  0.0273 -0.0962
18221W        W35745  17.735   8.627   0.239  0.1712  0.1858  0.2067
18222W        W35746   9.495   8.010   2.285 -0.1100 -0.2670  0.3277
18223W        W35747  14.643   6.976   4.250 -0.3887  0.0887  0.1092
18224W        W35748   8.990  17.825  13.559  0.1483 -0.0130  0.2107
18225W        W35749   4.883   9.203   1.684  0.0096  0.2468 -0.2622
18226W        W35750  12.373  13.749   4.731  0.2233  0.0498 -0.1087
18227W        W35751   6.641   6.370  14.811 -0.2213  0.0846  0.0804
18228W        W35752   7.768  15.912   2.314  0.0267  0.1817  0.0782
18229W        W35753   0.879   9.664  11.963 -0.2346 -0.0590 -0.0088
18230W        W35754  12.693   4.702  11.795  0.0006 -0.0862  0.2251
18231W        W35755  11.125   2.924   1.568  0.0417  0.0606  0.0476
18232W        W35756   5.182   9.592  14.479 -0.0925 -0.1011  0.2948
18233W        W35757   6.142   8.372  15.586  0.2025 -0.1155  0.1222
18234W        W35758   8.298   1.648   0.042  0.0580  0.0203  0.1709
18235W        W35759   8.823   1.532  16.219 -0.0487  0.3672 -0.1937
18236W        W35760   7.934  16.947  15.746  0.2202 -0.0485  0.0651
18237W        W35761  12.863  10.502  14.968  0.1012  0.0024  0.0616
18238W        W35762  17.521  11.011  12.645  0.1660  0.0734 -0.0877
18239W        W35763  12.256  16.859   2.434  0.1448 -0.0332  0.2447
18240W        W35764  16.602  17.612   1.813  0.3495  0.2129  0.2178
18241W        W35765   8.687  10.928  13.267 -0.0283 -0.2304  0.2255
18242W        W35766  10.118  17.952  13.152 -0.1198 -0.0100  0.1663
18243W        W35767   9.941   8.340  11.714  0.1012 -0.1906  0.1504
18244W        W35768   7.436  14.965  13.703 -0.0240  0.1342  0.5640
18245W        W35769   5.965   1.895  15.666 -0.1183  0.0802  0.0671
18246W        W35770   6.624  13.202  13.698  0.0606 -0.4151 -0.1357
18247W        W35771  13.673  12.711   3.707 -0.0509 -0.2680  0.1766
18248W        W35772   7.255  14.140   4.873 -0.2379  0.1475 -0.0411
18249W        W35773   5.617   2.019   4.929  0.2721 -0.2504  0.1696
18250W        W35774  11.375   4.087   3.637  0.0364 -0.1775 -0.0221
18251W        W35775   7.651  10.461   0.545 -0.0534  0.1320 -0.0288
18252W        W35776  11.953   5.001  14.086  0.0749  0.2039 -0.1394
18253W        W35777   9.925   8.438  13.433 -0.1978  0.1977  0.0560
18254W        W35778   6.146   5.341  14.073  0.0182 -0.1431  0.2307
18255W        W35779   0.464  17.138   0.094  0.0945 -0.1425  0.1369
18256W        W35780  10.005  14.768   1.602 -0.1356 -0.1848 -0.2147
18257W        W35781  16.205   6.702   3.479  0.2901  0.1427 -0.3175
18258W        W35782   9.757   7.601   4.184  0.1303 -0.1521 -0.0076
18259W        W35783   3.393   3.759  11.176 -0.0121  0.0801 -0.0551
18260W        W35784   4.340  16.423   0.128 -0.0410  0.2088  0.0584
18261W        W35785   6.426   7.975  15.699  0.0947 -0.2968  0.1025
18262W        W35786   9.612   9.565   1.259 -0.1393 -0.3020  0.1883
18263W        W35787   4.412   1.783  12.695 -0.1589  0.1460  0.1984
18264W        W35788   6.862  13.117   0.693  0.0688 -0.2589  0.3068
18265W        W35789   8.139   9.240   3.439 -0.0171  0.0276 -0.2247
18266W        W35790  12.597  14.115   3.404 -0.0102  0.1405 -0.2032
18267W        W35791  16.872   6.864  13.021 -0.2980  0.3807 -0.0301
18268W        W35792  15.985  12.497  15.514 -0.0933  0.1352  0.1593
18269W        W35793  16.595  12.913  13.656 -0.1601  0.3493  0.1695
18270W        W35794  11.274   5.139  15.659 -0.0721  0.0477  0.1182
18271W        W35795   0.363  13.725  12.633  0.1318  0.1289 -0.1561
18272W        W35796   7.525   3.819   0.965  0.0160 -0.0188 -0.0663
18273W        W35797   3.553   7.099  11.620  0.0415  0.1461  0.0921
18274W        W35798   4.788  12.998   2.788  0.2748 -0.0882  0.1567
18275W        W35799   6.149  10.802   4.304  0.0855  0.1264 -0.2419
18276W        W35800   5.690   4.780   4.280  0.2708  0.2603  0.1724
18277W        W35801  15.119   8.888  12.253 -0.1456 -0.0091  0.3603
18278W        W35802  16.093  17.559  14.352  0.1345  0.0253  0.0511
18279W        W35803   4.985   1.467   3.936  0.1028  0.0878 -0.1076
18280W        W35804   0.057   3.369   5.960 -0.0033  0.0628 -0.3022
18281W        W35805   6.407  11.417  14.834 -0.2550  0.1378  0.4159
18282W        W35806  12.671  13.575  14.881  0.0002  0.0402 -0.4352
18283W        W35807  15.106   7.614  11.433 -0.0503 -0.0847 -0.0340
18284W        W35808  12.569   5.488   2.715  0.0256 -0.1600  0.0729
18285W        W35809   4.715  13.034   2.231  0.1324 -0.0194 -0.1927
18286W        W35810   0.366  14.475   2.203 -0.0332  0.1042  0.0552
18287W        W35811   6.694   3.362  11.066  0.0527 -0.2556 -0.0375
18288W        W35812   6.364   8.190   1.491  0.0903  0.0318 -0.2946
18289W        W35813   0.749   5.530   2.980  0.0722 -0.0881 -0.1301
18290W        W35814   9.286  10.620   4.232  0.3118  0.0740  0.0131
18291W        W35815   6.525  10.327   2.467  0.0556  0.4214 -0.0525
18292W        W35816  15.684   6.033   4.038  0.3294 -0.0627  0.2118
18293W        W35817  14.781   8.322  11.792 -0.0029 -0.0644 -0.1312
18294W        W35818   5.904  13.447   3.466 -0.0746 -0.3426 -0.0561
18295W        W35819   2.992   2.933   3.217  0.2831  0.0596  0.0208
18296W        W35820   1.664  16.615   0.788  0.2486  0.0599  0.1193
18297W        W35821  12.558  15.290  14.153 -0.1744 -0.0375 -0.2114
18298W        W35822  10.333  16.798  16.010  0.3711 -0.0722  0.2535
18299W        W35823   6.195  10.208   2.140  0.2756 -0.0799  0.1628
18300W        W35824  10.926   3.015   0.182 -0.1674  0.0150  0.0152
18301W        W35825   0.029   5.579  14.042  0.2225 -0.0037  0.0498
18302W        W35826   5.051  10.450   4.088 -0.4042  0.0364  0.0999
18303W        W35827   8.059  14.384  11.746 -0.5746 -0.4297  0.2455
18304W        W35828   3.213  12.277   4.359  0.1545 -0.2063 -0.0326
18305W        W35829   6.486   3.484   2.311 -0.4449 -0.0378 -0.0110
18306W        W35830   6.759   5.068   2.410 -0.4728  0.0696  0.5597
18307W        W35831   7.496  14.862  12.440 -0.1469  0.1874 -0.2611
18308W        W35832   2.502   1.920   0.827  0.0622 -0.0843 -0.2048
18309W        W35833   2.007   6.850   4.440 -0.1482 -0.1309  0.1076
18310W        W35834   1.171   9.578   2.860 -0.0083 -0.2552 -0.1138
18311W        W35835   1.853  16.120  15.010 -0.0181  0.1179  0.1251
18312W        W35836   1.943  15.630   1.392 -0.2236  0.2097 -0.3033
18313W        W35837  13.527   7.554  12.024  0.0984 -0.0878  0.0500
18314W        W35838  11.421  15.826   0.338  0.0740  0.0532 -0.0736
18315W        W35839   1.400  15.514  12.504 -0.1460  0.1286  0.3523
18316W        W35840   4.628  11.607  16.102  0.2080  0.0457  0.3186
18317W        W35841   4.447   7.853   2.237  0.0748 -0.0375  0.0281
18318W        W35842   9.704   0.546  12.038 -0.1244  0.0255 -0.0304
18319W        W35843   5.545   5.657   1.677  0.1714  0.2608 -0.0893
18320W        W35844   7.421   4.877   1.224  0.2176 -0.0964 -0.1637
18321W        W35845  11.832  10.963   3.371 -0.0456 -0.1376 -0.0706
18322W        W35846  13.939  12.725  12.326 -0.0744  0.0455  0.3053
18323W        W35847  13.712   0.012   5.020  0.0820  0.0591  0.0661
18324W        W35848  13.490   4.408   2.860 -0.0033 -0.1454 -0.0678
18325W        W35849   9.174  17.864   1.225 -0.2050 -0.0436 -0.2543
18326W        W35850   0.714  10.792  14.479  0.1739  0.2690  0.2030
18327W        W35851   4.797   8.858  11.549  0.0455  0.1009 -0.0446
18328W        W35852  13.853   7.319   4.535  0.0597  0.0614  0.1383
18329W        W35853   4.420  12.792   1.476  0.2627  0.0920  0.1917
18330W        W35854   6.961   4.722  12.085  0.1639 -0.3756  0.0168
18331W        W35855   7.630   4.476   0.158  0.1701 -0.1536  0.0190
18332W        W35856   9.840  15.796   1.693 -0.0421  0.1686  0.3169
18333W        W35857   6.386   3.343   4.820 -0.0060  0.2416 -0.1582
18334W        W35858   6.700   4.320  13.947 -0.1045  0.3122  0.2329
18335W        W35859   5.958  11.500  14.438  0.3874  0.1340 -0.1043
18336W        W35860  11.178   5.764  14.334  0.0313  0.0114 -0.0853
18337W        W35861  11.588   8.236   1.375 -0.0509  0.3376  0.1929
18338W        W35862  11.538  15.504   3.079 -0.1585 -0.5003  0.0444
18339W        W35863   9.377  17.851  14.501 -0.0598 -0.0031  0.0712
18340W        W35864   9.380   6.149   1.724  0.0346 -0.1833 -0.1770
18341W        W35865  14.602  16.770   3.848 -0.0492 -0.2250  0.0379
18342W        W35866  10.472   8.431  15.438 -0.0865  0.3692  0.2286
18343W        W35867  16.763  12.469   4.563 -0.2688 -0.2452  0.0509
18344W        W35868  15.974  17.278   2.779 -0.2755  0.2581  0.0974
18345W        W35869   2.180   6.442   3.531 -0.2085 -0.0242  0.1755
18346W        W35870  15.129   9.904  13.319  0.0431 -0.0723 -0.2310
18347W        W35871  14.275   2.787  11.562 -0.1572 -0.2291  0.2101
18348W        W35872  10.961   8.682  14.108  0.2019  0.1834 -0.0249
18349W        W35873   1.399   1.856  11.863  0.1530  0.0487 -0.0357
18350W        W35874   4.471   5.955  13.074 -0.0825  0.1367 -0.0147
18351W        W35875  15.076  12.294   1.227 -0.0753 -0.0455  0.1645
18352W        W35876   3.298  16.607  14.363  0.0328 -0.1351 -0.0919
18353W        W35877  12.125   9.322  16.042 -0.1185 -0.0965 -0.0192
18354W        W35878  12.476   0.154   2.421  0.2279  0.1519 -0.0836
18355W        W35879  10.866   9.830   0.218 -0.0744  0.1180  0.1047
18356W        W35880  16.411   6.750   1.720  0.0953  0.0987 -0.2633
18357W        W35881  12.668   3.882  10.489  0.1583 -0.0402 -0.2987
18358W        W35882  14.266  17.081   0.564 -0.0693  0.0128  0.1231
18359W        W35883   7.326  13.436   1.793 -0.0018  0.1369 -0.1710
18360W        W35884   7.652  10.807  10.554 -0.2410  0.0936  0.2652
18361W        W35885   8.107   9.255   1.174 -0.0148 -0.0871 -0.2751
18362W        W35886  13.475  10.039   4.469 -0.1884  0.2359 -0.2902
18363W        W35887   2.334   8.291   3.254 -0.1936  0.2555 -0.0709
18364W        W35888   1.552   6.091   4.610 -0.0820 -0.0362  0.0678
18365W        W35889   1.792   7.409   3.195 -0.0048 -0.0632  0.0149
18366W        W35890  11.667  10.457   3.274  0.1078  0.0110 -0.0445
18367W        W35891   5.320   5.827   4.096 -0.0603 -0.1240  0.2607
18368W        W35892  17.547   9.273  15.610  0.2843  0.1841  0.0314
18369W        W35893  13.898  15.461   5.093 -0.2574 -0.1888 -0.3171
18370W        W35894   3.355  14.198  11.926  0.2756 -0.0949  0.1489
18371W        W35895   2.930  16.646   1.571 -0.1933 -0.3360 -0.2268
18372W        W35896   4.103   8.816  14.470  0.1195 -0.0581 -0.0869
18373W        W35897  14.634   4.372   3.689 -0.3522  0.0141  0.1734
18374W        W35898   5.700   0.603   3.108  0.2999 -0.1559 -0.2296
18375W        W35899  14.090   7.547  15.090 -0.2808 -0.0928  0.1179
18376W        W35900   2.758   4.157  14.678 -0.0245  0.1972  0.0941
18377W        W35901  17.535  13.622  11.303  0.1131 -0.2188  0.2122
18378W        W35902   1.903  12.960   0.413 -0.0946  0.0678  0.3382
18379W        W35903   2.095  14.804   4.983  0.0859  0.3240  0.1397
18380W        W35904   6.629  16.475  14.432 -0.2013 -0.0682 -0.1614
18381W        W35905   7.097  10.273   1.751 -0.3629 -0.2535  0.2466
18382W        W35906   2.281   6.075  14.867 -0.0730  0.1401 -0.0813
18383W        W35907   9.970  12.833  12.089  0.3060 -0.3463 -0.1318
18384W        W35908   2.555   3.767  13.669 -0.2241  0.1769 -0.0623
18385W        W35909   0.679   6.594  14.774 -0.1673 -0.3864  0.3228
18386W        W35910   6.035  12.785   0.521  0.1842  0.0960  0.2871
18387W        W35911  12.599   1.792   5.652 -0.0101 -0.1039 -0.0661
18388W        W35912   7.093  16.674   0.133 -0.3381 -0.3235  0.0675
18389W        W35913   3.207  12.146  13.404 -0.0052 -0.2314 -0.2636
18390W        W35914   2.724   9.237   3.508 -0.0219  0.1011  0.2909
18391W        W35915   4.599  15.432   2.393 -0.0463 -0.0725 -0.0778
18392W        W35916   8.318   3.007   1.008  0.1425  0.4217 -0.0171
18393W        W35917   8.248   6.903  16.223  0.3031  0.0115  0.0198
18394W        W35918   2.443   7.068   4.310  0.0577  0.0238 -0.0957
18395W        W35919  10.314   0.476   0.627  0.0382 -0.1116  0.1201
18396W        W35920  17.583   7.934  13.997  0.2312 -0.1256 -0.1082
18397W        W35921  13.977   5.607  12.839 -0.1663 -0.0661 -0.3079
18398W        W35922   3.264   1.538   2.700 -0.0341  0.0773  0.2864
18399W        W35923   8.789  13.790   1.276  0.0528 -0.0202  0.3886
18400W        W35924   3.412   5.887   0.398  0.1452  0.0107  0.1515
18401W        W35925  17.958   9.309  13.595 -0.3499  0.6248  0.1459
18402W        W35926   0.503   0.818  15.160  0.0547 -0.1307 -0.1318
18403W        W35927  13.340   9.497   3.794 -0.0324 -0.3208  0.0951
18404W        W35928   1.416   6.741   1.799  0.0766  0.1172 -0.0014
18405W        W35929  14.789  10.308   0.390  0.1888 -0.0989  0.0315
18406W        W35930  11.962   7.742  14.498  0.1733  0.2426 -0.1911
18407W        W35931  11.320  12.057  12.579  0.2430  0.1495  0.1080
18408W        W35932   5.848   1.780   4.347  0.0702 -0.0905 -0.2140
18409W        W35933  14.826  13.632  14.983 -0.0362  0.0494  0.2651
18410W        W35934   8.137  13.556   4.969  0.0300 -0.2170 -0.0587
18411W        W35935  15.871  16.556   3.167 -0.2105 -0.0548  0.0996
18412W        W35936   0.744  12.804   4.733 -0.0249  0.1568  0.2643
18413W        W35937   1.963  17.639  14.234  0.1319 -0.1243  0.0865
18414W        W35938  13.076   6.385   5.544  0.0830  0.0112  0.0092
18415W        W35939   7.831   0.026  12.660 -0.3306  0.2479  0.0072
18416W        W35940  17.846  17.811   1.691 -0.0095 -0.0625  0.0867
18417W        W35941   1.054   2.805  14.853  0.1273 -0.0461 -0.0595
18418W        W35942   4.403   5.411   4.242 -0.0223 -0.0582 -0.0717
18419W        W35943  15.428  17.760   3.921 -0.1710 -0.0595 -0.2154
18420W        W35944  17.323  11.546   0.992 -0.1566 -0.0919 -0.1721
18421W        W35945  11.930  15.030  13.262 -0.1220  0.2122 -0.0354
18422W        W35946   9.625   4.600   3.403 -0.1139 -0.0051 -0.0537
18423W        W35947   5.905   5.524  14.552 -0.1790 -0.2682 -0.1391
18424W        W35948   2.554   0.863   2.552  0.2634 -0.0959 -0.1847
18425W        W35949  16.785  12.559  12.343  0.1089 -0.0695 -0.0241
18426W        W35950   6.478  15.140  14.023 -0.1200  0.0501  0.0637
18427W        W35951   6.263   8.708   4.423 -0.2011 -0.3276  0.2657
18428W        W35952   6.744   1.738  14.632 -0.0562 -0.3965  0.1663
18429W        W35953   9.275  13.728   1.064  0.0044 -0.0601  0.1196
18430W        W35954  10.746   2.067  11.780 -0.3285 -0.2008  0.0017
18431W        W35955  13.882  16.598   5.804  0.2900 -0.0286 -0.0379
18432W        W35956   1.418  11.553   0.633 -0.0281  0.2045  0.0731
18433W        W35957  16.118   0.334  14.469 -0.0713 -0.0069  0.0575
18434W        W35958   5.543   7.661  15.661  0.0625 -0.1961  0.2337
18435W        W35959  14.467  10.978   0.180  0.0834 -0.2074  0.2135
18436W        W35960   1.342  14.998  15.467  0.0953 -0.1306 -0.0819
18437W        W35961  10.735   1.595  14.184  0.0302  0.1935  0.0721
18438W        W35962  13.387   4.936  15.928  0.3188 -0.0709  0.5264
18439W        W35963   1.321  13.326  14.505 -0.0109 -0.1271 -0.1108
18440W        W35964  10.890  10.513  11.978  0.1888  0.0266 -0.4111
18441W        W35965   0.651  14.138   3.360 -0.1804 -0.2431 -0.3289
18442W        W35966  13.378   0.724   2.035  0.2496  0.2808 -0.1153
18443W        W35967   4.505  12.355   3.600  0.1610  0.2800  0.1367
18444W        W35968   7.878   3.741   4.058 -0.2489 -0.1139  0.1053
18445W        W35969   6.016  12.024  13.388  0.2091 -0.1199  0.0734
18446W        W35970  10.469  10.544   0.528 -0.0329  0.0445  0.1093
18447W        W35971   5.575  11.782  15.307  0.0824  0.1109  0.0366
18448W        W35972  13.717   4.506   2.094 -0.0542 -0.1251  0.0212
18449W        W35973  12.038   8.399   4.076  0.2127  0.0946  0.0256
18450W        W35974  11.807  12.760   1.608 -0.1105 -0.0214  0.2814
18451W        W35975   5.522  14.842   4.669  0.0007  0.2521 -0.0414
18452W        W35976  16.299   8.721   0.222 -0.0224 -0.0155 -0.0026
18453W        W35977   9.604   2.343  12.274 -0.2880 -0.2301  0.1445
18454W        W35978   2.358  16.457  13.063 -0.2675  0.3259  0.0145
18455W        W35979  10.557  13.501   4.356  0.0693  0.2208  0.1547
18456W        W35980   4.775  17.786   4.554 -0.0722 -0.0644  0.1553
18457W        W35981  13.024   4.449   0.425  0.1834 -0.1688 -0.0414
18458W        W35982  16.620  12.461   1.509  0.1146 -0.1043  0.2128
18459W        W35983   3.287   3.015   4.107 -0.1408  0.0544 -0.3528
18460W        W35984   7.330  13.334  16.091  0.0332  0.0841  0.1313
18461W        W35985   1.280   2.414   4.548  0.0877 -0.2320 -0.1404
18462W        W35986   5.614  13.643  12.127  0.0051  0.3399 -0.0087
18463W        W35987   1.526  17.012   5.153  0.0609 -0.1059  0.3354
18464W        W35988   5.588  11.899   3.490 -0.1580  0.1331 -0.0310
18465W        W35989  14.172  17.097   0.086  0.0403 -0.1380  0.0886
18466W        W35990  10.976  12.792   0.017 -0.2588  0.2123  0.1388
18467W        W35991   2.950   5.176  12.486 -0.1172  0.0195 -0.1992
18468W        W35992   0.126  17.918  14.688 -0.0682  0.1722 -0.0187
18469W        W35993   7.368   0.015  12.830 -0.0214 -0.1212  0.2532
18470W        W35994   5.571   8.986  15.287  0.0150  0.1302 -0.1142
18471W        W35995  16.486   3.354   2.352 -0.1470 -0.2054  0.1516
18472W        W35996   3.093   6.920   2.705  0.0268  0.2457 -0.1267
18473W        W35997  16.116   5.691  12.098  0.2549 -0.4108 -0.2271
18474W        W35998   7.285   8.238   1.966  0.2875 -0.2396  0.0543
18475W        W35999   0.965  10.437  16.191  0.1649 -0.0107  0.3301
18476W        W36000  10.835  12.124   3.636  0.0895  0.2658 -0.1300
18477W        W36001   5.616   7.843  14.441 -0.1878  0.0385  0.1105
18478W        W36002  13.042   4.963   0.625  0.1443  0.0248 -0.0382
18479W        W36003   7.798  15.281   4.160  0.0112 -0.2008  0.0410
18480W        W36004   0.161  11.428   0.784  0.0185  0.1796 -0.0489
18481W        W36005  11.037   7.959  14.894 -0.1241 -0.0686 -0.1970
18482W        W36006   7.781   2.115  11.765 -0.0766  0.2704  0.1519
18483W        W36007  15.497   6.028  11.247 -0.1106 -0.1604 -0.1355
18484W        W36008   0.803  14.290  15.113  0.2289 -0.0903  0.1150
18485W        W36009   7.630  11.989   3.804  0.1765  0.0034  0.1585
18486W        W36010  13.319   4.238   1.276  0.2029 -0.0012 -0.0515
18487W        W36011   7.348   4.737  14.922 -0.0249  0.3033  0.2170
18488W        W36012   8.254   9.828  15.216  0.0710 -0.0493  0.1130
18489W        W36013   6.784   7.664   0.752 -0.0339 -0.0363 -0.3435
18490W        W36014   6.450   2.103  12.953 -0.1174 -0.0427 -0.1370
18491W        W36015  14.153  11.414  12.992 -0.1735  0.3584 -0.0116
18492W        W36016   7.957  14.757   4.158  0.0713 -0.0074 -0.2474
18493W        W36017   8.552  10.483   0.747  0.2196  0.1082  0.3068
18494W        W36018  11.676   6.115  11.628 -0.0146  0.3638 -0.2406
18495W        W36019   9.222  14.066  14.154  0.3237 -0.1099  0.0460
18496W        W36020  16.851   3.976   4.935  0.0135  0.1408 -0.0740
18497W        W36021   2.807   0.047   2.443  0.1620  0.0689 -0.0595
18498W        W36022   1.838   2.966   5.253  0.2750  0.2082  0.1621
18499W        W36023  17.678   3.695  13.480  0.2171 -0.1398 -0.1726
18500W        W36024   7.538  14.645  10.274 -0.3353  0.0642 -0.0987
18501W        W36025   3.774   3.360  13.723 -0.3568 -0.0657 -0.2630
18502W        W36026   4.629   5.454  13.254 -0.1020  0.3614 -0.2127
18503W        W36027  15.310  11.051  13.086  0.0758  0.0593 -0.0286
18504W        W36028   0.312   1.760   2.233  0.1567 -0.1326  0.0401
18505W        W36029  17.737   2.314  11.648  0.3690  0.1758 -0.1760
18506W        W36030  12.942  13.944  13.263  0.0194  0.0785  0.0458
18507W        W36031   6.271   1.598  11.218  0.0282  0.1415  0.2304
18508W        W36032   4.611  17.804   5.009 -0.5879  0.1607  0.0051
18509W        W36033  13.825   6.528  12.287  0.0562 -0.0604  0.0259
18510W        W36034  12.471   4.723  10.432 -0.1930  0.2577  0.2089
18511W        W36035   6.437   9.906  14.819 -0.0249  0.0675 -0.4698
18512W        W36036  10.506  15.494   1.789  0.0294  0.1933  0.1191
18513W        W36037   8.473   7.773   0.318  0.1238  0.0087  0.1599
18514W        W36038   0.483  11.005   4.700  0.3409 -0.2256 -0.0387
18515W        W36039   0.224  10.318   5.212 -0.2428  0.1981  0.0051
18516W        W36040  14.742   1.692  16.091 -0.0057  0.1482 -0.1705
18517W        W36041   0.083   6.065   3.732 -0.0052  0.2158  0.1552
18518W        W36042  16.245  13.947  14.149  0.0949 -0.4164  0.2217
18519W        W36043  15.473  12.743  12.470  0.1165 -0.3512  0.0872
18520W        W36044  17.114   4.435   1.782  0.1861  0.0287  0.2913
18521W        W36045   3.030   8.127  15.232  0.0326 -0.2806 -0.0977
18522W        W36046   6.031  17.666   5.871  0.0280 -0.2550  0.3161
18523W        W36047  13.372   7.549  11.483 -0.2639  0.1969 -0.1041
18524W        W36048   9.615   2.758  12.601  0.1438  0.0546  0.0220
18525W        W36049  13.652  16.315  15.956 -0.2064 -0.0632  0.0815
18526W        W36050  10.593   3.101  15.943  0.0263  0.0156  0.2987
18527W        W36051  17.262   7.161  12.963  0.1143 -0.2949  0.2565
18528W        W36052   8.885   5.731   2.934 -0.0171  0.0768 -0.4592
18529W        W36053   6.199  16.968   3.979  0.1668  0.1367 -0.0748
18530W        W36054   4.266  17.536   5.221  0.0178  0.0972 -0.1279
18531W        W36055  15.746  17.309  11.943 -0.1112  0.2269 -0.1652
18532W        W36056  10.635   5.359   0.536 -0.1428 -0.0269 -0.0137
18533W        W36057  13.368   3.717  15.539 -0.0644 -0.5501  0.0977
18534W        W36058   4.415  14.332  12.476  0.0202 -0.1156 -0.2897
18535W        W36059   5.530   6.783  12.236  0.0699  0.0876  0.1381
18536W        W36060   8.834   8.244   5.158 -0.0670  0.0212  0.0508
18537W        W36061  16.252  16.692  15.729 -0.1415 -0.0387 -0.3347
18538W        W36062  11.608   7.110  13.003  0.2343  0.2298 -0.0209
18539W        W36063  10.249  12.963  11.645 -0.1159 -0.0070  0.1128
18540W        W36064   9.186   9.555   5.134  0.0619  0.0951 -0.1379
18541W        W36065  12.991  17.154   1.190 -0.0811 -0.1309  0.0006
18542W        W36066   1.724  11.490   4.683  0.2526  0.3372  0.0661
18543W        W36067   9.307  16.510   1.374 -0.1242 -0.1196 -0.1275
18544W        W36068  14.891   1.246  13.153 -0.0742 -0.1287  0.2355
18545W        W36069  15.122   3.165  12.010  0.0934  0.0416  0.4531
18546W        W36070   7.971   0.102   1.347  0.1219 -0.1612  0.0231
18547W        W36071  16.855  12.885   1.213  0.1199 -0.4561  0.1916
18548W        W36072  16.776   1.767  13.679  0.0282  0.2025  0.1547
18549W        W36073  13.893   5.201   3.355 -0.0587  0.3367  0.0570
18550W        W36074  17.723   8.976  15.273 -0.1880  0.0532 -0.2223
18551W        W36075  17.007  15.440  14.373 -0.0845 -0.3591  0.0608
18552W        W36076  11.058   9.544   1.811 -0.0130 -0.0695 -0.2591
18553W        W36077  10.820   1.477   1.532 -0.0893  0.0869 -0.1465
18554W        W36078   9.622   4.560   0.259 -0.1182 -0.2085 -0.1643
18555W        W36079  14.979   9.348   3.364  0.0585  0.1508  0.1143
18556W        W36080  12.551   5.334  13.418  0.0658  0.4258 -0.2252
18557W        W36081   6.977   1.424   0.321 -0.0054  0.0873  0.0004
18558W        W36082  17.917   2.558   1.670  0.2648 -0.2873  0.2122
18559W        W36083  11.472   6.553   4.780 -0.0439  0.0036  0.1521
18560W        W36084   0.714  10.956  15.429 -0.0314 -0.1491 -0.0294
18561W        W36085  15.884   5.433  15.505  0.0879  0.1408 -0.0664
18562W        W36086   5.063  15.657  15.775 -0.0854  0.0896 -0.0790
18563W        W36087   8.584  11.445   2.996 -0.1204 -0.2450 -0.0968
18564W        W36088  15.856   7.960  14.628  0.2457 -0.1047  0.1188
18565W        W36089   4.369   8.841   2.190  0.2185  0.2895  0.0740
18566W        W36090  13.057   1.048  11.148 -0.1442  0.0444  0.0348
18567W        W36091   7.238   5.209  14.669 -0.2655 -0.2493 -0.1331
18568W        W36092   4.814  17.362  14.990 -0.1171 -0.0344  0.0713
18569W        W36093   6.686   8.466  13.097  0.2754 -0.0231 -0.0849
18570W        W36094   6.007   2.628   4.399 -0.0548  0.0232  0.0452
18571W        W36095  13.056   4.432  14.370  0.0472  0.0479  0.2079
18572W        W36096   9.593   6.692   2.293  0.0932 -0.3540  0.1025
18573W        W36097   5.072  16.657  15.318  0.2188 -0.3057 -0.0575
18574W        W36098  10.976   8.643   2.892  0.2173  0.2304 -0.0197
18575W        W36099   7.256  13.690  13.217  0.1983 -0.1657  0.2348
18576W        W36100  14.668   9.162  12.005 -0.1672  0.0260  0.1199
18577W        W36101   6.976  11.325   4.704  0.0081  0.2019  0.1312
18578W        W36102   3.641   1.649   2.403 -0.2899  0.0854  0.1661
18579W        W36103   3.861   6.339   4.558 -0.0730 -0.1222  0.2252
18580W        W36104  10.507   8.328   3.749  0.1198 -0.2087 -0.1407
18581W        W36105  16.717   8.131   4.334  0.0708  0.0034  0.0220
18582W        W36106   2.398   4.611   1.997  0.0644  0.2024  0.0302
18583W        W36107  16.159   6.118   5.157 -0.0269 -0.2124 -0.0624
18584W        W36108  16.135   6.012  15.606  0.0964  0.1228 -0.1188
18585W        W36109   3.660  15.564  16.188 -0.2197  0.0343  0.0662
18586W        W36110  15.624   6.976  13.450  0.2966  0.2373  0.2307
18587W        W36111  16.071   7.712  13.922 -0.0972  0.2247 -0.2162
18588W        W36112  11.485   1.793  12.250 -0.0837  0.0761  0.3646
18589W        W36113  17.024  17.215  14.685  0.1427  0.0148 -0.1323
18590W        W36114   5.730  15.789  14.583 -0.1111 -0.0952 -0.1436
18591W        W36115   2.608   9.370  15.458 -0.1176 -0.0579 -0.1656
18592W        W36116  17.543   8.651  13.264  0.1341 -0.1042  0.0813
18593W        W36117  11.962   6.927   0.195  0.3917 -0.0077 -0.0260
18594W        W36118   5.308   5.744  12.435 -0.0594 -0.1898  0.0027
18595W        W36119  11.149  17.713   0.005  0.1436 -0.1848 -0.0197
18596W        W36120   3.130   7.316  12.289 -0.1558 -0.1892  0.0637
18597W        W36121  15.473   4.726   4.272  0.1400  0.1120  0.3503
18598W        W36122  11.070   8.583   1.429  0.4229  0.0620  0.1952
18599W        W36123   5.119  13.976   4.694 -0.3460  0.0576  0.0907
18600W        W36124   3.071   3.854  13.360  0.1828 -0.0500  0.0139
18601W        W36125   3.786   8.326   5.010 -0.1159 -0.2191 -0.2421
18602W        W36126   2.951   4.518  14.267 -0.0617 -0.1738  0.0807
18603W        W36127   8.757  16.906   2.205 -0.0760 -0.1356 -0.0848
18604W        W36128   9.276  15.130  12.877  0.0771 -0.0880 -0.0980
18605W        W36129  13.180  13.988   4.711 -0.1959  0.3126 -0.1308
18606W        W36130   1.058  16.076   1.067  0.0937  0.2735 -0.0754
18607W        W36131   4.596   9.954   4.525 -0.2819  0.0560 -0.0796
18608W        W36132   7.392  14.015  10.756 -0.1576  0.1123  0.0234
18609W        W36133  13.581   6.100   5.310 -0.2519 -0.1221 -0.2096
18610W        W36134  17.602   1.089  14.310 -0.0972  0.3221  0.2118
18611W        W36135  14.348   1.766  13.777  0.0150 -0.0334 -0.0705
18612W        W36136   2.656  16.563  15.018  0.1093 -0.1153 -0.1175
18613W        W36137   7.326  15.299  13.310  0.1798  0.0836 -0.1104
18614W        W36138   7.747  10.581   3.415 -0.1653  0.0891 -0.2381
18615W        W36139  16.114   1.540  13.290 -0.1566  0.2533  0.0708
18616W        W36140   7.374   4.246   2.496  0.2263 -0.0083  0.0525
18617W        W36141   5.744  16.520   0.862 -0.5265  0.1498  0.0288
18618W        W36142   5.126  17.125  13.879 -0.0691 -0.1930 -0.0939
18619W        W36143   0.321   9.547  11.075 -0.0198 -0.1642 -0.3672
18620W        W36144  13.724   0.830   2.449  0.0218  0.1151 -0.1154
18621W        W36145   5.997  12.477   5.242 -0.0951 -0.2378 -0.1467
18622W        W36146  12.285   0.545  14.700  0.2566 -0.0968 -0.1038
18623W        W36147  16.810   8.113  14.098 -0.2610 -0.0779  0.0500
18624W        W36148   5.385   2.890  15.773  0.3427 -0.0987 -0.1778
18625W        W36149   7.362  17.026  12.638 -0.0979 -0.0489 -0.0457
18626W        W36150  12.477  13.933   2.305 -0.0863 -0.0365  0.2225
18627W        W36151   4.560   4.442   3.327 -0.2857  0.0155 -0.0050
18628W        W36152   4.874   1.701  14.774  0.1308 -0.2303  0.1911
18629W        W36153   1.126   0.706   2.529  0.0056  0.0339 -0.1530
18630W        W36154   3.334   3.920   0.906 -0.0415  0.0149  0.1563
18631W        W36155  16.356  12.304  12.834 -0.2096  0.3155  0.3165
18632W        W36156  14.636   9.853   0.135  0.1485 -0.3810 -0.1462
18633W        W36157   2.150  11.182  13.570  0.1231  0.3103  0.0848
18634W        W36158   2.449  17.475  14.297 -0.1003  0.1366 -0.0065
18635W        W36159   8.840  14.936  15.310 -0.2358 -0.2004 -0.1081
18636W        W36160   5.983   5.052  10.931 -0.0601  0.3246  0.0360
18637W        W36161  14.657  10.825  13.370 -0.1238  0.0427  0.1503
18638W        W36162   8.819  16.959   4.360 -0.0619  0.0529  0.1883
18639W        W36163   1.584   1.519   1.039 -0.2285  0.0032 -0.3613
18640W        W36164   3.986   8.277  12.676 -0.0710 -0.1928  0.3321
18641W        W36165  13.118  12.100   0.840  0.0694 -0.1323 -0.1775
18642W        W36166  13.061   3.803  13.493  0.1657 -0.1663  0.0214
18643W        W36167  16.641   5.047   3.995  0.1906  0.1112 -0.2757
18644W        W36168   4.203  10.253   2.350  0.0324  0.0383 -0.1334
18645W        W36169   4.846  14.124  15.046  0.1160 -0.2757 -0.1010
18646W        W36170   7.308   4.769  15.763 -0.1117  0.4787  0.0794
18647W        W36171  15.591  12.478   1.235 -0.0329 -0.0094 -0.1246
18648W        W36172  15.076  13.344  15.352 -0.1902 -0.1049  0.0431
18649W        W36173   5.677   5.906  12.634 -0.3192 -0.2895 -0.4697
18650W        W36174   1.829   5.781  12.414  0.0185  0.0037 -0.3752
18651W        W36175   7.839   0.833  12.265 -0.2471 -0.2449 -0.0648
18652W        W36176   9.141   1.624   2.268  0.1322  0.1018 -0.0559
18653W        W36177   4.028  17.671   1.957 -0.2033  0.0421 -0.1225
18654W        W36178  11.896   6.237   1.824  0.2148 -0.0776 -0.0179
18655W        W36179   8.395  11.615   1.667  0.0831 -0.2824  0.0048
18656W        W36180  12.498  10.799  14.820  0.2027 -0.0403  0.1879
18657W        W36181  12.415   0.439  15.584  0.3004  0.1353 -0.3345
18658W        W36182   9.817   3.039   5.747  0.0363  0.0247 -0.0086
18659W        W36183   1.656   6.236   5.532 -0.1948 -0.1180  0.2760
18660W        W36184   3.851   0.728  15.505  0.1375 -0.0150 -0.0698
18661W        W36185  12.496   8.814   0.527  0.1519  0.3787  0.0450
18662W        W36186   8.876  13.405   4.086 -0.2365 -0.2613  0.1217
18663W        W36187   8.748  14.991   5.258  0.0835 -0.2700  0.0325
18664W        W36188   7.452   0.275  11.436  0.1527  0.1211 -0.0827
18665W        W36189   1.165  12.485   1.225 -0.0320 -0.1111 -0.0966
18666W        W36190  11.691   3.828   0.128  0.0727 -0.3484  0.1464
18667W        W36191   2.886  17.149   2.501 -0.0632 -0.3119 -0.0922
18668W        W36192  11.163  11.671   3.038  0.3277 -0.2081  0.2558
18669W        W36193   9.676   9.131  10.930 -0.0547  0.0172  0.2233
18670W        W36194   4.907   7.150   4.229  0.0689 -0.1273 -0.1221
18671W        W36195   8.343   2.958   3.895  0.2412 -0.2491 -0.0069
18672W        W36196  17.849   4.691  13.776 -0.0259 -0.0319  0.0223
18673W        W36197   8.352   0.021   0.450 -0.2235  0.0083 -0.0298
18674W        W36198   8.602   1.136   1.169 -0.0333 -0.1053  0.0441
18675W        W36199   0.067  12.920  12.657 -0.1869 -0.1007  0.2315
18676W        W36200   8.155  14.933   0.644  0.0940  0.1126  0.1008
18677W        W36201  10.062   8.773  15.295 -0.0799 -0.2551 -0.0158
18678W        W36202   5.168   4.617   1.689  0.1774  0.0098 -0.0115
18679W        W36203  17.294  11.616   5.370 -0.0703  0.0668 -0.0380
18680W        W36204   3.823  17.182   1.725  0.3965 -0.2185  0.0909
18681W        W36205   1.407   0.027  12.583  0.0520  0.2514 -0.0698
18682W        W36206   9.706   8.237   2.784 -0.0013  0.0143 -0.1609
18683W        W36207   7.750   1.957   0.408 -0.0332  0.1976 -0.1246
18684W        W36208   8.949   6.486   4.613 -0.0686 -0.0344 -0.1290
18685W        W36209   4.995  10.409   2.784 -0.0053 -0.0775 -0.1227
18686W        W36210   0.079   3.854   0.394 -0.0573 -0.2129 -0.2767
18687W        W36211   1.787  11.672   0.336  0.2023  0.2552  0.0764
18688W        W36212   0.624   7.484  15.608  0.0410 -0.2473  0.2569
18689W        W36213  12.330   0.207   0.847 -0.0793 -0.2803  0.2193
18690W        W36214  10.906   4.232  13.708 -0.1064  0.2632  0.4746
18691W        W36215   5.277   8.224  14.170  0.1039  0.0704  0.1208
18692W        W36216   6.201   4.519   4.316 -0.0021 -0.0078 -0.0417
18693W        W36217  11.395   7.360   1.199  0.0066  0.0002 -0.0222
18694W        W36218  15.856  13.677   2.704  0.2344 -0.0588  0.2197
18695W        W36219  14.921   9.519   3.818 -0.2059  0.2426 -0.1640
18696W        W36220  11.207   3.396  11.913 -0.1778  0.0813  0.1580
18697W        W36221   9.284  16.713  14.573  0.0355  0.0865 -0.0281
18698W        W36222  14.604   1.669  11.865 -0.1724  0.3447 -0.1591
18699W        W36223   6.056   9.221   0.284 -0.0202 -0.1349 -0.0335
18700W        W36224   5.958  14.279  13.609 -0.0212  0.1467  0.2465
18701W        W36225   4.103  17.915  12.344  0.1340  0.0289 -0.1199
18702W        W36226  17.309   2.694   4.346 -0.0563  0.1435  0.0593
18703W        W36227   5.879   0.638  11.338 -0.1844 -0.1659 -0.2172
18704W        W36228   7.316  15.588   0.125  0.0138 -0.0801 -0.0505
18705W        W36229   2.937   9.337  13.329  0.1885  0.2372  0.1821
18706W        W36230   6.027   3.511  11.653 -0.4755 -0.2621 -0.1473
18707W        W36231  11.518   8.956  12.829 -0.0376 -0.1407 -0.1986
18708W        W36232   5.291   6.052   0.902 -0.3487  0.0906 -0.2125
18709W        W36233  13.497   6.056   2.363  0.0713 -0.0473  0.1994
18710W        W36234   0.453   5.948   4.409 -0.3304 -0.0913 -0.1913
18711W        W36235   0.536   1.014  11.242  0.0834 -0.2626 -0.1505
18712W        W36236  10.591   8.862   0.610 -0.0076 -0.1669  0.0660
18713W        W36237  10.883   2.496   1.707  0.0637 -0.0877  0.1031
18714W        W36238  14.311   3.679   1.224 -0.0522  0.1397 -0.1453
18715W        W36239  13.300   3.466  12.156 -0.2967 -0.1380 -0.0545
18716W        W36240   1.765  11.838  13.060 -0.0601  0.0023  0.0874
18717W        W36241  16.071   0.003  10.679  0.0382  0.1030 -0.1025
18718W        W36242   3.058   9.246  10.548 -0.5341  0.1079  0.1995
18719W        W36243   1.992   3.331   0.496 -0.2505  0.2677 -0.3907
18720W        W36244  15.008  12.784   4.170  0.1050 -0.2821 -0.0368
18721W        W36245  12.675  16.972   2.744 -0.1623  0.1793  0.1641
18722W        W36246   9.457   3.112   0.148  0.0658 -0.2451 -0.1429
18723W        W36247   5.781  11.033   3.969 -0.0629  0.0021  0.1108
18724W        W36248  17.147   0.142  13.191 -0.0201  0.1116 -0.1000
18725W        W36249   7.074  12.077  11.375  0.1682  0.0333 -0.0776
18726W        W36250   5.199   1.505   0.616  0.4105  0.1126  0.2222
18727W        W36251   5.235   2.389  14.009 -0.0249  0.2676  0.0998
18728W        W36252   0.375   0.817   2.217 -0.0045  0.1850 -0.0258
18729W        W36253   0.278   3.389  12.862  0.5529 -0.2064  0.1704
18730W        W36254   0.150   1.108  16.075 -0.1325  0.0259  0.1981
18731W        W36255   5.662   1.394  15.419  0.4019  0.1145  0.1922
18732W        W36256   0.539   6.743   4.482 -0.0466 -0.0805  0.2741
18733W        W36257   5.538  12.862  15.830  0.1257  0.0776  0.0793
18734W        W36258  15.092  16.719   3.991 -0.0186  0.5163  0.1840
18735W        W36259   8.493   7.713  14.722  0.2957  0.2203 -0.3432
18736W        W36260   7.703  12.613  15.332  0.1117  0.1277  0.0395
18737W        W36261   6.516  14.984  15.563  0.0159 -0.0905 -0.0969
18738W        W36262  14.343   4.856  11.402  0.0548  0.1032 -0.1705
18739W        W36263   1.837   6.275   6.038 -0.2110  0.1264 -0.2506
18740W        W36264  12.506   2.793   1.561  0.0464 -0.1266  0.0011
18741W        W36265   7.531   2.631   2.685  0.1016 -0.0019  0.0826
18742W        W36266  16.798   2.614  15.849 -0.2739  0.3166 -0.0933
18743W        W36267   4.734  10.737  15.600 -0.0193  0.1750 -0.0592
18744W        W36268  17.707  10.403  12.649  0.2287 -0.1566  0.2589
18745W        W36269   0.143   4.623   4.676 -0.2439  0.1234  0.2032
18746W        W36270   3.135   9.517  13.758 -0.1805 -0.0083  0.1040
18747W        W36271   2.099   5.631  14.741  0.1165 -0.1972 -0.1593
18748W        W36272   7.683  11.199   1.974  0.1031  0.1952 -0.0692
18749W        W36273  16.252   1.862  14.270 -0.1407 -0.2355  0.0470
18750W        W36274  16.886   3.069   2.128  0.0922  0.1345  0.3087
18751W        W36275  14.467  15.317   3.096  0.0394  0.1891 -0.1650
18752W        W36276  16.006  10.162   0.299 -0.0341 -0.0076  0.1255
18753W        W36277   6.098   5.812   4.641  0.0251  0.1163 -0.0492
18754W        W36278  17.646  14.155  11.483  0.1421  0.1646 -0.0529
18755W        W36279   4.395   8.757   2.791 -0.0583 -0.0582 -0.1568
18756W        W36280   8.745   6.766   1.248 -0.1772 -0.0253  0.3387
18757W        W36281   5.688  12.661  11.622  0.1510 -0.2581 -0.1229
18758W        W36282   0.309  16.074  14.042 -0.0418 -0.0850  0.5656
18759W        W36283  10.778  15.776  14.273 -0.1305  0.0728 -0.1976
18760W        W36284  10.419  15.065   1.445  0.2109  0.2330  0.0381
18761W        W36285  13.150  14.007   4.122  0.0314  0.0776 -0.2121
18762W        W36286   9.032   9.672  15.490 -0.2845 -0.1757 -0.0008
18763W        W36287  13.320  10.562   3.061 -0.0061  0.4635  0.0644
18764W        W36288  11.103   9.454  14.638  0.2979 -0.4078  0.3725
18765W        W36289  15.082  14.475   1.895 -0.1765  0.0900  0.0023
18766W        W36290  17.253   0.975  13.427 -0.1439 -0.1028 -0.1100
18767W        W36291   5.987   6.268  11.716  0.1642 -0.0740 -0.1876
18768W        W36292   6.191  11.871  14.061 -0.1896  0.2224 -0.1830
18769W        W36293   3.966  15.037   2.480  0.2787 -0.0950  0.1714
18770W        W36294  10.272  14.005  11.290  0.0026  0.2341 -0.0949
18771W        W36295   3.009   4.734  13.476  0.0945 -0.1013  0.1355
18772W        W36296   2.620   7.541   0.789  0.2130  0.2913 -0.1847
18773W        W36297   7.342   9.931  10.541 -0.0033  0.0611 -0.2273
18774W        W36298  17.699   0.355  15.493  0.3472 -0.2027  0.0641
18775W        W36299  12.999   2.855  11.868  0.0159  0.1974 -0.1070
18776W        W36300  10.345   0.267  12.693  0.0879  0.1454  0.0676
18777W        W36301  11.463  14.381   1.431  0.1934 -0.2113 -0.2166
18778W        W36302   9.869  16.562  15.519 -0.0401 -0.0585  0.0548
18779W        W36303   5.403   7.464   1.953 -0.1103 -0.2022 -0.1881
18780W        W36304   0.263  10.146   0.400  0.0180 -0.1226  0.1459
18781W        W36305   8.074   9.470   4.336 -0.1281 -0.1900 -0.0508
18782W        W36306  11.670  13.892   3.005 -0.1551  0.0667 -0.0145
18783W        W36307  14.924   5.682  13.784 -0.0763 -0.1272  0.2976
18784W        W36308   8.197   5.366  10.575  0.0462  0.0099 -0.1114
18785W        W36309  10.043   1.216   4.772 -0.1222 -0.0673 -0.2729
18786W        W36310   2.350   7.956  13.667  0.1677  0.0756 -0.1436
18787W        W36311   7.357   2.558   5.817  0.2957 -0.1616 -0.2510
18788W        W36312   5.510   1.123  13.375 -0.4554  0.0674 -0.5483
18789W        W36313   8.243  12.802   2.855 -0.0260 -0.3045  0.0085
18790W        W36314  13.275  13.653   5.063  0.0791 -0.0351 -0.1174
18791W        W36315   5.160   2.505  15.995  0.1705 -0.2736  0.0174
18792W        W36316  14.593  12.523  11.595  0.1255 -0.0728  0.1322
18793W        W36317   8.214   2.145  12.409  0.2559  0.1173  0.1530
18794W        W36318  11.180   0.463  11.579  0.0181 -0.4409 -0.1123
18795W        W36319  14.007   6.034  11.465  0.1009 -0.1543  0.2283
18796W        W36320  11.329  12.505  15.506  0.1112 -0.2533 -0.0003
18797W        W36321   3.525   4.511   1.488  0.0451 -0.2974  0.0243
18798W        W36322  10.065  13.468   0.504  0.0459  0.3814  0.1883
18799W        W36323   1.617   3.979  15.337 -0.0027 -0.2791  0.3119
18800W        W36324  10.369  10.541  11.839 -0.0944  0.1651 -0.2261
18801W        W36325   4.311   4.845  12.027  0.2346  0.3138  0.0773
18802W        W36326  12.550  17.338  14.549 -0.0914  0.1125 -0.0026
18803W        W36327  14.133  17.125   1.785  0.1908 -0.1852  0.3025
18804W        W36328  12.362   3.744   4.201 -0.3071  0.0333  0.2635
18805W        W36329  10.953  12.278  12.868 -0.0998  0.1221 -0.0764
18806W        W36330  16.016   9.836   4.898 -0.1919 -0.1224  0.2052
18807W        W36331   8.033   0.452  14.522  0.1195  0.3260  0.0213
18808W        W36332  14.892  13.201  14.405  0.1052 -0.0735  0.1825
18809W        W36333   9.500   7.699   2.631  0.1116  0.0688 -0.0991
18810W        W36334   1.788   5.108   0.712 -0.0311  0.1694 -0.1392
18811W        W36335   4.576   9.978   0.508 -0.1283 -0.0505 -0.0356
18812W        W36336   8.702   8.530   1.951  0.1070  0.1249  0.3144
18813W        W36337  10.121   2.024  10.496 -0.1764 -0.0051 -0.0507
18814W        W36338  15.400   8.232  13.941  0.0285 -0.1472 -0.1036
18815W        W36339   8.395   6.745   1.588 -0.1847 -0.2798  0.0055
18816W        W36340  12.833   6.486   0.423  0.1246 -0.1769  0.1809
18817W        W36341  12.711  16.362  15.377  0.1556 -0.0865  0.0472
18818W        W36342  10.224  10.905   2.468  0.1362 -0.0695 -0.0060
18819W        W36343   5.161  14.627  13.807 -0.2640 -0.2062  0.0981
18820W        W36344  12.426   0.236  13.488 -0.0744 -0.0785  0.0566
18821W        W36345   4.772   9.202  15.207 -0.0875 -0.0241  0.3212
18822W        W36346   0.966  15.561   2.967  0.0900 -0.0184  0.1951
18823W        W36347   2.200  11.106   0.877  0.0565 -0.1868  0.0699
18824W        W36348  13.662   4.677  12.784  0.1025  0.0450 -0.0853
18825W        W36349  10.382   2.348  11.646  0.3474 -0.0886 -0.1418
18826W        W36350   4.075  16.129  15.431 -0.1050 -0.0207 -0.2775
18827W        W36351  13.792  14.073  12.637 -0.0750  0.1611  0.0431
18828W        W36352  15.440  16.087  13.607 -0.1357 -0.2519 -0.0148
18829W        W36353   6.374   7.704   2.208  0.2180  0.0292  0.2648
18830W        W36354  10.076   7.413  10.933  0.0621 -0.0674 -0.0804
18831W        W36355  16.277   3.285   0.749 -0.1147 -0.0376 -0.1256
18832W        W36356  17.240  17.621  11.913  0.1978 -0.2293 -0.0457
18833W        W36357  17.139   0.705   0.523 -0.0454 -0.2232  0.1476
18834W        W36358   0.111   3.980  12.703  0.2067 -0.2058 -0.0779
18835W        W36359  14.233  12.794  12.896  0.0825  0.1202  0.0057
18836W        W36360   0.308   2.323   3.003 -0.0449  0.2137  0.2306
18837W        W36361  16.185   4.384   1.655 -0.0345  0.0145  0.0563
18838W        W36362  12.131   2.101   4.567 -0.2846 -0.2030 -0.0172
18839W        W36363  15.072   3.004  14.727  0.2126 -0.0940  0.1929
18840W        W36364   9.744  17.417   2.622  0.0803 -0.1801 -0.0494
18841W        W36365  13.121   1.405   2.896 -0.0948  0.1989 -0.0371
18842W        W36366  13.886   5.769  14.632 -0.0418  0.1459  0.1519
18843W        W36367  15.114   6.686  12.712  0.1095  0.1419  0.1916
18844W        W36368  16.985  16.846   5.938  0.1065  0.4595  0.2781
18845W        W36369  10.334  12.136  15.278 -0.2090 -0.0661 -0.2226
18846W        W36370  17.020   7.232   1.487  0.3761  0.0646 -0.0437
18847W        W36371  14.412   9.128   0.639  0.1643  0.0788 -0.0573
18848W        W36372  13.983   1.526   1.824 -0.3449  0.1996 -0.3239
18849W        W36373   6.382  15.750   0.898 -0.0055 -0.1064 -0.5080
18850W        W36374  14.086   5.157  13.607 -0.1329 -0.3118 -0.0713
18851W        W36375   7.655  12.902  16.236  0.0226  0.0705  0.0531
18852W        W36376  17.904   7.186  11.424  0.0526  0.3394  0.1228
18853W        W36377   3.821   6.746   1.555 -0.0114 -0.1749 -0.0126
18854W        W36378   0.628  16.464  13.485 -0.3169 -0.1938  0.3164
18855W        W36379  10.189  13.963  14.776  0.1129  0.1646  0.1959
18856W        W36380   9.686  10.313  12.609  0.1660 -0.3102 -0.0429
18857W        W36381   1.748  13.851   2.516  0.0170 -0.2415  0.1984
18858W        W36382   8.646   4.354  13.440 -0.0878  0.1110 -0.2340
18859W        W36383  13.299  14.178  14.394  0.0843  0.0417 -0.0726
18860W        W36384  12.139  11.019   3.835 -0.0436  0.0939  0.1301
18861W        W36385   3.124  13.381   2.550 -0.2641 -0.3056  0.0278
18862W        W36386  10.635   1.980  13.863 -0.0021  0.3890  0.0418
18863W        W36387   7.585   7.088   3.268  0.1402 -0.0461  0.2163
18864W        W36388   7.687  15.689  12.728  0.1601 -0.0478  0.0030
18865W        W36389   5.185   0.445  15.819  0.1755 -0.0928  0.0176
18866W        W36390  11.162  15.455  11.720  0.1061 -0.2094 -0.0440
18867W        W36391   4.101  14.028  13.325 -0.0650  0.1904 -0.3440
18868W        W36392  15.816   0.550  11.503  0.2229 -0.0637  0.2464
18869W        W36393  17.011   0.895   3.578 -0.0446 -0.0495  0.1240
18870W        W36394   0.776   7.745  12.061 -0.2227  0.1084 -0.3080
18871W        W36395   8.576  15.341  15.130  0.2686  0.0406  0.1008
18872W        W36396  14.128   2.844   2.983  0.0370  0.1162  0.1028
18873W        W36397   1.117   8.939  15.530 -0.1242  0.0534  0.0769
18874W        W36398   6.860   3.663   0.647  0.0690 -0.0777  0.2870
18875W        W36399   9.036  12.083   6.275 -0.1899 -0.0164  0.2803
18876W        W36400  11.304  13.684  14.073 -0.2836  0.0489  0.1911
18877W        W36401  12.953   3.624  14.250 -0.0820  0.2467 -0.1652
18878W        W36402   2.695  12.459  16.131  0.2600 -0.2195  0.3825
18879W        W36403  14.299  15.982  15.619  0.2822  0.1724  0.2066
18880W        W36404   8.178  14.587   2.479 -0.0609  0.2136 -0.2675
18881W        W36405  12.692   1.866   3.280 -0.1178  0.0888 -0.1006
18882W        W36406  13.835   8.546  15.164  0.0850 -0.1154 -0.0713
18883W        W36407  12.905   1.407  13.807  0.2410  0.0992  0.1584
18884W        W36408  14.284   8.810  11.275 -0.0526  0.1469 -0.0473
18885W        W36409   6.774   3.228   1.925 -0.0261 -0.0126 -0.2613
18886W        W36410   2.584   7.995  12.251  0.0855  0.2543  0.0462
18887W        W36411  11.379   8.614  13.221 -0.2853  0.2706  0.1947
18888W        W36412   8.660  10.939  15.487  0.1668 -0.2224  0.2271
18889W        W36413   0.901   4.680   5.724 -0.0211  0.1247  0.1073
18890W        W36414  10.313  16.649   0.813  0.0490 -0.3695  0.1957
18891W        W36415   4.046   1.432   3.681  0.3006 -0.1642 -0.1872
18892W        W36416   0.004   6.662  11.246 -0.0497 -0.0786 -0.5925
18893W        W36417   5.905  13.967   3.813  0.3184 -0.3663  0.0006
18894W        W36418   6.620   3.352  12.354 -0.0852  0.5221  0.1228
18895W        W36419   1.178   7.788  16.162 -0.1823 -0.0660 -0.0668
18896W        W36420   9.774   0.733  15.218 -0.0525  0.1556  0.1015
18897W        W36421   4.039  14.529   2.039  0.1145  0.0922  0.0907
18898W        W36422   8.910   0.025   0.526  0.1683 -0.1610 -0.0666
18899W        W36423  13.903  12.836   0.089 -0.1905 -0.2383 -0.1996
18900W        W36424   6.376   4.791   2.457 -0.1731  0.1900 -0.2430
18901W        W36425   1.174  14.109  14.890 -0.1155  0.1774 -0.0733
18902W        W36426  15.142   0.194   3.836 -0.0550 -0.0639 -0.2091
18903W        W36427  17.258  10.151  10.227  0.0297  0.0878 -0.4393
18904W        W36428   8.946   5.330  13.309  0.1427  0.0608 -0.0699
18905W        W36429   6.575   4.703   2.884 -0.0436 -0.0397  0.1835
18906W        W36430  10.264   6.233  13.211 -0.1619 -0.1202 -0.2794
18907W        W36431   6.480  17.957   5.909 -0.0861 -0.0285  0.1857
18908W        W36432  10.314  11.199  13.146  0.0991  0.0504 -0.1206
18909W        W36433   2.392  10.530  14.757  0.1396 -0.0439 -0.2952
18910W        W36434  13.101  11.098  14.330 -0.1361 -0.1337 -0.2441
18911W        W36435   1.295   0.508  15.621 -0.1856  0.3287  0.0399
18912W        W36436  15.119  14.735  16.165 -0.0896  0.1419  0.2409
18913W        W36437   7.824   2.956   1.201  0.1170 -0.0801  0.1806
18914W        W36438  16.727   9.745   0.898 -0.4385  0.0243 -0.2403
18915W        W36439  12.469  15.688  14.998  0.0817 -0.0638  0.1708
18916W        W36440  15.852  10.704  11.480 -0.1279 -0.2568 -0.1604
18917W        W36441   0.757   8.772   1.165 -0.0394 -0.1375 -0.1812
18918W        W36442   2.906   9.190   0.510  0.2400  0.0789  0.0252
18919W        W36443   2.487  13.889  12.716  0.1239  0.1587 -0.2802
18920W        W36444  13.716   0.191  10.306 -0.1854  0.0083 -0.4120
18921W        W36445  17.107  12.982  15.462  0.0355  0.4852 -0.0660
18922W        W36446   2.364   1.677  11.843 -0.1436 -0.3919  0.0735
18923W        W36447   4.506   0.913  11.285 -0.0644 -0.1145  0.2180
18924W        W36448   1.551  17.147  15.864  0.1978 -0.1770 -0.0787
18925W        W36449   9.899  13.936   0.827 -0.1557  0.2103 -0.1842
18926W        W36450   3.866  15.055  16.085 -0.0823  0.1363 -0.0741
18927W        W36451  16.933  11.229   4.137 -0.0442 -0.1736 -0.0767
18928W        W36452   9.560   2.318  12.789 -0.1487 -0.0469 -0.1453
18929W        W36453  11.455   5.261   2.281  0.0734 -0.1125 -0.1203
18930W        W36454   6.517  16.397  12.539  0.1869 -0.0166 -0.1071
18931W        W36455   9.224   0.344   1.427  0.1527 -0.4514 -0.1276
18932W        W36456  14.140  15.725  14.291 -0.0594 -0.2193  0.3174
18933W        W36457  10.393  17.939  11.693  0.0837  0.1152 -0.2261
18934W        W36458   0.048   3.439   0.664 -0.0139  0.1957 -0.1560
18935W        W36459   7.281  12.633   4.899  0.0085 -0.1660 -0.0271
18936W        W36460   2.225  16.794   3.895  0.1115  0.2185 -0.2351
18937W        W36461   6.849   5.510  14.746 -0.0690 -0.0443 -0.4060
18938W        W36462   1.433   9.375   1.423  0.0777 -0.0484  0.0385
18939W        W36463  15.447   0.689   5.128 -0.0527 -0.0401  0.0555
18940W        W36464  13.725   8.252   4.175  0.2018 -0.1235 -0.1212
18941W        W36465   4.982   3.469   3.944 -0.1027 -0.2533  0.3515
18942W        W36466   2.541  17.163  12.813 -0.0579 -0.2750 -0.0566
18943W        W36467  10.623  13.514   3.384  0.1014 -0.0711 -0.1953
18944W        W36468   3.148  14.541   0.945 -0.1845  0.0863 -0.0088
18945W        W36469  16.615   4.359   3.330  0.3126 -0.1215 -0.0388
18946W        W36470   8.594   2.535   2.353 -0.1311 -0.2103  0.0334
18947W        W36471   3.448  14.526  12.280 -0.0240  0.1103  0.1006
18948W        W36472   4.176   3.704   1.054 -0.1386 -0.3238 -0.3308
18949W        W36473   5.974   3.939   5.020 -0.1388  0.2517 -0.0453
18950W        W36474   1.189  11.888  11.893  0.0369  0.0748  0.1537
18951W        W36475   6.862  15.636   1.053  0.0734  0.0384  0.0751
18952W        W36476   1.422   1.588   3.887  0.0758 -0.0727  0.0451
18953W        W36477  11.512   0.008  13.582  0.0896  0.1324 -0.0153
18954W        W36478  17.744   3.735   1.319  0.2017 -0.2021  0.2700
18955W        W36479   8.422   7.599  11.922  0.2594 -0.0711 -0.0124
18956W        W36480   9.630   2.130   5.854 -0.1884  0.0009 -0.1236
18957W        W36481   3.842  16.307   5.542 -0.0223 -0.1896 -0.0791
18958W        W36482  11.551   6.228  14.672  0.2857  0.1761 -0.1299
18959W        W36483  10.041  11.780   4.616  0.0532 -0.1363  0.0547
18960W        W36484   8.122  10.609   0.516  0.0715 -0.0880 -0.2673
18961W        W36485   9.642   2.409   3.571  0.0327  0.0383  0.0703
18962W        W36486  10.109  10.923   4.754  0.0840 -0.0459 -0.4607
18963W        W36487   6.903   1.463  14.241 -0.1258 -0.0546 -0.1338
18964W        W36488   4.776   7.595   2.601 -0.1077 -0.0249 -0.2767
18965W        W36489   6.942   8.339  14.078 -0.0142  0.1798 -0.2519
18966W        W36490  17.502   0.424   4.313 -0.2662  0.1697 -0.3852
18967W        W36491  15.013   7.914  14.030 -0.0711 -0.0889 -0.0311
18968W        W36492  12.083   6.091  10.864  0.3015  0.0688  0.2065
18969W        W36493  10.920   9.497   2.583 -0.0323 -0.2384  0.0625
18970W        W36494  11.925  17.276  12.489 -0.1753  0.0571 -0.4248
18971W        W36495   1.789  13.737   1.095 -0.1579  0.0749  0.3406
18972W        W36496   5.993   5.573  15.763 -0.0755  0.0591 -0.0137
18973W        W36497  15.966   0.278   1.787 -0.4510 -0.0611  0.0045
18974W        W36498  11.761  11.874  11.445 -0.0930  0.0078 -0.0052
18975W        W36499   3.294  16.111  13.916  0.1208  0.4575 -0.2473
18976W        W36500  16.559   6.121  16.181  0.0387 -0.1907 -0.3063
18977W        W36501  13.816   0.977   3.934  0.0133  0.0370  0.0550
18978W        W36502   1.408  11.531  13.035 -0.0318  0.0796  0.4580
18979W        W36503  13.790  10.246  15.613 -0.2123  0.2154  0.2433
18980W        W36504  14.513   9.313   3.028  0.2617  0.1230 -0.0182
18981W        W36505  15.463  15.607  13.651  0.2727  0.2223 -0.0189
18982W        W36506  17.448   9.923   3.694 -0.0056  0.1900  0.0656
18983W        W36507   9.416   2.848   4.344 -0.2116  0.0326 -0.1113
18984W        W36508   1.284  11.873   2.981  0.2198  0.0263 -0.1308
18985W        W36509   8.994   1.444  13.500 -0.1375  0.0168  0.1044
18986W        W36510   8.657  16.665  14.274 -0.3125  0.0786 -0.5320
18987W        W36511   7.843  17.289  11.701 -0.3987 -0.2188  0.0816
18988W        W36512  16.310   3.859   1.624  0.1286  0.0473 -0.2168
18989W        W36513  15.725  13.722  15.287 -0.2441 -0.2838  0.1861
18990W        W36514  10.175   6.465   2.460 -0.1890 -0.3380 -0.2092
18991W        W36515   8.295   4.716   2.630  0.1767 -0.3209 -0.0624
18992W        W36516   3.871   5.701   1.104 -0.1975  0.0061  0.0524
18993W        W36517  16.295   7.190   4.334  0.2296  0.0805 -0.2144
18994W        W36518   7.099   9.553   3.192  0.1138 -0.0876 -0.1735
18995W        W36519  16.374   3.916   4.915 -0.1074  0.0996  0.3410
18996W        W36520   1.023  13.566   0.895  0.3224 -0.2263  0.0113
18997W        W36521   3.907   1.236  12.965  0.2787 -0.0797  0.1006
18998W        W36522  12.918  15.759  13.548  0.0513  0.1403 -0.0880
18999W        W36523   0.618  13.721   0.500 -0.2535 -0.1021 -0.3011
19000W        W36524  14.320   7.767  15.470  0.1284  0.2090 -0.1345
19001W        W36525   1.583   0.548   0.257  0.2892 -0.0396  0.1178
19002W        W36526  13.335   8.953   0.174  0.2405 -0.0670 -0.3310
19003W        W36527  11.626   2.063   3.541 -0.0207  0.0326 -0.0171
19004W        W36528   7.982   5.305  15.212 -0.0815  0.1258  0.3508
19005W        W36529   3.003   9.325   4.469  0.2181 -0.0070  0.2133
19006W        W36530   6.360   5.425   2.465 -0.0641  0.0317 -0.0327
19007W        W36531  10.215  12.964   2.790  0.2192  0.0489  0.0545
19008W        W36532   5.869  17.034  11.908  0.0440  0.1107 -0.0398
19009W        W36533  14.537  11.168  14.756 -0.2260  0.1808  0.0893
19010W        W36534  16.747   0.928  16.192 -0.1532 -0.2634  0.0470
19011W        W36535   6.430   3.684  15.359  0.2213 -0.1642 -0.0040
19012W        W36536   6.207  12.731  14.329 -0.2915  0.1795  0.0803
19013W        W36537   6.066  14.330   1.904 -0.0697  0.4474  0.1085
19014W        W36538   0.984  14.603  14.757 -0.4401  0.1053 -0.0841
19015W        W36539  16.180  14.890   0.129  0.0680 -0.1923 -0.2483
19016W        W36540  17.459  10.949   3.193  0.1976 -0.0470  0.2586
19017W        W36541  16.809   4.392  12.348 -0.0095 -0.0151 -0.0121
19018W        W36542  12.769  11.284  14.834  0.0836 -0.3534 -0.0637
19019W        W36543  17.433   3.715  15.877 -0.1664 -0.0188 -0.1076
19020W        W36544  16.647  15.852   1.566 -0.0955  0.0547 -0.1534
19021W        W36545  11.579   9.312  13.343  0.4020  0.2326 -0.0554
19022W        W36546  17.934   9.592  13.041  0.0514  0.1323 -0.2615
19023W        W36547   1.813  13.583  14.994 -0.1450  0.1265 -0.0195
19024W        W36548   1.186  13.731   1.830 -0.0733  0.2755 -0.2170
19025W        W36549   5.294   0.978   5.734  0.1899 -0.1655  0.3892
19026W        W36550  11.242  16.069  15.733 -0.2574 -0.2335 -0.2567
19027W        W36551   1.950   5.232   1.150 -0.3017  0.0083 -0.2926
19028W        W36552   5.726  12.497  13.337 -0.2331  0.0779 -0.0001
19029W        W36553   7.209   9.916  13.805 -0.0501 -0.0931 -0.1388
19030W        W36554   7.878  14.945   4.865  0.0245  0.0291 -0.0973
19031W        W36555   6.711   1.553   3.870 -0.0410 -0.2208 -0.1310
19032W        W36556  16.518   8.777   1.054  0.0493 -0.0270 -0.0121
19033W        W36557   1.428   3.770   5.259 -0.1787  0.1332  0.1059
19034W        W36558  10.929   7.670  15.728  0.0322 -0.1349 -0.0545
19035W        W36559   4.913   7.655   5.908 -0.0351 -0.2107  0.0966
19036W        W36560   4.877   8.120   0.831  0.2249  0.5294 -0.1874
19037W        W36561  12.667  10.359   2.405 -0.1403 -0.2788 -0.2094
19038W        W36562   1.608  10.499   2.450 -0.0568 -0.0500  0.1371
19039W        W36563  15.562  10.904   1.760 -0.0000  0.1136 -0.4405
19040W        W36564   2.257  12.072  13.564  0.1282  0.1349  0.1896
19041W        W36565   5.663   4.829  12.446  0.2328 -0.0849 -0.3731
19042W        W36566   6.331  15.733   3.887  0.0913 -0.2631  0.2448
19043W        W36567   7.950  10.124   1.836  0.1787  0.0236 -0.0860
19044W        W36568  17.561   9.247  14.551  0.1783 -0.2062  0.1169
19045W        W36569   1.018   4.428   3.594  0.0852 -0.2634 -0.3472
19046W        W36570   6.547   6.295   3.005  0.0604  0.1754  0.0069
19047W        W36571   9.715  13.714  14.728  0.0935 -0.0699  0.1201
19048W        W36572  17.792   3.612   2.549 -0.1182 -0.2121  0.2383
19049W        W36573   4.941   0.218   0.837 -0.1772 -0.2841  0.0595
19050W        W36574   2.791   6.434  13.650 -0.2242 -0.0891 -0.3436
19051W        W36575   6.129   4.527  14.312  0.0817 -0.0915 -0.0543
19052W        W36576   7.850   4.248   0.974  0.1857 -0.1928  0.0901
19053W        W36577  16.200  12.676   1.827  0.0893  0.1727 -0.1952
19054W        W36578   4.579  10.398  12.938  0.0798  0.0085  0.0594
19055W        W36579  11.464   5.263   1.769 -0.1347 -0.2400  0.1332
19056W        W36580   7.556   7.373  14.750  0.1102  0.2494 -0.1510
19057W        W36581  13.453  13.346  10.473  0.3962  0.0499  0.1785
19058W        W36582  15.119   2.502   1.824 -0.1116  0.3571 -0.0432
19059W        W36583  14.891  11.009  13.752  0.0182 -0.1749 -0.0715
19060W        W36584  11.342   6.794   3.119  0.0626 -0.0548  0.1295
19061W        W36585   2.902  16.010   4.074  0.1405 -0.0984  0.1637
19062W        W36586   8.183   8.221   3.636 -0.2741  0.2011 -0.0625
19063W        W36587   5.210   3.706   1.073 -0.0833  0.1815  0.3490
19064W        W36588  11.745  16.106  10.720 -0.1184  0.0987  0.0289
19065W        W36589   1.627   1.314   2.079  0.0825 -0.1463  0.2693
19066W        W36590   0.944   4.865  15.053 -0.2530 -0.1740 -0.3133
19067W        W36591  11.500  17.550   3.766  0.0444  0.1029 -0.2125
19068W        W36592  11.683  11.982  14.940  0.0504 -0.2257 -0.2153
19069W        W36593   1.837   9.690  14.490  0.0545 -0.1338  0.0787
19070W        W36594  13.634  13.535  11.807  0.0021  0.0708 -0.0583
19071W        W36595  17.277   5.028   1.059  0.1017  0.1080  0.1016
19072W        W36596   3.637  16.034   4.930 -0.1001  0.1842 -0.0043
19073W        W36597  14.722  15.110  12.635  0.1460 -0.2208  0.0090
19074W        W36598  16.159   2.923   2.014  0.0173 -0.1646 -0.0787
19075W        W36599  15.899   0.716   2.133 -0.0895 -0.1130  0.1522
19076W        W36600  13.822   8.433  15.943  0.1605  0.0510 -0.1397
19077W        W36601  17.752  14.932   4.264 -0.0705  0.2793 -0.1455
19078W        W36602   3.898  14.393  11.879 -0.2738 -0.0307  0.2519
19079W        W36603  15.047   4.038   3.777  0.3057 -0.1345 -0.1190
19080W        W36604   1.090  10.643   2.528  0.0592 -0.0177  0.0077
19081W        W36605   9.338   5.321  14.632 -0.1073  0.1284  0.5513
19082W        W36606  16.676  14.490   0.042  0.1527 -0.2136  0.0345
19083W        W36607   9.275   2.730  12.149 -0.0928  0.1365 -0.2897
19084W        W36608  12.442  12.026  14.271 -0.0850  0.1618 -0.1414
19085W        W36609  17.112   5.762   5.075  0.1747 -0.1263  0.1089
19086W        W36610  16.681   8.304  13.145  0.0473  0.0289 -0.0545
19087W        W36611  17.679  15.926  16.249  0.1572  0.0654  0.2224
19088W        W36612   7.644  13.235  11.642  0.3699  0.0847 -0.0549
19089W        W36613   5.453  17.341  14.225 -0.3009  0.1106  0.1470
19090W        W36614   2.605  13.331   4.126  0.0981 -0.1359  0.0115
19091W        W36615   9.839   1.608  12.899 -0.0945  0.2404  0.2956
19092W        W36616   0.230   9.743   0.806  0.0061  0.3034 -0.1232
19093W        W36617   0.168   6.419   4.484 -0.1769  0.1987  0.0617
19094W        W36618  16.610   7.657  13.953 -0.0699 -0.1422 -0.3112
19095W        W36619  11.108   4.489  14.060  0.0446  0.0424 -0.0233
19096W        W36620  15.286   3.622  11.180 -0.0686 -0.0086  0.0475
19097W        W36621  11.123   3.582  15.441  0.0532  0.0046 -0.1731
19098W        W36622   3.675   0.047   2.855  0.0941  0.1167  0.2307
19099W        W36623  12.789   8.304   3.468  0.5123  0.0912  0.0479
19100W        W36624   4.051  16.842   0.401 -0.4217  0.0463 -0.2323
19101W        W36625  15.163  17.558  12.522 -0.0439  0.1541  0.0198
19102W        W36626   6.985   8.195   2.632 -0.1204  0.1961  0.2955
19103W        W36627   0.516   7.082  14.718 -0.1318 -0.1075 -0.1558
19104W        W36628   5.122   6.155  15.530 -0.0179  0.2313  0.1937
19105W        W36629   9.777   6.277   2.042 -0.1983 -0.0983 -0.0359
19106W        W36630  14.627   2.361  13.817 -0.0586 -0.1054 -0.0502
19107W        W36631   3.752  14.984   3.803 -0.0077 -0.3954  0.0515
19108W        W36632  15.155   5.625   2.201 -0.0358  0.5173 -0.1322
19109W        W36633  10.587   4.970   1.196  0.0227  0.0427 -0.0178
19110W        W36634  13.308   7.140  11.797 -0.1667 -0.0857 -0.1536
19111W        W36635  12.524   1.541   2.461  0.0549  0.0063 -0.0413
19112W        W36636   5.851   0.655   4.054 -0.0079 -0.2410 -0.2321
19113W        W36637   6.907   8.511   4.808 -0.2394  0.1616  0.1235
19114W        W36638   2.888  12.231  15.240 -0.0393  0.1851  0.1557
19115W        W36639   2.325  14.597  13.620  0.0869  0.3558  0.1782
19116W        W36640  12.102   6.232  14.313  0.3016 -0.4514 -0.0386
19117W        W36641   1.093   3.770  12.711  0.2042 -0.0405 -0.1814
19118W        W36642   7.620  13.369   0.404 -0.1435  0.2429 -0.0072
19119W        W36643  14.862   1.696  13.174  0.2583  0.2194  0.0232
19120W        W36644   7.381  10.857   6.037  0.1589  0.1179 -0.1865
19121W        W36645   4.298   8.432  14.780  0.1443  0.0474  0.0587
19122W        W36646   2.547   5.907  14.485  0.0558 -0.0188  0.1191
19123W        W36647   4.827  12.618  12.821  0.1658  0.0643  0.0850
19124W        W36648   1.489  12.543   3.665  0.0852 -0.2052  0.0879
19125W        W36649   8.367  17.643   2.743  0.1419  0.1302  0.0924
19126W        W36650  11.549   1.841  14.550  0.2462 -0.0723  0.1374
19127W        W36651   2.320  13.510   4.530 -0.0063 -0.0498 -0.1968
19128W        W36652   5.413   3.942   2.037  0.2512  0.0315 -0.0378
19129W        W36653   3.921   4.106   3.982 -0.0542 -0.1995 -0.0587
19130W        W36654  15.446   7.745   3.200 -0.1162  0.0728  0.0628
19131W        W36655  17.889  12.576  14.147 -0.0385 -0.2809 -0.1334
19132W        W36656   4.842   4.807  13.918 -0.2633 -0.1238 -0.1152
19133W        W36657   9.517  14.657  12.770 -0.0042  0.0648 -0.1311
19134W        W36658   7.507  14.587  15.368  0.3436  0.0526  0.2465
19135W        W36659   8.813   7.660  13.151  0.0190 -0.0340  0.3230
19136W        W36660   5.021  10.818   4.664 -0.0134 -0.0553 -0.0362
19137W        W36661   7.264  12.094   4.179 -0.0266 -0.0601 -0.0025
19138W        W36662  14.335  15.452  15.264 -0.0108 -0.2093 -0.2324
19139W        W36663  14.044   5.953  15.509  0.1043  0.0060  0.0008
19140W        W36664  12.349   7.587  11.467  0.1377  0.1179 -0.1079
19141W        W36665   8.867   7.070   1.703  0.2850  0.3055  0.3446
19142W        W36666   4.333   2.667   4.970  0.0077 -0.2605 -0.2843
19143W        W36667  10.943   1.328   0.973 -0.2055  0.0602 -0.0807
19144W        W36668  10.765   2.908   5.855  0.2157  0.0307  0.2161
19145W        W36669  13.564   0.799  12.599  0.2065  0.1492 -0.2229
19146W        W36670   8.248   0.051  12.255 -0.0601 -0.0950  0.1329
19147W        W36671   9.201   1.538   3.199 -0.0995  0.0426  0.2000
19148W        W36672  13.828   1.389   0.044  0.1757 -0.0980  0.3492
19149W        W36673   4.987   8.087   2.319 -0.1158  0.0443 -0.4071
19150W        W36674   1.131  10.246   5.337 -0.2365 -0.2184  0.2633
19151W        W36675  14.359  12.366  16.210 -0.2385 -0.0750 -0.3921
19152W        W36676  15.545  12.113  13.520  0.1794 -0.0567  0.1647
19153W        W36677   6.227   4.397  13.746 -0.0434 -0.2487  0.0830
19154W        W36678   3.834  17.937   5.067 -0.3126  0.0266  0.2556
19155W        W36679  11.658  16.973   1.022 -0.0807 -0.0918 -0.2009
19156W        W36680  17.550   4.645  15.649  0.3316 -0.1932  0.0568
19157W        W36681   3.723   2.629  15.464 -0.0134 -0.0589 -0.0598
19158W        W36682   7.123  15.977  16.109 -0.1813  0.0835  0.0319
19159W        W36683   6.714   5.131   0.830  0.2788 -0.0710  0.0064
19160W        W36684   6.860  14.475   3.699 -0.0831  0.0341  0.0787
19161W        W36685   9.236  11.191  14.648 -0.0161  0.2112 -0.0963
19162W        W36686  17.849   5.707  11.326 -0.0207  0.0095  0.0837
19163W        W36687   2.654  14.137   2.279  0.3001  0.1611 -0.3682
19164W        W36688   0.426  13.407   5.594 -0.0852 -0.1603  0.0403
19165W        W36689   9.117  17.748  12.215 -0.3090 -0.0931  0.1419
19166W        W36690  11.317  12.176   4.577 -0.0154 -0.1577 -0.0613
19167W        W36691  14.112   0.811  13.734 -0.3200 -0.1214 -0.1945
19168W        W36692   9.101  14.161   3.602 -0.0113 -0.3616  0.4310
19169W        W36693  15.504  16.955  13.146 -0.0384 -0.3755 -0.1163
19170W        W36694  13.015   5.487   0.800 -0.0162  0.3284 -0.0821
19171W        W36695   8.095   7.226   2.260  0.1209  0.1794  0.1688
19172W        W36696   1.035  14.423  13.462 -0.3031 -0.1660 -0.3537
19173W        W36697   5.151   6.327   2.772  0.0780 -0.2473 -0.0616
19174W        W36698  10.562  10.850   2.127 -0.1056 -0.0626  0.0780
19175W        W36699  12.721   7.580   0.127 -0.0952  0.2172 -0.2090
19176W        W36700   8.011  10.867   2.892  0.0136  0.2560  0.0783
19177W        W36701   1.644   2.582   0.167  0.3860 -0.2631  0.0162
19178W        W36702   7.725  14.801  14.652 -0.1869 -0.0102  0.0530
19179W        W36703   2.652   0.135   4.753  0.1517  0.0561  0.1010
19180W        W36704   4.575   9.214  15.735  0.0894 -0.0745 -0.1875
19181W        W36705   1.464   1.059   1.118  0.0441 -0.0965 -0.1708
19182W        W36706   4.460  14.292  10.673  0.3598 -0.0054 -0.1340
19183W        W36707   0.539  10.561  13.711  0.0616  0.3787  0.1619
19184W        W36708  14.776   4.845   3.632 -0.1700  0.1643 -0.0273
19185W        W36709   1.837   9.466   0.645 -0.0052  0.0224 -0.1377
19186W        W36710   0.572  11.035   5.650 -0.1098 -0.2143 -0.1429
19187W        W36711   6.175   1.407  15.510  0.1691 -0.1204  0.0252
19188W        W36712   9.363  12.033  12.061  0.2528 -0.1056 -0.2278
19189W        W36713   8.350  15.557   3.658 -0.0144 -0.0270 -0.2221
19190W        W36714  15.121  13.941  14.700  0.3859  0.2176 -0.2317
19191W        W36715  12.592   6.934   5.081 -0.3366 -0.1945 -0.0284
19192W        W36716  12.830  13.720   2.540  0.2398 -0.0560  0.0562
19193W        W36717  17.046   5.637   2.222  0.0585 -0.1325 -0.0983
19194W        W36718  16.761   0.916   4.019  0.0884  0.3119 -0.0628
19195W        W36719   3.468  11.901  11.641  0.0112  0.0991  0.0648
19196W        W36720  15.048  11.357  13.378 -0.0525 -0.0424 -0.3368
19197W        W36721   1.489   6.997   4.487 -0.0940  0.0006 -0.1180
19198W        W36722   1.312   4.551   2.727  0.0041  0.1485 -0.2156
19199W        W36723   1.440  10.320   0.987 -0.2892 -0.0577 -0.2297
19200W        W36724   0.927  16.954   0.143 -0.1201  0.3169  0.1420
19201W        W36725   6.866   0.326   1.535 -0.0849  0.1350 -0.3697
19202W        W36726   4.353  14.884   3.468  0.1063  0.0866  0.0625
19203W        W36727   7.161  13.066  12.439 -0.1613  0.1561  0.3435
19204W        W36728   2.903   1.527  15.995  0.0195  0.0687 -0.0895
19205W        W36729   5.210   1.067   0.292  0.3609  0.1578 -0.1132
19206W        W36730  11.885  17.887   4.627 -0.1205 -0.2492  0.2615
19207W        W36731   2.181   8.539  15.796  0.3295 -0.1615 -0.1716
19208W        W36732   7.960  15.245  13.910 -0.4179  0.0473 -0.2843
19209W        W36733  14.087  15.542  13.758  0.0241  0.2674 -0.1370
19210W        W36734  12.608   4.665   0.550  0.0369 -0.1556 -0.0611
19211W        W36735   3.909  15.560  11.811 -0.3846  0.4043 -0.4273
19212W        W36736  12.619   3.325  11.518 -0.3980 -0.0926 -0.1122
19213W        W36737  11.856   7.588  12.783 -0.0879 -0.3110  0.2713
19214W        W36738   0.697   6.484  15.465 -0.0401 -0.1341 -0.0949
19215W        W36739   0.394   7.598  13.527 -0.5947  0.1254  0.2049
19216W        W36740   1.736   9.698   5.332  0.0511  0.0289  0.0065
19217W        W36741  16.655   3.023   3.642  0.1579  0.2367  0.0349
19218W        W36742   5.925  13.718   4.344 -0.0549 -0.0487  0.4463
19219W        W36743   6.653   1.543  16.241  0.0106  0.0497 -0.1260
19220W        W36744   3.205  10.343  13.339 -0.2563 -0.2402 -0.0746
19221W        W36745   7.081   8.523   1.574  0.0071  0.0014  0.2815
19222W        W36746  14.403  16.695   1.959 -0.0533  0.0635  0.0151
19223W        W36747   5.068   3.635   0.548 -0.0088 -0.1588 -0.1651
19224W        W36748  14.851   3.819   1.916 -0.1387  0.0377  0.0077
19225W        W36749  17.876   2.586  10.785  0.0133  0.3585  0.1790
19226W        W36750  12.763   5.080  12.812 -0.1097  0.1113  0.1648
19227W        W36751   1.513   3.324   5.007 -0.3703 -0.1717  0.0047
19228W        W36752   2.197   8.714  13.059 -0.2699 -0.0607  0.0124
19229W        W36753  14.347   9.157   1.122 -0.1776  0.0709 -0.1406
19230W        W36754  10.783  16.565   4.202  0.0139  0.0718 -0.0409
19231W        W36755   3.415   7.133   0.315 -0.3886 -0.2400  0.4416
19232W        W36756  14.228  16.893   2.899  0.3279 -0.1528 -0.2240
19233W        W36757   2.403   9.784   2.307  0.1008 -0.1858 -0.1225
19234W        W36758  13.606   3.900  12.218 -0.2195  0.3624  0.0989
19235W        W36759  13.141   6.153   2.923  0.0615 -0.1125 -0.0368
19236W        W36760   5.697  12.182  13.726  0.1277 -0.0285  0.1847
19237W        W36761  11.816  14.226  14.262  0.1823 -0.1695  0.0105
19238W        W36762   2.422  14.550   1.483  0.1186  0.0872 -0.1319
19239W        W36763  16.784   0.433   2.127  0.1631 -0.0247 -0.3123
19240W        W36764   7.768  15.517  15.737  0.1518 -0.1040  0.2686
19241W        W36765   8.727   5.589   2.113 -0.0182 -0.2190 -0.0742
19242W        W36766  11.057   7.139   2.303 -0.1197 -0.0609  0.3629
19243W        W36767  17.211   3.588   3.294 -0.0915  0.0372  0.0558
19244W        W36768  11.497  17.834   3.289  0.0562  0.1654 -0.1297
19245W        W36769   2.620   0.391  13.822 -0.3355  0.2747  0.1360
19246W        W36770   1.679   8.887  11.652 -0.0901  0.0823  0.1723
19247W        W36771  13.423  12.308  12.581 -0.2560 -0.2009 -0.0194
19248W        W36772  16.254  11.360  13.713 -0.1352  0.1083 -0.0544
19249W        W36773   6.046  13.442   1.478  0.2180 -0.1650 -0.2630
19250W        W36774   0.607  13.421  15.064 -0.0964  0.0002 -0.0969
19251W        W36775   2.059  16.080  12.197 -0.2104 -0.1768 -0.1248
19252W        W36776   4.955   8.683   4.126 -0.2283  0.1437  0.0609
19253W        W36777   3.684   1.961   6.044 -0.0964  0.3655  0.2926
19254W        W36778  17.272   8.669  15.218 -0.0225  0.1286 -0.1536
19255W        W36779  15.783  15.861   4.760  0.0352 -0.2108  0.0042
19256W        W36780   3.725   7.420   1.902  0.2621  0.2951 -0.1811
19257W        W36781   3.438   7.649  11.015 -0.0628 -0.1686 -0.1594
19258W        W36782   0.108   2.748   3.953 -0.2619  0.0610  0.1533
19259W        W36783  15.231  10.957   3.759  0.0062 -0.2146 -0.1812
19260W        W36784   9.314   4.559  11.756  0.0419 -0.2375  0.0195
19261W        W36785  11.656  13.697   1.860  0.0113  0.0019 -0.0205
19262W        W36786  11.444  15.365   4.910 -0.1212 -0.2962  0.1000
19263W        W36787  14.004  14.422  11.513  0.0965  0.1153  0.0911
19264W        W36788  17.130  10.492  14.174  0.0323 -0.1092 -0.0285
19265W        W36789   5.869  14.797   1.959  0.0073  0.1938  0.1180
19266W        W36790   2.906  12.035   0.255  0.0356 -0.1586  0.2171
19267W        W36791  16.910   6.819   2.847 -0.1031 -0.0543  0.1655
19268W        W36792   0.255   4.820  12.774  0.2393  0.1469 -0.1668
19269W        W36793   7.795  15.012   1.340 -0.3674 -0.0384  0.0823
19270W        W36794  14.991  10.761  14.901  0.3223 -0.1895 -0.1798
19271W        W36795  15.081  16.403   1.236  0.0131 -0.0014  0.0756
19272W        W36796   5.168   1.959   4.622 -0.0874  0.2135 -0.3294
19273W        W36797  17.673   2.604   0.244  0.2149 -0.1853  0.2861
19274W        W36798  11.469  13.345   5.754 -0.1860 -0.0941  0.0655
19275W        W36799  10.804   3.594   4.545 -0.2123 -0.0301 -0.0030
19276W        W36800  14.167  14.165   1.744 -0.1012 -0.1758  0.0024
19277W        W36801  17.367   6.137  15.516 -0.0102 -0.1789 -0.0259
19278W        W36802  14.833   9.016   2.761  0.2099 -0.0663  0.2784
19279W        W36803  17.538   5.117  14.567  0.0187 -0.0020  0.3585
19280W        W36804  14.775  17.079   0.869 -0.0740 -0.0478  0.4516
19281W        W36805  17.322  14.951  15.296 -0.3080 -0.1317  0.0768
19282W        W36806   9.672  13.115   0.637 -0.0861 -0.1393  0.3536
19283W        W36807  14.977   9.631  12.906  0.0424 -0.2478  0.0940
19284W        W36808  10.896  15.867   4.586  0.0372  0.1495  0.0739
19285W        W36809   7.915   4.187  15.105  0.2998  0.1251 -0.0408
19286W        W36810   6.522   6.865   5.079 -0.0483  0.0639 -0.2034
19287W        W36811   3.021  12.157   5.545 -0.3027  0.1662  0.1917
19288W        W36812   2.663   0.797  14.899 -0.3945  0.1246  0.4805
19289W        W36813  10.309   8.812  14.736 -0.0956  0.0567 -0.2450
19290W        W36814   3.127   0.486  13.854 -0.0748 -0.1497 -0.1587
19291W        W36815   0.750  13.031   2.460 -0.0653 -0.0086 -0.1502
19292W        W36816  11.683  16.419   0.329 -0.0982 -0.1254 -0.0609
19293W        W36817  14.990   2.567   5.135  0.1049 -0.0389  0.0246
19294W        W36818  14.929  14.064   2.386  0.2416  0.0551  0.4223
19295W        W36819  16.798   5.805   4.614  0.1155 -0.2106 -0.2784
19296W        W36820  10.508  17.719   1.639 -0.0780 -0.1623 -0.1267
19297W        W36821  17.016  13.670   0.087 -0.0028 -0.1358 -0.0921
19298W        W36822   0.513   3.500   3.060  0.2981  0.0471 -0.0473
19299W        W36823   8.867  13.744   6.039 -0.3798 -0.2161  0.1889
19300W        W36824  12.225   2.665   0.302 -0.1532  0.0880  0.0720
19301W        W36825  16.775   7.257   5.599 -0.0554 -0.1338  0.0634
19302W        W36826   8.447   5.473  15.709 -0.3146 -0.1930  0.1027
19303W        W36827  14.506   7.005   0.396  0.0811  0.0906 -0.1173
19304W        W36828  11.088  16.717   3.409  0.0534 -0.0106 -0.0264
19305W        W36829   1.918   2.303  15.964 -0.0374 -0.0954 -0.0308
19306W        W36830   7.568  11.418  13.598 -0.1065 -0.1379  0.0021
19307W        W36831  13.486   3.826   4.662 -0.0604 -0.0706  0.1853
19308W        W36832  10.631   7.165  15.921 -0.0628 -0.1355  0.1034
19309W        W36833   6.006   2.021   0.450 -0.0865  0.0382 -0.1285
19310W        W36834  15.003   7.394  13.290 -0.0660 -0.1861  0.1488
19311W        W36835   2.218   9.876  11.326 -0.0441  0.0911 -0.0126
19312W        W36836   1.936   7.978   1.430  0.0522  0.1271 -0.3282
19313W        W36837  13.256   2.821  15.325  0.0241 -0.1639 -0.1234
19314W        W36838   3.961  12.480  13.128  0.1322  0.0876  0.0645
19315W        W36839  13.340   0.405  14.243  0.0579  0.3308  0.1431
19316W        W36840   3.090   2.895  14.856 -0.2383  0.2274 -0.1257
19317W        W36841  15.203   8.864  15.384  0.1404 -0.5060 -0.1578
19318W        W36842   6.830   7.202  13.361  0.3206 -0.1008 -0.2089
19319W        W36843   8.998   7.358  10.706  0.0138 -0.1698 -0.2273
19320W        W36844   1.120  13.689   5.978 -0.0024  0.4371  0.0075
19321W        W36845   6.864   2.329   3.382 -0.0011  0.1655 -0.1454
19322W        W36846   7.659   0.601   2.759 -0.4032 -0.0275  0.0569
19323W        W36847  14.401   5.376   0.505  0.0614 -0.1715  0.0290
19324W        W36848   2.650  11.446  11.925 -0.2983  0.0954 -0.0027
19325W        W36849  13.322   0.280  15.132 -0.3017  0.0637  0.1381
19326W        W36850   6.017  15.965   4.190  0.0550  0.2278  0.0561
19327W        W36851   0.292  16.579   3.412 -0.0652 -0.1886  0.3854
19328W        W36852  11.522   3.236  15.603  0.2014  0.1253 -0.2945
19329W        W36853  14.249   1.761   4.347 -0.1659 -0.1005 -0.0800
19330W        W36854  16.809   4.943   4.599 -0.2955 -0.2642 -0.0825
19331W        W36855   4.492   1.477   3.801 -0.0347  0.1234  0.0822
19332W        W36856   2.669   1.795  14.159 -0.1007  0.0053  0.1781
19333W        W36857  11.548   3.317   5.087  0.2269  0.3343  0.0056
19334W        W36858  16.201   6.360   0.889 -0.1914 -0.4389  0.1029
19335W        W36859  14.765  11.062   4.014 -0.0861  0.0971  0.2641
19336W        W36860   8.286  10.407   5.081  0.0421  0.2406  0.0113
19337W        W36861   7.881  10.356  15.479  0.1119  0.1524 -0.0287
19338W        W36862  17.631   9.103  16.186  0.2794  0.1939 -0.0799
19339W        W36863   1.279  16.536   1.145 -0.0045  0.1217 -0.0975
19340W        W36864  12.024   4.634  10.696 -0.0487 -0.0158  0.0365
19341W        W36865   3.903  11.730   0.540  0.1106 -0.0808  0.6606
19342W        W36866  12.551   7.502   0.614  0.0377  0.1819  0.1165
19343W        W36867  17.614   9.946   0.539  0.2268  0.1630 -0.0294
19344W        W36868  13.934   9.240  15.866  0.3386  0.0767 -0.1202
19345W        W36869  13.950   6.075   0.935 -0.0136 -0.0228 -0.1421
19346W        W36870  13.429   7.970   3.368 -0.1014  0.0073 -0.2123
19347W        W36871   3.000  17.471  12.877 -0.0998 -0.3834  0.1365
19348W        W36872  14.049   3.487  14.291  0.1542 -0.0162  0.2904
19349W        W36873   3.913   8.164  15.039  0.1788 -0.0171 -0.0403
19350W        W36874   8.044   3.656   0.047 -0.3346  0.3943  0.2430
19351W        W36875  16.619  11.443  11.816 -0.2006 -0.0902 -0.0358
19352W        W36876   8.716  14.597   2.826  0.0965  0.2188  0.1418
19353W        W36877   6.976   6.615   3.096  0.0673 -0.0052  0.1349
19354W        W36878   1.662   7.942   3.585  0.4867 -0.2519  0.1742
19355W        W36879   6.813   6.787   4.155  0.0406 -0.0776  0.2489
19356W        W36880  14.753   8.175  12.718  0.0160  0.1566  0.1608
19357W        W36881  16.963  14.223   2.748 -0.0760  0.2199  0.2900
19358W        W36882   1.403  17.421   1.285 -0.1323 -0.0736  0.0576
19359W        W36883   7.624   2.803   3.182  0.0831 -0.2444 -0.0512
19360W        W36884  15.715   7.370  13.056  0.1076 -0.1652  0.0165
19361W        W36885   8.690   1.710  14.820 -0.0886 -0.1403  0.1394
19362W        W36886   0.755   9.897  13.299  0.0054  0.1278 -0.0348
19363W        W36887   4.935   0.197  12.236  0.1197 -0.0019  0.1257
19364W        W36888   7.907   2.112   4.286 -0.1878 -0.1999  0.0322
19365W        W36889   3.077   6.522   4.603 -0.2308  0.4174  0.0033
19366W        W36890   0.598   3.365  11.785  0.1264 -0.0848  0.1290
19367W        W36891   5.106   5.840   3.624 -0.1343  0.1560  0.1163
19368W        W36892   6.797  13.602   5.114  0.0048 -0.0912  0.0755
19369W        W36893  13.657   4.544  15.192 -0.0328  0.1548 -0.1081
19370W        W36894  15.816   6.947   3.708 -0.0306  0.0590  0.2271
19371W        W36895   8.160   0.774   2.893  0.0314 -0.2290 -0.2509
19372W        W36896   3.567  15.868   2.085 -0.1941 -0.1150  0.0052
19373W        W36897  10.807  13.351  11.034  0.0889 -0.0081  0.0526
19374W        W36898   1.796  15.685   0.905 -0.0968  0.0051  0.0005
19375W        W36899  17.008   5.722  10.618  0.0658  0.1223 -0.1044
19376W        W36900  12.466  12.725   5.373 -0.1454 -0.1514 -0.0636
19377W        W36901  13.127  11.564  13.227 -0.1125  0.1877 -0.3331
19378W        W36902  13.348   2.558  12.033 -0.0630 -0.3169 -0.0033
19379W        W36903  10.654   7.269  15.466 -0.0342  0.0070  0.1087
19380W        W36904   9.889  15.121   1.224 -0.1743 -0.0700 -0.0647
19381W        W36905   7.378  10.278   3.504  0.1213 -0.3404 -0.1277
19382W        W36906   6.165   1.573   0.031 -0.2327  0.1307 -0.4065
19383W        W36907   0.724   6.852  11.339  0.0341  0.1129 -0.3890
19384W        W36908  11.552  13.938   1.259 -0.0002  0.0786  0.2415
19385W        W36909  17.584   5.311   0.118  0.3574  0.0002  0.0762
19386W        W36910   4.532   7.514   1.810 -0.1154  0.0184 -0.2071
19387W        W36911   6.326  17.782   2.076 -0.2891 -0.2068  0.1222
19388W        W36912  15.530   8.891  14.083 -0.1409  0.0520  0.3486
19389W        W36913   3.366  16.898   1.616 -0.0943 -0.2840 -0.0756
19390W        W36914   8.798   9.674   3.783 -0.2327 -0.2042  0.0368
19391W        W36915  11.914   2.924   0.959 -0.4525 -0.2812 -0.0894
19392W        W36916   4.743   9.599   0.826 -0.0863  0.2179 -0.1190
19393W        W36917   0.017  13.888  15.445  0.1710 -0.0467 -0.2871
19394W        W36918   9.849   3.768   4.600 -0.0715  0.2558  0.0536
19395W        W36919  15.834  14.354  11.024 -0.1352  0.1555  0.1251
19396W        W36920   8.705  11.505   3.523  0.0830  0.1854  0.0312
19397W        W36921  15.014   4.206   3.003 -0.2575 -0.1124  0.0869
19398W        W36922  11.670  16.502   1.846 -0.3764 -0.0527 -0.1798
19399W        W36923   3.337   5.107  13.268  0.1735  0.1890 -0.0461
19400W        W36924   2.077  15.790   3.818 -0.1373 -0.0418  0.0571
19401W        W36925   2.926   7.779   1.596 -0.1728 -0.0990  0.1242
19402W        W36926   8.440  13.513  12.650 -0.0901 -0.2119  0.0278
19403W        W36927   5.128   5.368   2.459  0.2163  0.2614  0.2894
19404W        W36928   2.921   8.358  12.177  0.4349  0.2799  0.1263
19405W        W36929  11.728  16.284  13.155  0.0019 -0.5400  0.0700
19406W        W36930   6.793  16.341   4.944 -0.1155  0.4623  0.2753
19407W        W36931  16.438   1.968  13.256  0.1895  0.0127 -0.2377
19408W        W36932  10.029  16.204   4.277 -0.2744 -0.2484  0.0290
19409W        W36933   1.325  12.877  12.335 -0.1250 -0.0868 -0.0633
19410W        W36934  13.126  10.083  14.715 -0.0355 -0.0462 -0.1473
19411W        W36935   9.618   7.113   2.038  0.1028  0.1668 -0.0836
19412W        W36936  14.589  12.502   4.957 -0.0235 -0.0053  0.0808
19413W        W36937   0.171   9.715  12.097 -0.1521  0.0012 -0.2515
19414W        W36938  14.381  14.638   1.946 -0.3219  0.2491  0.1803
19415W        W36939  17.350   5.755  12.868  0.1764  0.1187 -0.2783
19416W        W36940   2.534   1.356  13.976 -0.3901  0.0328 -0.1197
19417W        W36941   3.180  15.030  12.147 -0.1528  0.1705  0.2466
19418W        W36942   0.924   9.979   3.710 -0.2081 -0.1118 -0.1131
19419W        W36943  15.212   4.712  13.363 -0.2193 -0.0438 -0.0494
19420W        W36944   0.867   3.649  11.502  0.2751  0.0535 -0.1804
19421W        W36945   0.246   3.922   1.310  0.2041  0.0315 -0.1236
19422W        W36946   7.770  17.355   0.145  0.4109  0.0485  0.1866
19423W        W36947   6.183  15.483  15.619  0.1662 -0.1413 -0.3040
19424W        W36948   3.326  13.862  11.586  0.0179 -0.0035  0.1916
19425W        W36949  16.690  16.726   4.655 -0.1158 -0.1166 -0.0372
19426W        W36950  10.968  11.683  15.108 -0.3209 -0.1129 -0.0732
19427W        W36951  14.204  13.831   2.496  0.2037 -0.0463 -0.1771
19428W        W36952   5.359  12.230   3.152 -0.0422  0.2249  0.1011
19429W        W36953   4.229   3.505  15.689 -0.0122 -0.0108  0.0551
19430W        W36954   7.343  14.458  13.650  0.2665  0.1214  0.0312
19431W        W36955  17.373   8.365   0.466  0.4086 -0.0376  0.0772
19432W        W36956   3.787  15.508   3.518  0.3581  0.0458  0.0791
19433W        W36957  16.004  16.743   3.745  0.1131 -0.0872  0.3506
19434W        W36958   9.386  11.943  14.633  0.0480 -0.2914 -0.2810
19435W        W36959  16.153  16.714  13.244  0.1030 -0.2369 -0.2100
19436W        W36960   0.477  15.549   3.225  0.0717 -0.0266  0.0734
19437W        W36961   7.352   4.361   5.721  0.0731  0.0672 -0.0665
19438W        W36962   0.482   6.497   0.221  0.1507  0.2442 -0.2517
19439W        W36963  12.653   2.537   5.035  0.0650  0.2150 -0.1221
19440W        W36964   8.426  14.559  13.699  0.1725  0.1377 -0.1234
19441W        W36965  15.293   1.311  14.451 -0.1111  0.1929 -0.1610
19442W        W36966   1.834  11.568   1.366 -0.0854  0.1082  0.3710
19443W        W36967   0.113   5.751  15.374 -0.0282 -0.3370  0.0770
19444W        W36968  11.062  14.208  13.482  0.0609  0.2132  0.3041
19445W        W36969   4.025  16.160  14.862  0.3546 -0.1967  0.0053
19446W        W36970   6.761  16.860  15.371 -0.0669  0.0775  0.1617
19447W        W36971  16.686  10.405   4.617 -0.0423 -0.0329  0.0761
19448W        W36972   3.996   5.046  11.389  0.2636  0.2389 -0.0507
19449W        W36973   6.376  12.635   1.869 -0.0175  0.0208 -0.1528
19450W        W36974   7.867  13.328  16.196 -0.0045  0.2101  0.0396
19451W        W36975  16.288  15.525   1.330  0.1204  0.0255  0.0481
19452W        W36976   6.630   2.174  15.884  0.0824 -0.0263  0.1859
19453W        W36977   0.967  15.008  13.311  0.2555 -0.1731 -0.1498
19454W        W36978   0.121   2.062  12.006  0.0995  0.0604  0.1238
19455W        W36979  16.437   6.777   0.615 -0.0515 -0.1036 -0.0568
19456W        W36980   4.987   1.176  15.037  0.0627 -0.0115  0.0609
19457W        W36981  10.464   1.272   2.226  0.2620  0.2015 -0.1106
19458W        W36982   6.654  14.570   2.411 -0.0404 -0.1809  0.0138
19459W        W36983   2.135   3.074   5.717  0.0032 -0.1140  0.0277
19460W        W36984  15.350  11.808   0.568 -0.0650 -0.2928 -0.3511
19461W        W36985   8.717  11.846  12.723  0.3712 -0.1501 -0.2398
19462W        W36986  13.906  17.312   1.091  0.0442 -0.1957 -0.0301
19463W        W36987  15.376  11.447   3.630 -0.1243 -0.3118  0.1203
19464W        W36988   1.541  12.911  13.334 -0.0426  0.1085  0.3375
19465W        W36989  11.319  12.542  16.025  0.3654 -0.1968 -0.2296
19466W        W36990   8.710   2.633  12.911 -0.0584 -0.0494  0.2393
19467W        W36991   5.129  10.424  15.561  0.1157 -0.1560 -0.1546
19468W        W36992  12.674  13.558   0.457  0.1787  0.2679  0.0790
19469W        W36993   1.291   8.185  15.525  0.1674  0.0719  0.0407
19470W        W36994   7.387  17.658  15.624 -0.1901  0.5004  0.0688
19471W        W36995  11.817   2.434  14.094 -0.0086 -0.2757 -0.0810
19472W        W36996  11.723   9.384   0.757 -0.1392 -0.0700 -0.3196
19473W        W36997  14.700   6.379  11.302  0.3344 -0.2350 -0.1693
19474W        W36998   6.224   7.669  11.447 -0.1235  0.0564  0.1545
19475W        W36999  14.808   1.999   4.279  0.2003 -0.4653  0.0136
19476W        W37000   2.521   3.372  16.152  0.2590  0.0783 -0.1153
19477W        W37001  17.048  15.561   1.176  0.1176 -0.1326 -0.1975
19478W        W37002  16.895   4.039  13.732  0.0310  0.3866  0.0757
19479W        W37003   6.902   1.528  15.096  0.2351 -0.2115 -0.1157
19480W        W37004   1.491   0.474  13.426  0.2000  0.0426  0.1645
19481W        W37005   4.586  16.823  15.279 -0.0870  0.0031 -0.0080
19482W        W37006  12.404  14.530   1.093 -0.1027 -0.0500  0.2664
19483W        W37007  11.763   3.311  15.170  0.2723 -0.0591  0.0881
19484W        W37008   4.514  15.449  12.205 -0.0038 -0.0157 -0.1559
19485W        W37009   3.731  13.684   3.095 -0.0963  0.0962  0.5700
19486W        W37010   6.518  10.739  15.773 -0.0821 -0.0921  0.0737
19487W        W37011   2.446   8.145   0.176  0.1442 -0.0877 -0.2212
19488W        W37012  17.904   1.564  15.961 -0.1180  0.2020  0.2789
19489W        W37013   3.838   6.448  14.070 -0.2185 -0.0435 -0.2609
19490W        W37014  12.171  12.773  10.961  0.1265 -0.2370  0.0922
19491W        W37015   2.212   0.451   0.227 -0.3608 -0.0512  0.0123
19492W        W37016  11.062  17.350  11.908  0.1322 -0.2554 -0.0281
19493W        W37017   4.959  15.569   3.210 -0.0473 -0.0714 -0.1594
19494W        W37018  12.407   5.215  13.965 -0.1010 -0.0273  0.1294
19495W        W37019   5.203  15.032  12.271  0.0104 -0.1169 -0.0921
19496W        W37020  16.378   7.177  16.123 -0.0653 -0.2693  0.0436
19497W        W37021   0.785   2.596   4.738 -0.0326 -0.2934 -0.3006
19498W        W37022   5.921  14.583  16.057 -0.0285 -0.1080  0.0330
19499W        W37023   8.840   1.375  12.696  0.0112 -0.0391 -0.1363
19500W        W37024  15.327  17.293  11.078 -0.0193 -0.2214  0.1424
19501W        W37025   6.279  11.138  13.493  0.3209 -0.0104 -0.2161
19502W        W37026   5.790  15.281   6.063  0.4554 -0.0786 -0.1227
19503W        W37027   2.381   1.469   1.129 -0.1832 -0.1011 -0.0434
19504W        W37028  13.114   9.001  13.844  0.0898  0.3297 -0.1524
19505W        W37029  12.797  10.809  13.962  0.1598  0.3058 -0.0476
19506W        W37030  15.446   9.195   1.551  0.0683 -0.1378  0.1242
19507W        W37031   7.339  15.250   3.506  0.2553  0.1617 -0.2515
19508W        W37032  14.603  10.818  15.242 -0.2556  0.0208 -0.1841
19509W        W37033  14.127   1.365  11.107  0.0428 -0.1697 -0.0828
19510W        W37034   3.497  13.644  14.546  0.2985  0.0179  0.0272
19511W        W37035   5.996   8.739  13.182  0.1102  0.1694 -0.1332
19512W        W37036   0.489   2.922   2.223  0.1050 -0.2671 -0.1856
19513W        W37037   4.641   1.857   0.002 -0.0735 -0.1891  0.0421
19514W        W37038   4.595  13.697  11.935  0.0526  0.2513  0.3947
19515W        W37039  10.960   3.426   2.811 -0.0881 -0.1303 -0.2534
19516W        W37040  16.122  12.058  14.002 -0.0071  0.0495 -0.1160
19517W        W37041   4.745   9.490  13.584 -0.2131  0.0621 -0.0423
19518W        W37042   2.981   2.825  12.519  0.1397 -0.3660 -0.2301
19519W        W37043  13.714  10.884  12.095  0.1023 -0.0557  0.0188
19520W        W37044   9.880  16.884   0.214  0.5181 -0.1856  0.0363
19521W        W37045   8.506   2.743   4.715  0.1463  0.4332 -0.0668
19522W        W37046   5.271   4.078   0.329 -0.3233  0.0592 -0.0027
19523W        W37047   7.597  14.240   5.232 -0.3730  0.1152  0.2773
19524W        W37048  10.667   4.039  16.216 -0.3546 -0.2300  0.0702
19525W        W37049   5.311   1.081  12.057 -0.1159 -0.2666 -0.1076
19526W        W37050   3.133  10.714  12.136 -0.1075  0.0004 -0.1266
19527W        W37051   2.669  16.499  15.521 -0.0429  0.2682 -0.1921
19528W        W37052  13.075   2.529   0.877 -0.0713  0.0159  0.2186
19529W        W37053  15.625  10.129   4.852  0.1638 -0.0610  0.0557
19530W        W37054  11.575  10.920   2.964 -0.0071 -0.1557 -0.1665
19531W        W37055   7.893  15.039  16.101 -0.1579 -0.0752 -0.0182
19532W        W37056   0.795  11.647  13.089  0.1430 -0.0808  0.0405
19533W        W37057   3.852   1.571  14.827 -0.3335  0.2568 -0.1959
19534W        W37058   0.439   2.774   1.717 -0.0637 -0.2146 -0.2036
19535W        W37059   6.502  13.193   1.122 -0.1897 -0.1251 -0.0737
19536W        W37060  10.841  11.731   3.977 -0.3072  0.2089 -0.2221
19537W        W37061  14.059  10.833   0.511  0.0696 -0.1297  0.0478
19538W        W37062  12.456   6.952  13.951  0.4179 -0.3205 -0.0849
19539W        W37063   4.003  15.440   5.221 -0.0904  0.2687  0.0032
19540W        W37064  11.927  12.311  11.796 -0.0298  0.0349  0.0899
19541W        W37065   4.485   1.196   3.394 -0.1435 -0.0571 -0.2353
19542W        W37066   4.869  12.160   4.064  0.1749 -0.1175 -0.1616
19543W        W37067   5.310   2.722   2.046 -0.0982 -0.0567  0.0403
19544W        W37068  14.153   2.175  12.960 -0.1509 -0.3228  0.0094
19545W        W37069  11.108   4.449   2.867 -0.2203 -0.1377  0.1333
19546W        W37070  17.272   5.260   5.246  0.3193 -0.0534 -0.1630
19547W        W37071   9.631  15.257   4.884  0.1448  0.1395  0.2126
19548W        W37072   9.079   4.142  11.349  0.0111 -0.1262 -0.0343
19549W        W37073  16.315  10.277  12.998  0.0173 -0.0033  0.3502
19550W        W37074   3.236  10.861  12.585  0.0895 -0.1148 -0.1532
19551W        W37075   5.604  16.424  16.059 -0.0229 -0.0258  0.0390
19552W        W37076   2.401   4.367   4.014  0.2811  0.2569  0.1130
19553W        W37077  10.732   3.770  11.212  0.1664  0.1062  0.1716
19554W        W37078  11.807   8.661   0.627 -0.0035 -0.1798  0.2244
19555W        W37079   8.508  10.950   0.393  0.1515 -0.0764 -0.0921
19556W        W37080   3.784   7.143  12.108 -0.2033  0.0069  0.1303
19557W        W37081  12.378   5.723  14.397  0.1479 -0.3542  0.3223
19558W        W37082   2.221  12.123   1.491 -0.0110 -0.0509  0.2125
19559W        W37083   6.957  14.551   4.791  0.0189 -0.0035  0.2407
19560W        W37084   8.785  11.664   5.615  0.2337  0.0095 -0.1607
19561W        W37085  14.633   1.838   2.434  0.0236  0.0741  0.0472
19562W        W37086   0.003   6.703  12.174  0.2378  0.0721  0.2559
19563W        W37087   9.445   2.973  14.758  0.0698 -0.3186  0.0458
19564W        W37088  11.422   2.480   0.553  0.0416  0.1289 -0.0430
19565W        W37089   5.062   9.239   1.181 -0.4130 -0.3103 -0.0220
19566W        W37090  14.495  17.845   3.087 -0.0496 -0.2792 -0.1099
19567W        W37091   3.421   1.018   5.975 -0.0905  0.0680  0.0056
19568W        W37092  11.856   0.748  12.973 -0.2203 -0.2160  0.2103
19569W        W37093   1.657   5.078  13.888 -0.0335  0.2186 -0.0493
19570W        W37094   3.557   8.852  14.322  0.0156  0.2901 -0.1678
19571W        W37095   6.137   5.993   1.170  0.2851 -0.2292 -0.1141
19572W        W37096   8.147   0.679  15.243 -0.0053 -0.0164  0.1763
19573W        W37097   4.903   6.948   4.999  0.1445 -0.1848 -0.0765
19574W        W37098  11.430   0.427   4.046  0.0307  0.0992  0.0418
19575W        W37099  17.220   8.344   2.871 -0.1517  0.2684  0.1267
19576W        W37100   2.213   0.445   1.648 -0.1963 -0.3628  0.1091
19577W        W37101   2.351  14.123  13.612 -0.0366 -0.0521  0.3499
19578W        W37102   5.818   0.933   3.633  0.1116  0.1472 -0.2397
19579W        W37103  16.230  13.918   2.463  0.1934  0.0098 -0.0273
19580W        W37104  13.409  10.657   1.526  0.0175  0.1084  0.1237
19581W        W37105   2.294   8.485   0.831 -0.0024  0.0761 -0.2490
19582W        W37106   7.989  12.000   5.194 -0.1817  0.3099 -0.0051
19583W        W37107   4.715   4.918   1.466  0.2058 -0.0693 -0.1416
19584W        W37108   1.309   5.768  11.694  0.1034 -0.0121  0.1097
19585W        W37109   9.711  12.948   4.132 -0.0090 -0.2055  0.2670
19586W        W37110  12.471  16.815   0.213 -0.0506  0.0673 -0.1949
19587W        W37111   9.934   4.396   3.903 -0.2219 -0.0686  0.1615
19588W        W37112  11.839   5.719   1.536 -0.0181 -0.0139  0.0672
19589W        W37113   0.698  10.662  15.832  0.3250  0.0358 -0.1581
19590W        W37114  11.838  12.634   3.668 -0.2496 -0.2348 -0.1115
19591W        W37115   4.837   8.284   1.374 -0.0761 -0.0107 -0.1450
19592W        W37116  15.104   6.542  11.554  0.2130 -0.3079 -0.1443
19593W        W37117  14.657   1.377   4.954 -0.0670 -0.3157  0.1267
19594W        W37118   5.524   0.067   4.052 -0.1050 -0.1346  0.2005
19595W        W37119  11.602   1.563   1.017 -0.1545 -0.2629 -0.2371
19596W        W37120   1.864  16.582  14.403  0.2650 -0.2413  0.0842
19597W        W37121   0.544   5.659  15.752  0.1921  0.2277  0.3203
19598W        W37122   0.599   9.039   2.938 -0.0673  0.0600  0.2234
19599W        W37123   0.083  16.222   0.306  0.2428 -0.2574 -0.1782
19600W        W37124   0.610   3.659  14.478 -0.3373 -0.0165 -0.1149
19601W        W37125  17.646  14.805   4.755  0.0688 -0.1415  0.0419
19602W        W37126   3.656   7.588  13.008  0.1874  0.4154  0.0220
19603W        W37127   9.869   2.763  13.038 -0.0039  0.0324 -0.1460
19604W        W37128  14.360   1.542   1.471 -0.2125  0.1242 -0.1564
19605W        W37129   6.988   9.279  11.832 -0.0271  0.0467  0.0737
19606W        W37130   8.127  13.471   0.662  0.0444  0.1360  0.3680
19607W        W37131   0.042  12.280  11.545 -0.0336 -0.0942 -0.2443
19608W        W37132   6.907  12.211   0.767  0.1759  0.0531  0.0090
19609W        W37133  17.667  15.832  13.882 -0.2445  0.1990 -0.1993
19610W        W37134  16.689   1.502   4.781  0.0323  0.0022  0.1090
19611W        W37135   1.396   3.891   2.205  0.0332  0.0188  0.1245
19612W        W37136   6.266   9.687  14.310  0.2299  0.1516  0.2264
19613W        W37137  15.896   9.401   3.015 -0.3130 -0.1501 -0.0257
19614W        W37138   8.681   1.675   4.455  0.0954  0.2344  0.0460
19615W        W37139  16.002   5.873   0.242  0.1707  0.2037  0.1446
19616W        W37140   2.014   3.471  15.046  0.0393 -0.0945  0.1820
19617W        W37141   3.123  15.964   5.202  0.0627 -0.1727 -0.1630
19618W        W37142   3.038   3.041   6.153 -0.0254  0.1778  0.0053
19619W        W37143   5.069  12.586   3.434  0.0733 -0.0271 -0.2017
19620W        W37144   7.204  14.978  11.615 -0.1062 -0.0328  0.0564
19621W        W37145  14.138  12.792   3.684 -0.0888  0.1682 -0.1363
19622W        W37146   9.645   8.574   0.531 -0.1439 -0.0358 -0.3545
19623W        W37147  15.155  11.477   5.095 -0.1000 -0.1518  0.3246
19624W        W37148  11.467   7.826   3.775 -0.3232  0.0808 -0.2110
19625W        W37149   5.207  12.871  14.298 -0.0765 -0.0721  0.2205
19626W        W37150   9.422  11.204   0.634  0.1054 -0.0723 -0.1411
19627W        W37151  15.591   9.039   2.365 -0.2642  0.1097 -0.1313
19628W        W37152   7.422  14.987   2.240  0.2660 -0.1653 -0.1593
19629W        W37153   4.617   5.579  15.209 -0.2401 -0.0085 -0.0438
19630W        W37154   6.757  15.677  10.628 -0.1475 -0.1414 -0.1179
19631W        W37155  10.409   4.557  15.308 -0.5445 -0.2293 -0.0506
19632W        W37156   6.740   0.231   2.975  0.1829  0.1132 -0.1863
19633W        W37157   8.903   7.535   0.156 -0.2316  0.0521 -0.1300
19634W        W37158   1.071   2.418  15.614  0.1565  0.1152 -0.2083
19635W        W37159   9.411   5.015   0.382  0.1118  0.1149  0.1889
19636W        W37160  13.851   3.928  15.821  0.1103 -0.0740  0.4597
19637W        W37161   3.680  16.859   5.140  0.0256 -0.2587 -0.0543
19638W        W37162  10.940   2.389   3.032 -0.0001  0.0058  0.4521
19639W        W37163   5.176   9.694   3.380 -0.2081  0.1959 -0.1118
19640W        W37164   7.760   8.573  15.745 -0.0602  0.0804  0.1312
19641W        W37165  16.051  12.407   4.242  0.1127 -0.0570  0.0829
19642W        W37166  11.097   9.101   3.000  0.1531  0.1208 -0.3676
19643W        W37167   7.973  15.600  13.535 -0.2254  0.0703 -0.3200
19644W        W37168  14.558  13.819  11.822  0.0589  0.0772 -0.0227
19645W        W37169  10.976  15.094   0.461  0.2386  0.0131 -0.1482
19646W        W37170   7.465  17.301  15.961  0.0928  0.1062 -0.5594
19647W        W37171   2.897   6.692  15.120 -0.3501  0.0802  0.0202
19648W        W37172   6.849   2.932  13.314 -0.2211  0.0575  0.1334
19649W        W37173  12.694  10.532  13.499  0.1101 -0.2758  0.1163
19650W        W37174  15.153   1.727   3.122  0.1527 -0.2755 -0.0589
19651W        W37175  11.963  12.316  14.493 -0.0992  0.1977 -0.0627
19652W        W37176  14.111  15.114   2.102 -0.2065 -0.1412  0.1009
19653W        W37177   6.946  14.903  13.458  0.2758 -0.1103  0.0321
19654W        W37178  14.619  14.597  15.360 -0.0538 -0.0119 -0.1901
19655W        W37179   7.503  11.797  12.132 -0.1234 -0.0247  0.0366
19656W        W37180  17.487   2.707  15.964  0.1474 -0.0887  0.1368
19657W        W37181   0.905   0.663   1.995  0.0204 -0.1608 -0.3223
19658W        W37182  10.950  13.155   5.832  0.3755  0.0104  0.1100
19659W        W37183  12.961   8.922  12.852  0.0495  0.2679  0.0803
19660W        W37184  17.655  13.677   5.199 -0.1572 -0.0000  0.0310
19661W        W37185  13.176   5.059   1.629 -0.1895  0.0984 -0.0230
19662W        W37186   0.932   2.177   1.701  0.0363 -0.0536  0.0026
19663W        W37187   2.987  10.569   3.748  0.3925 -0.2851 -0.0287
19664W        W37188   2.896   3.471   4.588  0.2135 -0.0266 -0.1482
19665W        W37189   7.675  10.166   0.930  0.0440  0.0682  0.0001
19666W        W37190   6.023  12.039   2.890  0.0700 -0.0639  0.1053
19667W        W37191   0.354  16.037   3.308 -0.2856 -0.4058 -0.0258
19668W        W37192  15.469   7.787  11.075  0.1749  0.0133  0.1770
19669W        W37193  15.084  16.726  12.645 -0.0939 -0.2363  0.0119
19670W        W37194  12.760   3.590  11.045  0.1095  0.2180  0.1210
19671W        W37195   0.927  10.264  13.702  0.0930  0.2068 -0.0119
19672W        W37196  12.600  12.854  13.122 -0.0491  0.1104  0.1237
19673W        W37197   9.693   3.815   0.903  0.0846 -0.1075  0.0898
19674W        W37198  13.966   6.163   3.213 -0.0416 -0.1896 -0.0221
19675W        W37199   9.993  10.928  16.009  0.0542  0.0517 -0.0713
19676W        W37200  15.773  17.453   2.365  0.2610  0.0363  0.2064
19677W        W37201   2.487   8.761   3.379 -0.1531 -0.0033 -0.2771
19678W        W37202  13.767   2.488   4.363 -0.0481  0.0645 -0.0601
19679W        W37203  15.453   1.621   0.645 -0.1757 -0.0887 -0.2829
19680W        W37204  10.233  16.934  11.479 -0.2403  0.0272  0.0869
19681W        W37205   3.826  11.517  15.361 -0.1025  0.0304  0.0172
19682W        W37206   0.253   4.358  12.383 -0.1507  0.0313  0.2543
19683W        W37207  14.660  13.182   0.452 -0.1592 -0.1981  0.2742
19684W        W37208  17.697  15.880   0.517 -0.2075  0.0868  0.1805
19685W        W37209  14.939   8.474  15.469  0.0771  0.0119  0.2360
19686W        W37210   4.736   6.804  11.950 -0.1587 -0.1908 -0.1971
19687W        W37211   1.691   4.440  16.024 -0.0442 -0.1923  0.2626
19688W        W37212   7.254  12.936   1.710  0.3035 -0.3536  0.0990
19689W        W37213   4.508  17.924   0.748  0.0258 -0.1238 -0.0792
19690W        W37214   3.068   2.873   2.189 -0.3146 -0.0523 -0.1235
19691W        W37215  14.482  16.646   0.769 -0.1162  0.3995 -0.0073
19692W        W37216   0.479   6.440  15.977 -0.0192  0.0721 -0.0079
19693W        W37217   5.473   8.220   2.321 -0.2236 -0.1344  0.1061
19694W        W37218  17.612   8.047   1.593  0.0710  0.2985  0.0450
19695W        W37219   5.827   6.230  14.841  0.3122  0.0715 -0.1469
19696W        W37220   3.655   0.079   0.089  0.0937 -0.0734  0.1073
19697W        W37221   1.210   1.230   4.307  0.2309 -0.0683 -0.2203
19698W        W37222   9.153  12.142  13.768  0.2112  0.0239 -0.2855
19699W        W37223   7.766   0.858   0.687 -0.0873  0.1088  0.1571
19700W        W37224   0.979   8.096   3.258  0.1113  0.1912 -0.0224
19701W        W37225   6.972   9.302  14.232  0.1243  0.0441 -0.2759
19702W        W37226   1.603   3.913   3.027  0.1732  0.0030 -0.0129
19703W        W37227  14.021   8.189   1.298  0.1363  0.1926 -0.2471
19704W        W37228  15.775  12.730  15.099  0.3012  0.1091  0.2062
19705W        W37229   9.792  13.886   1.792 -0.2350 -0.0045  0.2652
19706W        W37230   8.613  15.545  12.563 -0.0027 -0.1907 -0.0645
19707W        W37231  17.639   8.123   1.080  0.0532  0.1300 -0.1742
19708W        W37232  17.180  16.056  11.241 -0.3151 -0.1274 -0.0959
19709W        W37233   8.619   4.701   0.565  0.1472  0.4067 -0.1155
19710W        W37234  14.583   2.774   4.622 -0.0538 -0.0109  0.1890
19711W        W37235   2.170  16.543   0.997 -0.1007 -0.0827  0.0411
19712W        W37236  17.161  14.703   1.999 -0.0811  0.3687 -0.0690
19713W        W37237   3.459   4.998   0.922 -0.1113 -0.3491  0.0797
19714W        W37238   9.575   9.728  15.825  0.6813 -0.5222  0.0726
19715W        W37239  11.941   8.447   1.683  0.2701 -0.2959 -0.2032
19716W        W37240  17.132   6.481  15.911  0.2237 -0.2315 -0.0295
19717W        W37241   5.699   5.569  15.359  0.1195 -0.4552  0.0265
19718W        W37242   5.702  17.300  14.693 -0.1235 -0.3177 -0.0095
19719W        W37243   0.082   1.768   0.532  0.0290 -0.1890  0.1392
19720W        W37244   7.968  13.000   0.386  0.2127  0.0954 -0.0850
19721W        W37245   5.098   4.524   4.940  0.1026 -0.1577 -0.0056
19722W        W37246  15.206   5.133  14.628 -0.3142  0.1990  0.0427
19723W        W37247  13.257  15.643  11.824 -0.0219  0.0828  0.1094
19724W        W37248   4.787   6.658   4.044 -0.1380  0.2725 -0.1208
19725W        W37249   9.623   7.266   2.456 -0.0266 -0.1025 -0.2301
19726W        W37250  12.336  15.891   0.389  0.1393 -0.3425  0.1003
19727W        W37251   5.224  16.013  11.771  0.2449 -0.2372  0.1298
19728W        W37252   4.335   1.418  13.135  0.1972 -0.0709 -0.0212
19729W        W37253   4.506  13.697   1.763 -0.1242 -0.0378  0.2723
19730W        W37254  10.790  11.038  13.178 -0.1064  0.2399  0.0583
19731W        W37255  10.787  14.905  12.181  0.2508 -0.0677  0.4548
19732W        W37256   2.741  14.692   3.995 -0.0147  0.2894 -0.1843
19733W        W37257   0.295  11.573  15.118  0.1300  0.2899 -0.0869
19734W        W37258   3.945   2.236   1.167 -0.1731  0.1432 -0.0842
19735W        W37259   4.488   5.742  14.559 -0.0099 -0.0555 -0.0258
19736W        W37260   3.960   7.486   0.973  0.0462 -0.2869 -0.0589
19737W        W37261  15.850   9.219  10.749 -0.2176  0.2382  0.1003
19738W        W37262  11.483   8.445  12.379  0.2748  0.1885 -0.0829
19739W        W37263  16.940   0.052   1.845 -0.0238 -0.2447  0.1150
19740W        W37264   9.424   0.669   0.658  0.0832 -0.2299  0.1516
19741W        W37265   7.923  13.858  15.969 -0.1708  0.1543 -0.0571
19742W        W37266  12.927   4.241   2.963  0.1447  0.0753  0.2147
19743W        W37267  15.669  14.017  11.336  0.0640  0.1354 -0.2372
19744W        W37268  13.240   6.812   2.924  0.3295  0.1524  0.1614
19745W        W37269   4.566  15.874  16.194 -0.0911  0.3144 -0.1610
19746W        W37270   9.612  17.775   0.845 -0.1281 -0.2183  0.0712
19747W        W37271   6.749   0.839  15.927 -0.0828 -0.0216  0.1008
19748W        W37272   6.977   5.058  11.370  0.4206  0.0059 -0.1528
19749W        W37273   3.054  13.155  15.194  0.0058  0.0070 -0.0318
19750W        W37274   5.888  10.401  15.603 -0.0020 -0.1156  0.1245
19751W        W37275  16.089  12.060  13.142  0.0248 -0.0108 -0.1094
19752W        W37276   9.270  17.155   1.979 -0.4956  0.0856  0.3398
19753W        W37277  15.303  14.433   0.857 -0.1637 -0.0752  0.2252
19754W        W37278   9.058  15.311  15.033  0.0295  0.0781 -0.3025
19755W        W37279  11.101  11.443  13.250 -0.1395  0.4001  0.1671
19756W        W37280   2.666   9.260   5.239 -0.0787  0.3386 -0.0268
19757W        W37281   7.293  13.781  11.928  0.0202 -0.0775 -0.0104
19758W        W37282   7.666   4.737  13.243 -0.0676  0.3549  0.0469
19759W        W37283   2.563   7.333   3.303 -0.0134 -0.1534  0.0563
19760W        W37284   2.051  10.671   0.702  0.0940  0.0249  0.1994
19761W        W37285  15.076  10.207  16.243 -0.1035 -0.3971 -0.0331
19762W        W37286   3.371  10.992  11.859 -0.0834 -0.0052 -0.3170
19763W        W37287  15.264  13.836  14.258  0.0403 -0.1432 -0.1925
19764W        W37288   2.092  17.305  10.753 -0.1409 -0.0414 -0.1554
19765W        W37289   0.781   4.779   5.256 -0.0963 -0.1149 -0.1089
19766W        W37290  15.396  14.029   5.054  0.0068  0.1697 -0.1197
19767W        W37291   8.509   3.804   3.900 -0.0997 -0.2802  0.1895
19768W        W37292  10.135   4.873  14.123 -0.1122 -0.0396 -0.2600
19769W        W37293   5.351   9.637   2.383 -0.2895  0.1758 -0.1374
19770W        W37294   7.697   3.443  15.477 -0.2700  0.2900 -0.1811
19771W        W37295   4.937   9.136   5.339  0.1227 -0.2221  0.1980
19772W        W37296   8.330  16.820   4.332 -0.1488 -0.0637 -0.2760
19773W        W37297  11.011   0.497  14.983  0.0550 -0.0680  0.0888
19774W        W37298   2.460  17.426  12.340 -0.2329  0.1935  0.3981
19775W        W37299   5.621   9.062   0.289 -0.0334  0.1264  0.1296
19776W        W37300  14.641  10.177  15.978  0.2034  0.0289 -0.1954
19777W        W37301  10.285   7.791   2.111  0.0840 -0.2668  0.2394
19778W        W37302   5.703   2.130   1.336 -0.1637  0.3189  0.3159
19779W        W37303  16.002   5.641   4.170  0.0783  0.2441  0.0406
19780W        W37304  15.292   7.506   0.408  0.0214  0.0051 -0.2176
19781W        W37305   5.497  13.794  15.838  0.1975 -0.2041  0.2841
19782W        W37306   5.549  14.668  11.982 -0.0073  0.3332 -0.3608
19783W        W37307   7.876  15.463   3.543  0.1092 -0.3438  0.0685
19784W        W37308  11.914  17.829  12.049  0.3058  0.1896 -0.0625
19785W        W37309   9.083  15.113   1.699 -0.0104 -0.0192  0.1183
19786W        W37310  16.759   5.167   2.291 -0.1239 -0.2908 -0.2457
19787W        W37311  17.518  13.497   1.404 -0.0210 -0.2855 -0.0257
19788W        W37312   2.042  13.107  16.182 -0.6060 -0.1085  0.1835
19789W        W37313  14.846  10.111  12.880  0.1427 -0.0001  0.0389
19790W        W37314   2.187  12.989   4.063 -0.1210 -0.3671  0.1115
19791W        W37315   6.988   5.065   2.840  0.0148 -0.0770  0.1245
19792W        W37316   0.965   1.089  15.051  0.0753 -0.0240  0.0839
19793W        W37317   0.100   5.888   1.235 -0.1239  0.0609  0.1610
19794W        W37318   6.338  11.544   0.275  0.2477 -0.0359 -0.0128
19795W        W37319  12.090   9.102   0.446 -0.0480  0.2584  0.0752
19796W        W37320  15.131  14.674   4.419 -0.0667  0.3108 -0.2086
19797W        W37321   4.769   8.087  12.538 -0.0192 -0.0678 -0.0052
19798W        W37322  10.024  14.319  13.411 -0.2554 -0.0915  0.2284
19799W        W37323   6.267   0.341   1.531 -0.2341  0.4155  0.1621
19800W        W37324   7.839   0.657   4.223 -0.0547  0.0057 -0.0221
19801W        W37325   4.384  13.146   3.082 -0.1013  0.3781  0.3270
19802W        W37326   0.596  11.208  15.848  0.0683  0.1681  0.5667
19803W        W37327   1.992   5.041  12.789 -0.0067 -0.1694  0.1156
19804W        W37328  10.714   4.128   0.977  0.1384  0.1816  0.2339
19805W        W37329  12.615   1.417  11.987  0.2946  0.1678  0.2232
19806W        W37330   2.925  14.481   4.902  0.1425 -0.2067 -0.2846
19807W        W37331   5.486  15.372  13.608  0.2992 -0.0603  0.2235
19808W        W37332  10.007   7.712   4.762 -0.1821  0.0138  0.2047
19809W        W37333  11.702   8.514  13.874 -0.2530  0.0808 -0.1064
19810W        W37334  10.274  12.573  11.388  0.1501 -0.1191 -0.0003
19811W        W37335  17.729   6.297   1.255  0.2141 -0.0953  0.2345
19812W        W37336  10.891   6.948  14.317 -0.0768 -0.0803 -0.0776
19813W        W37337   6.422  14.648  12.613  0.1355 -0.1680  0.0754
19814W        W37338   3.540  10.831  15.996 -0.4282  0.0911  0.0692
19815W        W37339   0.547  14.156   4.860  0.3066  0.1296  0.1111
19816W        W37340  13.011  17.584   4.454  0.1708  0.2219  0.0204
19817W        W37341   4.479  13.332   2.611 -0.1147 -0.0031 -0.5072
19818W        W37342  10.659   8.615  12.328 -0.2649  0.0251 -0.0773
19819W        W37343  10.329  16.661   2.837 -0.1122  0.1812  0.1675
19820W        W37344   1.946  10.409  15.693 -0.1895  0.1920 -0.0978
19821W        W37345   6.386  17.256  13.511 -0.2164 -0.0174 -0.0857
19822W        W37346   6.699  13.052   0.267  0.2111  0.1107 -0.2251
19823W        W37347   2.471   4.543   0.605  0.0539 -0.1539  0.0503
19824W        W37348  14.174   9.236  11.547 -0.1059 -0.2417  0.2508
19825W        W37349  13.294  15.066  14.070  0.1680 -0.0364  0.0603
19826W        W37350   7.360   7.349  15.996  0.0826 -0.1737 -0.0287
19827W        W37351  14.356   1.247   4.577 -0.0388  0.2140 -0.1977
19828W        W37352  14.463  12.744  15.262  0.0188 -0.1378  0.2582
19829W        W37353   9.812  16.553   1.202  0.0165 -0.1132 -0.1712
19830W        W37354  13.239   2.531   2.340 -0.1354 -0.1662  0.2043
19831W        W37355  17.892   8.248   2.225 -0.0649  0.2426  0.1115
19832W        W37356  17.763   9.370   0.743 -0.2213 -0.0959  0.2982
19833W        W37357  13.761   2.792  13.645  0.1400 -0.0787  0.3851
19834W        W37358   9.021   3.804  14.293  0.0347  0.2888 -0.0424
19835W        W37359   3.430   4.997  12.593 -0.2140 -0.0796 -0.1566
19836W        W37360   0.333  16.787  14.713  0.2229 -0.3099 -0.4361
19837W        W37361   8.770  17.287   1.796  0.4702 -0.3243 -0.1562
19838W        W37362  10.574  11.009  13.666 -0.0505 -0.0305 -0.1530
19839W        W37363  11.103   6.977   1.336  0.1135  0.0531  0.0104
19840W        W37364  12.813   2.342   1.707 -0.1879  0.0421 -0.0207
19841W        W37365   1.158  17.049  14.991 -0.0634 -0.1071 -0.0113
19842W        W37366   9.115  12.008   4.777  0.0926  0.0279 -0.1413
19843W        W37367   3.224   8.293   2.271 -0.0788  0.2351  0.1622
19844W        W37368   5.610  14.963  13.952  0.0561  0.0838 -0.3076
19845W        W37369  10.773   6.198   0.971  0.2151  0.1122 -0.1542
19846W        W37370   4.923   2.978   1.585  0.4470  0.0429  0.1985
19847W        W37371   3.851  10.221  12.240  0.5672  0.2424  0.1870
19848W        W37372   1.571   5.712   2.537  0.1407  0.0145  0.0954
19849W        W37373  14.239   6.805  15.837  0.1853  0.0580 -0.0470
19850W        W37374   0.973  12.503  13.647  0.0146  0.1030 -0.2777
19851W        W37375   3.250  16.768   2.485  0.0434 -0.1461 -0.1805
19852W        W37376  12.691   6.539  12.605  0.1104  0.1621 -0.2572
19853W        W37377  12.663  17.330  12.005 -0.0981 -0.0240  0.0888
19854W        W37378  15.309  15.846   1.907  0.1600 -0.0803 -0.0400
19855W        W37379   7.398  11.861   3.345  0.2530 -0.4451  0.0900
19856W        W37380  11.516   4.620  13.096 -0.1857  0.1534  0.0204
19857W        W37381  14.719   4.124   4.822 -0.1539  0.0310  0.1530
19858W        W37382  15.374   1.815  13.068 -0.3537  0.0835 -0.0733
19859W        W37383  13.703   2.552   3.441  0.0443 -0.0776  0.0890
19860W        W37384   0.935   3.892  16.069 -0.0298  0.3110  0.1527
19861W        W37385   6.448  14.145   3.808 -0.1644 -0.0432  0.1428
19862W        W37386   3.882   9.458   3.449  0.0021 -0.2514  0.1320
19863W        W37387   7.662   0.657  15.439  0.4453  0.3688 -0.1286
19864W        W37388  14.478  14.655   5.918  0.0017  0.0920  0.1668
19865W        W37389  15.821  16.408   4.737 -0.2277 -0.0201 -0.0187
19866W        W37390  13.069   1.801  12.365 -0.1792 -0.1064 -0.3815
19867W        W37391   0.644   9.837  12.451  0.1945  0.1414  0.2256
19868W        W37392   2.724   2.859  11.956  0.0020  0.0455  0.0655
19869W        W37393   1.461  15.656   2.757  0.2738 -0.3014 -0.0127
19870W        W37394  15.736   2.710   3.501  0.1853  0.0897 -0.2154
19871W        W37395  13.721  17.943   1.841  0.1064  0.2226  0.2815
19872W        W37396  12.636   1.422  12.914 -0.0760  0.1296 -0.3301
19873W        W37397   8.298  12.890   0.856 -0.1242  0.1743  0.0841
19874W        W37398   9.758   3.130  15.988  0.1881  0.1509  0.0965
19875W        W37399   2.099   0.432   2.897 -0.2531  0.1549  0.0314
19876W        W37400   5.466  14.508  15.269  0.2424 -0.0767  0.0723
19877W        W37401   9.060   5.087  15.880 -0.2136 -0.1658 -0.1458
19878W        W37402  10.266   3.793  14.244  0.1473  0.1691 -0.2737
19879W        W37403   7.832  17.092   1.862 -0.0735  0.1269 -0.0497
19880W        W37404   9.413  12.226   3.500 -0.0936  0.1723 -0.0143
19881W        W37405  16.329   2.999  11.982  0.4799 -0.0808  0.1241
19882W        W37406  12.174  10.181   0.744  0.0112 -0.1413  0.0485
19883W        W37407  12.680  15.159  14.803 -0.0076 -0.0516 -0.2309
19884W        W37408  11.801  13.792   3.961 -0.2449 -0.2809  0.1569
19885W        W37409   5.544   6.124   1.860  0.0949 -0.3863  0.1383
19886W        W37410  17.942   0.611   4.504 -0.2708 -0.1318 -0.0877
19887W        W37411   5.806  14.110   0.343 -0.0623  0.0811  0.0376
19888W        W37412  13.720  16.928   2.826  0.0042  0.1186  0.3761
19889W        W37413   0.477  10.077  13.654 -0.1368  0.1938  0.0751
19890W        W37414  16.249  17.698  14.805 -0.1061  0.0166 -0.2201
19891W        W37415  11.767   0.160   1.867  0.0318 -0.0057  0.0329
19892W        W37416   0.833   7.828   3.852 -0.2019  0.3669  0.4498
19893W        W37417  12.436   6.208   2.121 -0.0349  0.0425 -0.2758
19894W        W37418  10.562   1.100  13.051  0.0854 -0.2011 -0.0846
19895W        W37419  15.535   5.477   0.545  0.1751  0.0821 -0.0010
19896W        W37420   3.156  15.848  12.811  0.1723  0.0516  0.2544
19897W        W37421  15.094   8.370  14.489  0.3781 -0.2075 -0.1732
19898W        W37422   7.466   0.028   1.333 -0.0694  0.1704  0.0475
19899W        W37423   3.531  15.596   5.108 -0.4016  0.0363  0.0962
19900W        W37424   1.239   0.857  13.701 -0.3231  0.3498  0.0743
19901W        W37425   6.355  15.636  16.238 -0.1133 -0.1105  0.0412
19902W        W37426   8.870   3.032   0.973  0.0304  0.1261  0.1624
19903W        W37427  13.726   0.375  13.767  0.3105 -0.0858  0.0549
19904W        W37428   5.816   1.778  14.269  0.0108 -0.0965 -0.0770
19905W        W37429  14.360   7.862   3.045 -0.2281  0.1389  0.2748
19906W        W37430  12.497  17.632  11.307  0.1808  0.1177  0.0981
19907W        W37431   5.468  16.323  15.553 -0.1703  0.0389 -0.0442
19908W        W37432   3.985  12.759  14.479  0.2036  0.1901  0.0379
19909W        W37433  12.777   1.821   2.781  0.1673  0.1209 -0.0010
19910W        W37434  14.203  14.763   2.535 -0.3318 -0.0497  0.3218
19911W        W37435   9.676  10.799   5.040  0.0082  0.0882  0.1345
19912W        W37436  11.126   5.137  12.359  0.3169 -0.0684  0.0307
19913W        W37437   8.450  12.639   1.352  0.1931 -0.0268  0.2170
19914W        W37438  12.445  14.412  15.601  0.0644  0.1709 -0.1328
19915W        W37439   0.940   8.589  14.504  0.1364  0.2767 -0.1079
19916W        W37440   7.427   6.532  15.691  0.1722 -0.0277  0.0365
19917W        W37441   1.506  12.281  16.209 -0.1031 -0.0585  0.1040
19918W        W37442  15.600  16.783   2.117 -0.1088 -0.0402  0.2343
19919W        W37443   1.018  11.917   0.742  0.0206  0.0695  0.0336
19920W        W37444   3.457  14.436   2.867 -0.0303  0.2960 -0.4439
19921W        W37445   5.414   1.131   3.866  0.0482  0.3710  0.0589
19922W        W37446  17.546   9.475   0.309  0.2177 -0.1553  0.2034
19923W        W37447  13.759  16.567  11.567  0.2860 -0.1654 -0.0117
19924W        W37448   8.236   4.994   3.471  0.0774 -0.0089  0.0853
19925W        W37449   7.092  13.724  14.936 -0.2520  0.1499  0.1132
19926W        W37450  13.869   5.478   1.125  0.0743  0.0008  0.0373
19927W        W37451   8.644  11.509  15.479 -0.0631 -0.1567  0.2725
19928W        W37452   4.459  12.661   1.947 -0.0792 -0.0112  0.2004
19929W        W37453  13.906   6.944  12.615 -0.0408 -0.0221 -0.0081
19930W        W37454  16.449  17.254   1.128  0.0076  0.4975 -0.0718
19931W        W37455   6.562   4.338   2.099 -0.1784 -0.2516 -0.0923
19932W        W37456   6.076   4.519   2.985  0.4699  0.0257 -0.0754
19933W        W37457   1.106  12.981  14.220  0.1877  0.3046  0.0037
19934W        W37458   4.181  14.567   2.567  0.1637  0.1568  0.2922
19935W        W37459  10.649  10.724   1.642  0.0212 -0.2026 -0.3904
19936W        W37460   5.918   3.836  12.485  0.3169  0.1066 -0.0691
19937W        W37461  10.358   2.821  13.844  0.3062 -0.0167  0.0198
19938W        W37462   3.095   2.147  13.255 -0.0134  0.1490 -0.2613
19939W        W37463   2.851  13.509   4.514 -0.0777 -0.1868 -0.3618
19940W        W37464  10.356  12.021   3.515 -0.0530 -0.1897 -0.2930
19941W        W37465   1.244   7.092   0.312 -0.0400  0.4041  0.0722
19942W        W37466   6.891   9.941   2.511  0.2027 -0.1309  0.0856
19943W        W37467  16.734   7.477  10.779  0.1579  0.0099 -0.1847
19944W        W37468  16.198  12.989  15.125  0.0076 -0.0873 -0.0514
19945W        W37469  12.391   4.242  13.001 -0.5369 -0.0220  0.1672
19946W        W37470   8.975   9.219   3.780 -0.0066  0.1340 -0.1328
19947W        W37471  16.221  12.469   2.332 -0.1683 -0.3937 -0.0081
19948W        W37472   7.073  12.749  13.349 -0.0575  0.0376  0.2755
19949W        W37473   9.552   8.014  15.486  0.0877 -0.2098  0.0112
19950W        W37474   4.676   5.507   2.744 -0.4134 -0.2158  0.1283
19951W        W37475   2.467   2.729   3.021 -0.1954 -0.0326 -0.0142
19952W        W37476   2.747  11.798   0.619 -0.1716  0.0914  0.0579
19953W        W37477   5.318   8.520  15.035  0.2631  0.2881  0.0250
19954W        W37478   0.864   0.105   4.687  0.2080  0.2690  0.2620
19955W        W37479   5.100  13.993  16.187  0.0786 -0.0138  0.2791
19956W        W37480   3.347   5.833  13.779 -0.0539  0.0409 -0.1182
19957W        W37481  13.785  11.198   2.419 -0.0614  0.0372 -0.0900
19958W        W37482  10.165  11.345  15.486  0.4076 -0.1638  0.0306
19959W        W37483  16.044  13.759  13.661 -0.0729 -0.2293  0.1247
19960W        W37484   5.640   6.761   3.842  0.0926  0.0846  0.2061
19961W        W37485   7.287   8.838  14.779  0.0776 -0.2556 -0.1012
19962W        W37486   0.726   0.405   3.083 -0.0654 -0.1786  0.3933
19963W        W37487   2.402  17.195   1.726  0.0289  0.0791 -0.1383
19964W        W37488  10.525   0.203   3.169  0.3302  0.2763 -0.0832
19965W        W37489  16.390   4.343  12.087 -0.0697 -0.4105  0.0951
19966W        W37490   5.131   1.340  14.562  0.1860 -0.2710 -0.0826
19967W        W37491  11.854  17.373   4.084 -0.2763 -0.0946 -0.3554
19968W        W37492   2.174   3.351   1.178 -0.0225 -0.0744 -0.1839
19969W        W37493  15.929  12.060  15.738  0.2276  0.3693  0.0108
19970W        W37494   5.009   6.704   3.073 -0.3308 -0.0436 -0.2146
19971W        W37495   0.032  17.581  15.432 -0.0614 -0.2007 -0.0636
19972W        W37496  12.465   7.192   3.465  0.0997 -0.1170 -0.1025
19973W        W37497   8.978  13.032   2.091 -0.0809  0.1862  0.1897
19974W        W37498   3.616   5.438   0.203  0.0110 -0.1985  0.2697
19975W        W37499   5.400  16.387  15.018  0.0524 -0.2402  0.0124
19976W        W37500   6.563  16.530   0.109  0.1027 -0.1193 -0.0586
19977W        W37501  12.440  13.264   4.709 -0.0343  0.1000 -0.0150
19978W        W37502   8.126  16.031  16.248  0.0302  0.1752  0.0135
19979W        W37503  17.362   0.545  11.539  0.0177 -0.2306 -0.2509
19980W        W37504  16.264   1.969   1.561  0.1170 -0.1664 -0.0605
19981W        W37505   4.889  11.212   2.191 -0.0650  0.1786 -0.0825
19982W        W37506  17.781   8.218  12.239  0.2629  0.0338 -0.2941
19983W        W37507  13.920   0.458  11.233  0.0508 -0.0926 -0.2719
19984W        W37508  12.991   7.086   2.150  0.1400  0.0010  0.0469
19985W        W37509  13.329   2.721  12.780 -0.0283  0.0479 -0.0108
19986W        W37510  16.867  13.738  12.093  0.0104  0.1328 -0.0115
19987W        W37511   9.339   9.567  14.429  0.0248 -0.0821  0.0527
19988W        W37512  15.547   0.189  13.952  0.1080 -0.1408 -0.0764
19989W        W37513   8.726  14.146  15.488 -0.0352  0.0422  0.0327
19990W        W37514  11.821   7.209  14.607  0.1468 -0.1333  0.1325
19991W        W37515  15.717   2.524  12.113 -0.1499  0.0556  0.2556
19992W        W37516   4.323   7.317  11.856  0.1842  0.1398 -0.0926
19993W        W37517   3.895   1.787   4.048  0.3196  0.1412  0.1004
19994W        W37518   8.415  11.912  15.698 -0.1829 -0.3776 -0.0212
19995W        W37519  10.127  11.806   1.859  0.0579  0.1005  0.3448
19996W        W37520   2.466   7.581   1.384 -0.1609 -0.2361  0.0461
19997W        W37521  12.520   0.151  13.950 -0.1446 -0.2003 -0.1480
19998W        W37522   0.160  14.772  15.070  0.2560 -0.0522  0.1345
19999W        W37523   4.276   1.175  12.647 -0.0925 -0.0891  0.0432
20000W        W37524  14.961  15.610  16.125  0.0651  0.2634  0.0543
20001W        W37525   0.472   6.581  12.750  0.0212 -0.1003  0.3582
20002W        W37526   4.200  11.300   0.548 -0.1808  0.2078  0.0675
20003W        W37527   0.001  10.152   4.642 -0.5593 -0.0886  0.0507
20004W        W37528  15.673  13.521   5.120  0.3904 -0.3566 -0.0723
20005W        W37529   0.837  11.670   2.727 -0.0403  0.0094 -0.0742
20006W        W37530  12.508  17.096  12.420  0.1092  0.0547  0.4221
20007W        W37531  14.001  12.393  11.525 -0.1498 -0.0045  0.3265
20008W        W37532   4.705   9.675  10.973 -0.0907  0.0496  0.1534
20009W        W37533  15.072   0.072   0.550  0.1862  0.1069  0.0815
20010W        W37534   2.251  10.853  16.059 -0.3515  0.1249  0.1921
20011W        W37535   6.896  16.869   2.117  0.0337 -0.0986  0.2361
20012W        W37536   0.277  14.317   1.717 -0.0857 -0.2249 -0.1546
20013W        W37537   6.043   5.055  14.486 -0.0416  0.2600 -0.4005
20014W        W37538  15.057  17.545  13.744 -0.1447 -0.1153 -0.0930
20015W        W37539   2.544  13.972   4.692 -0.0822 -0.3348  0.2898
20016W        W37540   6.545  12.203   0.331  0.1639 -0.0321 -0.0798
20017W        W37541  16.836  16.316   1.698 -0.3538 -0.0029  0.1855
20018W        W37542   5.608   8.859   2.916  0.0005 -0.0555  0.0845
20019W        W37543   5.687  13.368  15.633 -0.0081 -0.1414 -0.0035
20020W        W37544   8.276   8.876  14.917 -0.0850 -0.0416 -0.3269
20021W        W37545   6.057   8.797  11.889  0.1743  0.4029 -0.1593
20022W        W37546   7.349   9.092  13.473 -0.3437 -0.3325 -0.1090
20023W        W37547  14.247  12.812  15.878 -0.2499  0.2481  0.1018
20024W        W37548   3.292   3.246   3.592 -0.0139  0.1052  0.1392
20025W        W37549   8.837  17.380  15.451  0.0110  0.0413 -0.0202
20026W        W37550  17.636  13.544  14.866 -0.1853  0.4669 -0.0575
20027W        W37551  14.300  17.320  11.703  0.2478 -0.0075  0.0424
20028W        W37552   1.356  10.857   4.641  0.1540  0.0933  0.2129
20029W        W37553  13.465  13.069   1.955 -0.2114 -0.1679 -0.1304
20030W        W37554  14.958   4.327   0.088  0.0308 -0.1532  0.0293
20031W        W37555  13.004   3.235  14.969 -0.1851 -0.2567 -0.1608
20032W        W37556   2.490  10.362   3.922 -0.0766  0.0395 -0.3290
20033W        W37557  17.949   9.211  11.203 -0.0908 -0.2052 -0.1113
20034W        W37558  10.636   7.907  13.391 -0.2564 -0.0938 -0.5673
20035W        W37559  12.884   8.864   1.474 -0.2335  0.1404 -0.0569
20036W        W37560   5.424  17.352   0.997 -0.0863  0.1295  0.3975
20037W        W37561   4.369   4.247   2.562 -0.0393 -0.0532  0.2299
20038W        W37562   9.943  16.709  11.129  0.2089 -0.0426 -0.0569
20039W        W37563  13.922  13.228   1.882  0.1039  0.2136 -0.1008
20040W        W37564  10.232  13.053   0.089  0.2502  0.1866  0.0540
20041W        W37565   1.241  12.023  14.288 -0.1931  0.2232 -0.1873
20042W        W37566  15.631  13.113  12.756 -0.2809 -0.3466  0.0280
20043W        W37567  16.172   1.098   3.132 -0.0778 -0.2211 -0.2773
20044W        W37568  14.911  15.100   3.674 -0.0860  0.0111  0.1536
20045W        W37569   6.851   7.406   2.061  0.0174 -0.0009  0.2841
20046W        W37570  12.680  15.989   1.802 -0.0206  0.0232 -0.1989
20047W        W37571   7.963  10.260   0.205 -0.2462  0.1101  0.0769
20048W        W37572   7.807   2.446   1.323 -0.2806 -0.0316  0.2066
20049W        W37573  14.614   1.400   2.176  0.1409 -0.1643  0.0752
20050W        W37574   7.649  17.312   2.440 -0.0708  0.1389  0.1441
20051W        W37575   7.026   7.016   4.748  0.0205  0.1504 -0.1286
20052W        W37576  14.969  17.826   4.835  0.0080 -0.0899 -0.1019
20053W        W37577  15.933   6.355   3.285 -0.0256 -0.0212 -0.1598
20054W        W37578   2.028  10.403   3.759  0.1502  0.1108  0.0822
20055W        W37579  11.183  11.280   4.070 -0.4462 -0.0827  0.2406
20056W        W37580  15.421   9.293  11.024  0.0611  0.3325 -0.1493
20057W        W37581  12.044   7.363  14.168  0.1571 -0.2096  0.2219
20058W        W37582   3.102   9.669  15.458 -0.2379  0.1710  0.0596
20059W        W37583   9.773  15.474  14.502 -0.0895 -0.0200  0.0315
20060W        W37584  15.306   3.301  15.690  0.1645 -0.0348 -0.2116
20061W        W37585   2.668   1.093   4.329  0.0389  0.0670 -0.2141
20062W        W37586   3.649  10.868  14.956  0.0995 -0.1953 -0.0889
20063W        W37587   1.483   7.723   1.524 -0.1270  0.0579 -0.3295
20064W        W37588  15.626  11.494  13.263 -0.0238 -0.1571 -0.1061
20065W        W37589  11.994   7.966  11.265 -0.2378  0.0499  0.0980
20066W        W37590   8.489  13.829   0.455 -0.0855  0.1286  0.0918
20067W        W37591   2.088   2.715   0.581 -0.1767  0.4439 -0.0545
20068W        W37592  14.932  10.573   5.177 -0.0893 -0.3886  0.0020
20069W        W37593  15.915   3.202   4.767  0.0081 -0.0656  0.0121
20070W        W37594   6.375  13.666   2.297  0.0841  0.0515 -0.2021
20071W        W37595  12.199  11.885   1.386  0.1031  0.1233 -0.0811
20072W        W37596   4.282   1.207   0.286 -0.0787 -0.2163  0.0910
20073W        W37597  15.287  17.230  11.651 -0.2562  0.4408 -0.1559
20074W        W37598   6.237   2.894   0.164 -0.1134 -0.1845 -0.1057
20075W        W37599   3.726   7.774   4.203 -0.2626  0.3820 -0.2600
20076W        W37600  16.314  14.638  11.701 -0.1272 -0.1513  0.0510
20077W        W37601   7.136  13.941  12.669 -0.1626 -0.0402  0.1214
20078W        W37602  10.747   0.557  12.872  0.2921  0.2748 -0.1560
20079W        W37603  16.936   6.428  14.209 -0.2020  0.1984 -0.2537
20080W        W37604  12.398   6.945   4.171  0.0659 -0.0162  0.0682
20081W        W37605   3.545   1.020   2.541 -0.0889  0.0030  0.1502
20082W        W37606   1.891  11.877   3.007  0.2131  0.4160 -0.1002
20083W        W37607   2.875  12.217   0.866  0.0125 -0.1635 -0.0754
20084W        W37608   4.708   0.900   0.391  0.1198  0.0212  0.0866
20085W        W37609  17.812   2.824   0.878 -0.1324  0.0461  0.1049
20086W        W37610   0.648   1.477  15.892  0.0560  0.2134  0.1197
20087W        W37611   9.840  11.740  13.731  0.0473  0.0968 -0.0332
20088W        W37612  10.873   5.775   0.641 -0.1561 -0.1768 -0.0239
20089W        W37613  16.578  15.988  11.746  0.2811  0.1228 -0.0883
20090W        W37614   6.923   5.206   4.529 -0.2634  0.1327  0.1445
20091W        W37615   8.307   0.966  13.205  0.0075 -0.3817 -0.0010
20092W        W37616   7.247   5.521   2.967 -0.2039 -0.0421 -0.0826
20093W        W37617  11.186   8.656  13.702 -0.1024 -0.1427  0.4014
20094W        W37618  12.189   4.198  11.937  0.0262  0.1496  0.1592
20095W        W37619  17.548   3.525   0.539 -0.1653 -0.1213  0.0154
20096W        W37620  17.580   5.037  13.455 -0.0875  0.2915  0.0423
20097W        W37621  11.571  13.361   2.260  0.0811 -0.0432  0.1237
20098W        W37622  10.940   7.277  10.925 -0.1332 -0.0529  0.0137
20099W        W37623   6.239  14.280  13.022  0.1745 -0.2462  0.2879
20100W        W37624  13.960  15.034  15.812 -0.4195  0.0608 -0.0127
20101W        W37625  13.893   0.511   4.055 -0.1797 -0.2323  0.0664
20102W        W37626  14.891   7.167  11.579 -0.0481  0.0837  0.0045
20103W        W37627   1.774  16.779  16.197  0.1262  0.0696  0.2316
20104W        W37628  15.998   1.804  12.468 -0.2013  0.0381 -0.0945
20105W        W37629   7.626   8.865  13.030 -0.0560  0.0457 -0.0867
20106W        W37630   2.720  14.930  12.875  0.1605  0.2186  0.1005
20107W        W37631   0.256  11.048  15.275 -0.2795  0.1476  0.2930
20108W        W37632   7.669  17.545   4.470  0.0791 -0.3457  0.0082
20109W        W37633  13.745  13.808  13.819  0.1898 -0.0457  0.2090
20110W        W37634  17.080   9.207   0.209 -0.0888 -0.3134 -0.0753
20111W        W37635  13.138  16.134   1.515 -0.0977  0.1065  0.2492
20112W        W37636   2.325  10.878   3.100  0.2993  0.1637 -0.0611
20113W        W37637  11.464  17.767   5.451  0.0596  0.3220  0.0329
20114W        W37638  14.458  11.363   3.191 -0.1544 -0.0602  0.0882
20115W        W37639  12.775   6.320   1.410  0.0960  0.0959  0.1527
20116W        W37640   5.586  13.548   3.969 -0.1580 -0.1957  0.1301
20117W        W37641   9.682  13.610  13.173 -0.2653 -0.2611 -0.0957
20118W        W37642   1.345   7.515  11.818  0.1471  0.0798  0.2706
20119W        W37643   2.586  16.538   3.704  0.0467  0.1538  0.0328
20120W        W37644  10.017   4.269   0.830  0.0978 -0.1543 -0.0589
20121W        W37645   5.844   2.704  13.946  0.0954  0.3667  0.2221
20122W        W37646   2.746   9.605   0.981 -0.2712 -0.0387  0.3800
20123W        W37647   4.514  17.765   3.809  0.4519 -0.0135  0.0319
20124W        W37648   1.199   0.566   3.013  0.1226  0.2525 -0.0614
20125W        W37649   5.735  10.017  15.322  0.2147 -0.1847 -0.0208
20126W        W37650  12.224  16.738  13.338 -0.0161 -0.0795  0.1451
20127W        W37651  11.336  15.499   1.347  0.0183  0.0402 -0.1422
20128W        W37652   3.216  12.844  13.096  0.0875  0.1755  0.1146
20129W        W37653   5.802   9.421  12.365  0.0352 -0.0345  0.1265
20130W        W37654   1.530   9.739   3.293  0.1113 -0.0202 -0.3884
20131W        W37655  14.640  14.121   0.546  0.1533  0.0926  0.2866
20132W        W37656  16.002   2.465   2.195  0.1102 -0.0702  0.0025
20133W        W37657   7.691   2.057  14.260  0.0634 -0.0777 -0.0604
20134W        W37658   2.690   8.015   5.978  0.0167  0.0295  0.1436
20135W        W37659   0.407  12.975   1.603 -0.0933 -0.3018  0.2366
20136W        W37660   1.816   0.102   1.661  0.1623  0.1923 -0.0992
20137W        W37661   5.740   6.315   0.826 -0.2292 -0.0397  0.1391
20138W        W37662   3.935   3.197   4.220  0.1472 -0.0342 -0.4711
20139W        W37663   6.372   3.594   0.911  0.1046 -0.2189 -0.3206
20140W        W37664   6.673   9.636  14.003 -0.3237 -0.0712  0.0195
20141W        W37665   6.612  14.410   3.269 -0.0137  0.3205 -0.1272
20142W        W37666   6.415  10.785  13.137  0.0280  0.1104  0.0961
20143W        W37667  12.313  14.761   4.537  0.1631  0.0965 -0.3678
20144W        W37668   8.796  16.656  12.007  0.0151  0.1775 -0.0364
20145W        W37669   0.728   2.819  11.833  0.0900  0.1451 -0.0994
20146W        W37670  15.791   3.309  12.744 -0.0584 -0.4369  0.1832
20147W        W37671  13.645   5.923   1.539 -0.1212  0.1014  0.0061
20148W        W37672   9.654  16.364  14.727  0.0195 -0.1703 -0.0675
20149W        W37673   2.412   0.213  12.790 -0.0994 -0.1437 -0.0449
20150W        W37674   5.394  16.778   2.964  0.0977  0.1938  0.1204
20151W        W37675   3.490  17.653  14.034 -0.1675 -0.1779  0.2236
20152W        W37676   4.840   2.077   5.083  0.0696  0.0770  0.1647
20153W        W37677  10.992  16.191   1.038 -0.1588  0.2476 -0.0235
20154W        W37678  12.692  15.908  14.031  0.0338 -0.0919  0.3470
20155W        W37679  13.641  10.396  13.752  0.0638  0.1123 -0.0613
20156W        W37680   7.237   3.258  13.172 -0.0575  0.0883  0.1470
20157W        W37681   0.150  17.045  13.464 -0.0384 -0.2040 -0.3099
20158W        W37682  11.319   6.757   2.589  0.1946  0.0229  0.0016
20159W        W37683  11.225   1.409  14.466 -0.1201  0.0512 -0.0178
20160W        W37684   2.720   3.484  15.143 -0.0498 -0.2593  0.1890
20161W        W37685   3.487   9.565  15.119  0.1050 -0.3002  0.1574
20162W        W37686   3.935   5.178   0.920  0.0158  0.1256 -0.2074
20163W        W37687  17.763   0.843  14.731  0.1415 -0.3008 -0.0259
20164W        W37688  17.518   0.561  15.896 -0.2982  0.1816 -0.2064
20165W        W37689   2.193  14.775  14.107 -0.0906 -0.1039  0.2064
20166W        W37690   2.515  15.871  13.070  0.0129  0.1777  0.1470
20167W        W37691   0.556   3.199  15.457  0.1412 -0.0283 -0.0127
20168W        W37692  15.021   2.173  13.376 -0.0583 -0.1601  0.0804
20169W        W37693  16.106   1.135  13.014 -0.0216  0.0666  0.1211
20170W        W37694  14.188  10.396   3.404 -0.0310 -0.1431 -0.2724
20171W        W37695   4.761  13.686   4.866 -0.1281  0.0954  0.2159
20172W        W37696  15.438   6.434  11.943 -0.0811  0.0179 -0.1171
20173W        W37697  13.222   2.885  11.318 -0.0690 -0.1733 -0.0842
20174W        W37698   6.645  13.876  14.150 -0.0841  0.1501 -0.0950
20175W        W37699  15.984  15.869  15.035  0.1749 -0.0636 -0.2753
20176W        W37700   8.303   0.695  11.535 -0.3464  0.0532 -0.2317
20177W        W37701  12.998  14.826   3.564 -0.1804 -0.0296 -0.1439
20178W        W37702   4.129   5.638  10.527  0.0868  0.2135  0.1264
20179W        W37703   6.105   6.408   4.048  0.1163 -0.2664  0.2950
20180W        W37704   4.216   3.172  15.215 -0.2137 -0.0063 -0.2706
20181W        W37705  11.631  11.589   1.635 -0.0589 -0.0457 -0.1224
20182W        W37706   6.004   3.190  15.157 -0.1260 -0.1341  0.0722
20183W        W37707  10.473   8.600   2.607 -0.0401 -0.2227  0.1630
20184W        W37708  14.179   8.362   0.093  0.2681 -0.0542  0.3172
20185W        W37709   2.483   6.910   0.258  0.1660  0.0771 -0.1448
20186W        W37710  11.390  13.644  12.324 -0.0769  0.0454  0.0587
20187W        W37711   3.636  15.200   1.632  0.0768 -0.2984  0.1053
20188W        W37712   1.171   0.640   0.665 -0.0915 -0.1207 -0.0515
20189W        W37713   5.563   9.518  11.701 -0.4156  0.0232  0.2380
20190W        W37714   6.406  12.778  12.113  0.1080  0.0887 -0.0064
20191W        W37715  16.913  16.833   1.728 -0.0356  0.0231 -0.2427
20192W        W37716   0.063   9.175  15.671  0.1603  0.2257 -0.1858
20193W        W37717   8.128  15.775   2.601 -0.0211 -0.0806 -0.0417
20194W        W37718   3.715  15.315  12.770  0.0515  0.1037  0.2111
20195W        W37719   7.808  15.891  11.316 -0.3680  0.1054  0.3344
20196W        W37720   2.888   1.490  11.702 -0.1057  0.0525 -0.0430
20197W        W37721  11.962  13.356  14.122  0.0344 -0.0821 -0.0399
20198W        W37722   9.937  14.306  14.377  0.0204  0.0902  0.0360
20199W        W37723   7.284  11.875   6.047  0.0959 -0.0194 -0.0863
20200W        W37724   7.674  14.621   2.513  0.1797  0.1148  0.0609
20201W        W37725  17.697   4.182  13.607 -0.3558 -0.1102 -0.0660
20202W        W37726   8.049   9.649  12.630  0.0557  0.0023 -0.4452
20203W        W37727   5.360  16.198   5.197 -0.1197  0.2387 -0.1729
20204W        W37728   5.328   2.492  14.597  0.1680 -0.0901 -0.0194
20205W        W37729   0.996   8.189  14.101 -0.0963 -0.0604  0.2126
20206W        W37730  10.634  12.185   2.256 -0.0207  0.2659  0.2645
20207W        W37731   9.607   0.767  11.359 -0.4635 -0.2662  0.1193
20208W        W37732  15.883   8.518  13.978  0.0195  0.3461 -0.0814
20209W        W37733   5.636   8.615   1.298  0.0042 -0.1149  0.0227
20210W        W37734   9.229  16.124  14.873 -0.3161 -0.1035 -0.0752
20211W        W37735   3.236   0.893  13.515 -0.0151  0.1540  0.1483
20212W        W37736  15.747  16.147   0.013  0.3092  0.1209  0.3069
20213W        W37737  14.839   7.633   3.122  0.1524  0.0825 -0.0978
20214W        W37738   7.748  14.432  13.257 -0.1577 -0.2728 -0.1236
20215W        W37739   3.420   6.291   4.243  0.2537  0.0028  0.1113
20216W        W37740   0.286   5.893  12.706 -0.0053 -0.2208  0.0011
20217W        W37741  12.082   7.205  13.010 -0.1485 -0.2215  0.0062
20218W        W37742   9.748   2.832   0.793  0.1818 -0.1850 -0.2459
20219W        W37743   2.654   9.319   3.994 -0.3414 -0.1783 -0.1012
20220W        W37744  10.161   9.791  15.253 -0.0036 -0.1595 -0.0780
20221W        W37745   6.233  16.029   5.098 -0.1970 -0.1987 -0.2145
20222W        W37746  12.960   6.995   3.376 -0.2300 -0.1671  0.2803
20223W        W37747  14.711   0.839  11.748  0.0060  0.0872  0.1308
20224W        W37748   7.705  15.346  12.390 -0.0115  0.1923  0.3700
20225W        W37749   1.076   3.687   3.034 -0.0487  0.1598 -0.3547
20226W        W37750  12.416  11.650  15.604  0.0660 -0.2675 -0.0040
20227W        W37751   1.487   8.343  11.315 -0.3550 -0.1685  0.3554
20228W        W37752   7.547   7.957   1.650 -0.0513 -0.1133  0.1193
20229W        W37753   7.009  16.298  14.692 -0.0543 -0.0470  0.2626
20230W        W37754   2.574  10.272   4.472 -0.2502  0.3663  0.1780
20231W        W37755   8.631  12.162  13.675 -0.3573  0.0236  0.1020
20232W        W37756  15.890   3.771   4.838  0.0722  0.2022  0.0242
20233W        W37757  12.768   3.626   4.571  0.1435  0.2604 -0.1134
20234W        W37758   8.160   7.914   4.119 -0.3509  0.0112 -0.3842
20235W        W37759  13.843   4.692   4.701  0.1546 -0.0796  0.2112
20236W        W37760   7.597  13.704   2.566 -0.0322 -0.1449  0.1472
20237W        W37761  13.522  15.597  14.086 -0.2112 -0.3587  0.0384
20238W        W37762  11.625  14.373   3.106  0.1479 -0.2439  0.1171
20239W        W37763  11.625   0.335  13.257 -0.1486 -0.0751 -0.3880
20240W        W37764   7.857  16.371  15.475 -0.0892  0.2266 -0.1156
20241W        W37765   0.842   6.154   2.259 -0.0393 -0.0120 -0.0121
20242W        W37766   4.502   1.031   2.071  0.0904 -0.1955 -0.2070
20243W        W37767  14.205   8.824  15.975  0.0921 -0.0316 -0.2212
20244W        W37768   2.132   8.974   1.536  0.0086  0.0208  0.1275
20245W        W37769   3.696  11.620  10.703 -0.2799  0.2703  0.0702
20246W        W37770  11.997  10.972   1.558  0.0701 -0.0608 -0.1541
20247W        W37771   5.116  13.665   3.905 -0.0287  0.1186 -0.1873
20248W        W37772   1.092  12.589   2.327 -0.1791  0.1645  0.1324
20249W        W37773   2.370   9.446   1.759  0.0039 -0.0592 -0.4737
20250W        W37774   5.023  15.553  12.915  0.0068 -0.2409  0.0516
20251W        W37775   2.960   5.831  11.192  0.1407  0.1149 -0.2923
20252W        W37776  17.887  14.463  12.320  0.0225 -0.4419 -0.2368
20253W        W37777   7.886  14.765  15.133 -0.1597  0.0540  0.0735
20254W        W37778   0.769  14.040   2.350  0.0968 -0.2293 -0.0101
20255W        W37779   4.621  12.082  15.416  0.0456 -0.2250 -0.0341
20256W        W37780  15.323   5.206  13.144  0.0397  0.0865 -0.0578
20257W        W37781  12.831   0.496   1.106  0.0456 -0.1058  0.0114
20258W        W37782  10.538   5.390   5.616  0.1539  0.1469 -0.1312
20259W        W37783   6.514  16.587   1.423 -0.2780  0.1449 -0.1651
20260W        W37784   5.367  16.926   5.578  0.0689 -0.1702  0.1092
20261W        W37785   3.283   4.805   2.934 -0.2175 -0.0958 -0.0983
20262W        W37786   5.885  11.149  12.468  0.1224 -0.0707  0.0784
20263W        W37787  11.684   5.647  15.293 -0.0122  0.3184  0.1001
20264W        W37788  17.436   7.696   1.233  0.0689  0.0949 -0.0432
20265W        W37789   0.170  10.489  11.795 -0.1517  0.2001 -0.1369
20266W        W37790   4.722  10.990  14.694 -0.4098 -0.0441  0.1682
20267W        W37791   0.992  17.931   3.086 -0.0689 -0.1832 -0.0246
20268W        W37792   8.671   9.057  10.999 -0.0254 -0.1043  0.0047
20269W        W37793   8.070   2.720   3.008  0.0374 -0.1672 -0.3216
20270W        W37794   8.819   1.948   2.642 -0.3808 -0.0857 -0.0066
20271W        W37795   6.000  14.923  14.723 -0.0086  0.0395  0.1117
20272W        W37796   8.818  15.167  13.231  0.1958  0.1292  0.1833
20273W        W37797   6.503   1.276  10.875 -0.0572  0.0468  0.0556
20274W        W37798  11.092   1.977   1.655  0.1840  0.0441 -0.2671
20275W        W37799  10.514  16.300   1.121 -0.1346  0.3587 -0.3519
20276W        W37800   2.026   7.036   2.512  0.0774  0.2182  0.1485
20277W        W37801   0.672   5.388  15.243  0.3763 -0.1108 -0.0811
20278W        W37802   1.941   1.761  12.685 -0.0604 -0.2945 -0.1035
20279W        W37803   9.455   4.062  12.838  0.3193 -0.0922 -0.0502
20280W        W37804  16.922  11.523   3.001  0.0326  0.0955  0.0347
20281W        W37805   5.888  10.926   1.486 -0.2857  0.0101  0.2331
20282W        W37806  10.211   0.213   1.776 -0.0056 -0.1474 -0.4683
20283W        W37807  15.596   7.873   5.300 -0.3020  0.2031 -0.2139
20284W        W37808  13.321  15.596   0.424  0.0705 -0.0110 -0.0667
20285W        W37809  16.059   1.752  11.051  0.0306  0.3132  0.0120
20286W        W37810  14.345   7.789  13.280  0.5624  0.4186  0.2677
20287W        W37811  13.564  14.331   2.146 -0.0722 -0.0854 -0.2089
20288W        W37812   5.136   9.908   0.460 -0.0985  0.0344  0.1422
20289W        W37813   0.166   8.462  11.953 -0.0476  0.0768 -0.2332
20290W        W37814   8.513  16.053  15.865  0.0049 -0.0694  0.3364
20291W        W37815  11.291  14.871   1.313 -0.0659 -0.1641  0.0443
20292W        W37816   0.006  16.183   0.921  0.0784 -0.1002  0.2162
20293W        W37817   5.729   6.583   4.954  0.4578  0.2848 -0.0136
20294W        W37818   1.967   4.978  15.989  0.2185  0.0553  0.1309
20295W        W37819  15.057   9.250  15.015  0.0675  0.2431 -0.0090
20296W        W37820  13.459   6.142  12.326  0.0226 -0.2042  0.0621
20297W        W37821  12.093  10.362   4.357  0.0565 -0.0244 -0.0950
20298W        W37822  12.002   5.375   3.250  0.4349  0.4613 -0.0221
20299W        W37823  11.940   6.506   1.378 -0.0075 -0.1041 -0.0833
20300W        W37824   7.589   2.913   0.092 -0.0583  0.2895 -0.3733
20301W        W37825   3.350  10.433   3.441 -0.1523  0.0115 -0.0648
20302W        W37826   4.981  14.762   2.815  0.0891  0.3833 -0.1405
20303W        W37827  13.456  11.777  10.417  0.2761  0.0910  0.0036
20304W        W37828  13.311  16.398  15.603 -0.0092 -0.0560  0.1954
20305W        W37829   8.864  16.507  15.817 -0.0378  0.3056  0.1518
20306W        W37830   5.128  16.729   1.661 -0.0441  0.0686 -0.2978
20307W        W37831  12.332   4.178   3.770  0.1264  0.2052  0.0781
20308W        W37832   6.458   5.870   2.753 -0.1995  0.1492 -0.2650
20309W        W37833  13.447  13.834   2.296 -0.1108  0.2850 -0.3263
20310W        W37834   0.911   5.627   2.514  0.0526 -0.0774  0.0535
20311W        W37835   6.818   6.092  16.148  0.1165  0.3598 -0.0693
20312W        W37836   1.829   9.331  11.797  0.0494 -0.1051 -0.1736
20313W        W37837  12.628   1.182   0.768 -0.1330 -0.2870  0.1085
20314W        W37838   0.498  10.930  12.537 -0.1232  0.2494  0.0683
20315W        W37839   7.725  16.775  10.643  0.0550 -0.1492 -0.0094
20316W        W37840   8.635   5.533  11.338 -0.0979  0.3170  0.3383
20317W        W37841  10.267   4.946  13.648  0.0792  0.1183  0.0909
20318W        W37842  14.313   1.185  15.588 -0.3099 -0.0590 -0.0175
20319W        W37843   1.027   3.218  15.226  0.1277  0.1675  0.3471
20320W        W37844   2.149  17.674  13.710 -0.1889  0.5290 -0.2920
20321W        W37845  14.535   4.404  12.232  0.0151 -0.1841  0.0898
20322W        W37846   2.175   0.668  12.678 -0.1445  0.0214  0.1333
20323W        W37847  16.702   8.607   2.763  0.0909  0.0436  0.0399
20324W        W37848   6.335   8.010   0.852 -0.0879 -0.1088 -0.0248
20325W        W37849  11.026   3.094  12.233 -0.0228 -0.2413 -0.1764
20326W        W37850   6.714  15.625   0.568 -0.0443 -0.0769  0.1096
20327W        W37851   1.921  13.817  13.649 -0.0319  0.0947  0.1556
20328W        W37852  14.531   4.542  13.151  0.1439 -0.3030  0.1211
20329W        W37853  15.968  16.189   0.536  0.1054 -0.1928  0.1540
20330W        W37854   4.613  16.891  12.678  0.0388 -0.1424 -0.0070
20331W        W37855   1.851   2.274   2.586  0.2619  0.0833 -0.3625
20332W        W37856   5.044  15.916   0.502 -0.0322  0.1421 -0.1767
20333W        W37857   9.491   1.008   3.689 -0.0554  0.0571  0.0002
20334W        W37858  13.066   8.901  12.295 -0.0095  0.0653  0.0697
20335W        W37859   3.895  10.823   0.638  0.1809  0.0725 -0.2082
20336W        W37860  14.942  14.983  15.131  0.1065 -0.1517 -0.1807
20337W        W37861  17.955   3.621  12.426 -0.1128  0.1564 -0.0150
20338W        W37862  17.291   4.301  12.182 -0.1592 -0.2632  0.4645
20339W        W37863   4.623   5.893   4.411 -0.1191 -0.1423 -0.1442
20340W        W37864  11.019   9.977  11.890 -0.0210  0.4230  0.2010
20341W        W37865   1.142   4.993   4.873  0.0369 -0.0462 -0.0504
20342W        W37866   4.314   7.558   0.008 -0.0278 -0.0747  0.1408
20343W        W37867   3.477  15.602  14.048 -0.0097  0.1831  0.0481
20344W        W37868   9.030  14.183   5.723 -0.1245 -0.2524 -0.0140
20345W        W37869  13.179  15.176  11.947  0.2752  0.2085 -0.0289
20346W        W37870   2.611  13.383  12.632  0.0802  0.0544  0.0462
20347W        W37871  17.393   5.945   3.039 -0.0529 -0.0920 -0.0475
20348W        W37872  12.696  14.023   1.825 -0.0388 -0.0933  0.0204
20349W        W37873   7.402   4.844  11.894  0.0748  0.0807 -0.1959
20350W        W37874  17.576  10.582  13.887  0.0015  0.1182  0.3127
20351W        W37875  10.236   7.807   2.966 -0.0822  0.2010  0.2404
20352W        W37876  13.227  17.407   2.194  0.1968  0.0180 -0.0129
20353W        W37877   7.337  14.788   1.355 -0.0257 -0.0161  0.1326
20354W        W37878  15.494   2.912  12.419  0.0204  0.1257  0.0109
20355W        W37879   1.742  11.726  14.730 -0.1936 -0.0463  0.1685
20356W        W37880  16.922   7.299  14.832  0.0329  0.1665  0.0610
20357W        W37881   3.986   6.594  16.050  0.2649  0.1173  0.0945
20358W        W37882   1.965  17.689   1.279  0.1161  0.1960  0.1494
20359W        W37883   8.346  11.656  12.314  0.0665  0.1404  0.0510
20360W        W37884  10.963   9.750   4.453 -0.0821 -0.2191 -0.1723
20361W        W37885  17.499   2.189  13.528  0.0920  0.0204  0.2025
20362W        W37886  11.421   3.394   4.488  0.0032  0.1121 -0.0884
20363W        W37887  15.917   1.913   0.616 -0.1599  0.0856  0.1811
20364W        W37888   0.231  10.838  15.754 -0.0237  0.0267  0.0794
20365W        W37889  15.247   8.849  14.454 -0.0164  0.1084 -0.2538
20366W        W37890  16.545  13.910  14.609 -0.1964 -0.1910  0.3598
20367W        W37891  17.696  11.711  15.970  0.3265 -0.2990  0.0155
20368W        W37892   3.593   6.002  14.218  0.0399  0.3048  0.1458
20369W        W37893  16.431  10.764  16.233  0.1340 -0.1733  0.0013
20370W        W37894   9.986   6.639  11.988  0.1466  0.1038  0.2619
20371W        W37895  15.791   4.211  14.595 -0.2207  0.1388 -0.0568
20372W        W37896  17.329  11.449  12.509 -0.4191  0.1097  0.0094
20373W        W37897  10.184   8.470  12.513 -0.0389 -0.1502 -0.0308
20374W        W37898  10.263   1.353  15.930 -0.0341  0.0878  0.1133
20375W        W37899  14.499   9.179   1.642  0.2246 -0.3523  0.0853
20376W        W37900  17.714   7.540  14.759 -0.2964 -0.1728 -0.1102
20377W        W37901   9.163   9.499  14.901  0.1786 -0.2923 -0.1016
20378W        W37902   8.854  14.189   0.732  0.2934  0.0877  0.0435
20379W        W37903  16.058   8.218  12.350 -0.3285  0.0621  0.0588
20380W        W37904  14.708   8.940  15.368 -0.0146 -0.1006  0.0410
20381W        W37905   6.007   7.690  13.103  0.0419 -0.0363  0.0689
20382W        W37906  14.847   3.682  13.492 -0.2573  0.3419  0.0963
20383W        W37907   7.961   6.224  15.681 -0.2894 -0.0564 -0.2175
20384W        W37908  16.120  10.471   0.726 -0.1555 -0.1471  0.0936
20385W        W37909   1.144   1.414   1.221 -0.3169  0.0958 -0.0633
20386W        W37910   4.223  11.704   2.011 -0.2850 -0.0013 -0.1592
20387W        W37911   1.810   9.980  11.615 -0.1178  0.0042 -0.2107
20388W        W37912   8.255   1.826   0.564 -0.0893 -0.1789 -0.1412
20389W        W37913   4.060   0.767  12.843 -0.0577 -0.0188  0.1740
20390W        W37914   3.547  10.222  15.989  0.0231 -0.0046 -0.0818
20391W        W37915  16.126   0.494   3.572 -0.1204 -0.0709  0.1373
20392W        W37916  12.149  11.278  10.117 -0.1011  0.0122 -0.2052
20393W        W37917  11.149   0.117  13.183 -0.0700 -0.2719  0.1822
20394W        W37918  15.568  13.131  15.307  0.0103 -0.1391  0.0975
20395W        W37919   5.921  13.192  15.002 -0.4503 -0.0293 -0.2333
20396W        W37920   6.905   4.905  12.749 -0.1731  0.2594  0.0492
20397W        W37921   4.083   5.607   0.017 -0.0276  0.2014  0.0765
20398W        W37922  16.832  14.779  15.010  0.1014 -0.1321  0.0882
20399W        W37923   8.017   0.043   0.045  0.0519 -0.2171 -0.1196
20400W        W37924   2.269   9.027  11.061 -0.3130 -0.3075 -0.1436
20401W        W37925   9.446   0.780   2.285  0.0004 -0.0490 -0.3469
20402W        W37926   1.294   7.730  12.779  0.3350  0.1806 -0.0345
20403W        W37927  14.162  10.113  13.906  0.0315 -0.5580 -0.0186
20404W        W37928   5.016  13.725   1.835 -0.0113 -0.0305  0.4518
20405W        W37929  11.364   2.513   0.021 -0.0680  0.2387 -0.1156
20406W        W37930   1.630   0.403   2.527  0.2605  0.1001  0.0337
20407W        W37931  15.499   6.692  14.556  0.0027 -0.1187  0.2492
20408W        W37932  12.360  13.820  15.725  0.0374 -0.1518  0.1891
20409W        W37933   3.079   0.302   1.215 -0.0514  0.1374  0.0911
20410W        W37934   6.129   2.283  14.037 -0.0330 -0.2513  0.0130
20411W        W37935   7.995   8.771  12.661 -0.1890 -0.2113 -0.1296
20412W        W37936   7.304  16.787   2.559 -0.1110 -0.0576  0.1848
20413W        W37937   3.491   0.923   4.280  0.0702  0.1447 -0.1435
20414W        W37938  15.603  11.847  11.801 -0.1091  0.1630  0.0543
20415W        W37939   2.177  10.933  15.593 -0.0069  0.1371  0.0882
20416W        W37940   0.903  10.683   5.540 -0.1184  0.3777 -0.1774
20417W        W37941  17.278  15.724   5.235 -0.0750 -0.1871 -0.0070
20418W        W37942  15.203  13.214  12.281  0.1908 -0.2067  0.1352
20419W        W37943   6.340   2.285  13.508  0.1607  0.1388  0.3317
20420W        W37944   5.521   0.998  13.864 -0.0101 -0.0366 -0.1189
20421W        W37945   1.247  16.673   3.433  0.0267  0.0785  0.0078
20422W        W37946  13.680  11.612  13.851  0.0799 -0.3357 -0.0271
20423W        W37947   6.820   1.833   2.459 -0.1255 -0.3604  0.0011
20424W        W37948   8.121   4.854  14.499  0.1546 -0.1034 -0.3050
20425W        W37949  11.895  11.575   2.385  0.1281  0.0112 -0.0471
20426W        W37950   0.710  12.759  10.449 -0.3145 -0.1951  0.0428
20427W        W37951  13.438   3.639  12.627 -0.2065 -0.3592 -0.2404
20428W        W37952   1.032   5.467   4.763 -0.1256  0.0633 -0.1668
20429W        W37953   8.967   3.875  12.837  0.3368 -0.1656  0.2688
20430W        W37954  13.924   3.435  15.667  0.2262 -0.1183  0.2554
20431W        W37955  16.036  14.467  15.051 -0.1825  0.3672 -0.1834
20432W        W37956  11.211   3.099   2.208 -0.1744 -0.0772  0.3128
20433W        W37957   6.819   8.774   0.616 -0.1719 -0.0065  0.0773
20434W        W37958   8.199  14.859  14.615  0.0551 -0.0753  0.2160
20435W        W37959  17.306   2.192   2.884 -0.3347  0.0435  0.1102
20436W        W37960  17.906  10.235   3.611 -0.1854  0.0512  0.3663
20437W        W37961  12.616  12.252   0.902 -0.1704 -0.0330  0.1814
20438W        W37962  16.241   2.745   3.458 -0.4525  0.1232 -0.0911
20439W        W37963   0.066   1.539   2.635  0.1097 -0.1143 -0.2871
20440W        W37964   7.574   3.018   5.092  0.2249 -0.1118  0.0715
20441W        W37965  14.103  10.269  16.075  0.2305  0.0604 -0.2065
20442W        W37966   7.551   6.447  11.286  0.2520  0.0125  0.0473
20443W        W37967  11.083   1.279   4.023 -0.3076  0.0419 -0.2527
20444W        W37968  11.211  17.721   5.019 -0.1798 -0.4357  0.2186
20445W        W37969  17.445   8.611   2.369  0.3248 -0.1213  0.1504
20446W        W37970  11.812   4.937   2.208 -0.2660 -0.0802  0.1638
20447W        W37971  15.511   3.345   1.316 -0.0518 -0.1524  0.2829
20448W        W37972  11.029  12.968  11.462  0.0827 -0.3541  0.2705
20449W        W37973  14.552   9.392  15.238 -0.0206 -0.1221 -0.0954
20450W        W37974  10.381  15.884   4.556 -0.0123  0.1056  0.2094
20451W        W37975   0.056   2.072  14.439 -0.1958 -0.1876  0.3705
20452W        W37976   9.229   9.306  14.003  0.2395  0.1648 -0.0951
20453W        W37977  13.232  16.343   3.879 -0.1698  0.0826  0.0873
20454W        W37978  15.366   9.612  15.935 -0.1851 -0.1415 -0.0894
20455W        W37979  11.662  16.203  11.651  0.1372 -0.1423  0.0299
20456W        W37980   7.032  12.274  13.748  0.1082  0.3955 -0.0199
20457W        W37981   0.659  15.256  15.765 -0.1622 -0.1551  0.3452
20458W        W37982   1.828  16.125  14.090 -0.1136 -0.1028  0.0070
20459W        W37983  14.449   7.860   0.838  0.1207 -0.1172 -0.0141
20460W        W37984   8.554   6.642   2.970 -0.1706 -0.0112  0.2113
20461W        W37985   1.749  17.794  11.532  0.0471 -0.3212  0.0001
20462W        W37986   9.044  17.373   2.414 -0.1076 -0.1341  0.1465
20463W        W37987  13.618   3.027  14.451 -0.1359  0.0113  0.1329
20464W        W37988   7.318   7.199   1.938 -0.0204  0.1363 -0.5011
20465W        W37989  12.192   8.638  13.440 -0.2784 -0.4434 -0.0818
20466W        W37990   1.814   1.945  15.407  0.0912 -0.0985  0.1891
20467W        W37991   4.065   7.037  11.539  0.0706  0.1809 -0.1110
20468W        W37992  15.708   2.104  14.378 -0.0822 -0.0582  0.0390
20469W        W37993   2.013  17.336  11.444 -0.0908  0.1986  0.0815
20470W        W37994   8.588   0.797   2.660 -0.0443 -0.1034  0.0955
20471W        W37995  11.878  13.534  11.722 -0.1595  0.0007  0.1715
20472W        W37996  13.276  10.675   0.976 -0.1296 -0.3701  0.1499
20473W        W37997   2.503   9.366   2.479 -0.0234 -0.0399 -0.2590
20474W        W37998  15.052  13.618   1.433  0.0247 -0.1320  0.0563
20475W        W37999  15.295   5.861   3.774  0.2656 -0.0965 -0.2525
20476W        W38000  11.915   9.673  14.303 -0.1335  0.1249 -0.0381
20477W        W38001  16.221   7.905   2.669  0.0672  0.4088 -0.0517
20478W        W38002   5.243   2.885   3.984  0.0541  0.0444  0.3966
20479W        W38003  11.489   2.629   2.350  0.0600  0.1989 -0.0632
20480W        W38004  11.712   6.947  14.012  0.0953 -0.1185  0.3381
20481W        W38005   4.043   0.351   0.836 -0.0766  0.0556 -0.0963
20482W        W38006   1.167   6.947   0.868  0.2045 -0.0312 -0.4724
20483W        W38007   0.026   3.886  15.791 -0.1505 -0.0446  0.1702
20484W        W38008  12.140   6.356  13.467  0.0535  0.1134  0.1229
20485W        W38009  12.839   0.633  13.415 -0.2887 -0.2178 -0.1518
20486W        W38010   3.644  16.356  13.468  0.1520  0.0248  0.2743
20487W        W38011  17.892  10.708   0.082 -0.2834  0.0747 -0.1915
20488W        W38012   1.489   9.051  13.895  0.1167 -0.0075  0.2277
20489W        W38013   4.642  10.131   4.955 -0.0459  0.0581  0.0990
20490W        W38014   8.499  17.075  13.344  0.0144 -0.0588  0.2283
20491W        W38015   9.055  16.949   1.243  0.1066 -0.2642 -0.0412
20492W        W38016  15.011  16.764   3.394  0.0647 -0.0338 -0.0093
20493W        W38017  13.149   8.285   0.166  0.1697 -0.0704 -0.1749
20494W        W38018   7.438  15.870  14.893  0.0537 -0.2341 -0.0620
20495W        W38019   1.638   0.760   0.797  0.2259  0.1664  0.3220
20496W        W38020  15.643   1.610  15.123 -0.1614  0.1456 -0.0070
20497W        W38021   3.367   7.435   1.538 -0.2430  0.0167 -0.0706
20498W        W38022  14.546   3.228  13.493  0.0102  0.0053 -0.2063
20499W        W38023   5.087  11.606   3.287 -0.1203 -0.2338 -0.3711
20500W        W38024   1.535  12.187  12.712 -0.0520  0.1638 -0.1837
20501W        W38025   9.429  14.107   2.645 -0.3080  0.1852 -0.0242
20502W        W38026  17.894   7.742   1.302 -0.0495  0.2161 -0.0502
20503W        W38027   3.309   8.029   3.163 -0.2438 -0.3096 -0.2780
20504W        W38028   9.046   8.258  12.014  0.0082 -0.3292  0.2692
20505W        W38029   2.383  12.656   4.808  0.1142  0.3215  0.1512
20506W        W38030  10.164   8.922  12.442  0.0248  0.1259  0.0858
20507W        W38031  11.536   3.653   2.906 -0.2064 -0.0969 -0.1337
20508W        W38032  17.271  17.384  13.794 -0.2755  0.0264  0.0896
20509W        W38033   2.536   3.624   1.566  0.2024  0.0314  0.2794
20510W        W38034  11.408   9.011  15.463  0.0741 -0.3988  0.0797
20511W        W38035  13.616  13.815  14.384  0.0692 -0.1165  0.2922
20512W        W38036  15.726   7.517  14.413 -0.2794 -0.0123  0.2091
20513W        W38037  15.622   0.708   3.793  0.0896 -0.0079  0.1037
20514W        W38038   6.414  11.604  15.493 -0.1876 -0.0355 -0.1174
20515W        W38039   5.602   2.460  15.519 -0.0330  0.1881  0.2059
20516W        W38040   8.284   1.821   1.786  0.3037  0.0581  0.1728
20517W        W38041  11.135   3.913   0.029  0.0701 -0.2883  0.1741
20518W        W38042  17.716   9.092  13.177 -0.1509 -0.1652  0.0879
20519W        W38043   4.611   1.301  14.570 -0.2545  0.1649 -0.1387
20520W        W38044  15.357   1.118   0.890  0.0452 -0.1501  0.3071
20521W        W38045   9.193   3.163   3.548 -0.1655 -0.2032  0.0389
20522W        W38046  16.526  15.877  13.722 -0.4374  0.1938  0.0890
20523W        W38047   9.745   1.079  15.881  0.1548  0.0974  0.1296
20524W        W38048   2.449  14.318  14.040  0.0837 -0.2278  0.0872
20525W        W38049   1.382  12.425   2.756 -0.0733 -0.4047  0.0140
20526W        W38050   0.441  11.553   3.214 -0.2665 -0.2466  0.0126
20527W        W38051   0.893  16.042   0.479 -0.0573  0.2931  0.0745
20528W        W38052   8.683   8.160  13.258  0.0152  0.1138 -0.3263
20529W        W38053   5.547   7.101   4.183  0.1452 -0.0966 -0.0433
20530W        W38054   2.245  13.698   2.611  0.3202  0.2256 -0.2811
20531W        W38055   2.893  15.341   3.329 -0.1507 -0.0287  0.0675
20532W        W38056  10.436  16.225  14.362 -0.1358 -0.1537  0.2148
20533W        W38057  10.609   7.962   3.386 -0.1895 -0.1861 -0.2141
20534W        W38058  15.531  11.366  15.942 -0.1497  0.2474 -0.0882
20535W        W38059  10.274  12.994  14.733  0.0421 -0.1264 -0.1278
20536W        W38060  14.092  15.762   5.462 -0.2760 -0.1826 -0.2205
20537W        W38061   2.935  12.922   1.892 -0.1817 -0.1711  0.3087
20538W        W38062  13.391   1.033  14.794  0.1034  0.1044  0.1923
20539W        W38063   8.756   9.329  14.613 -0.5538  0.0773  0.2181
20540W        W38064  17.575  13.822   2.188  0.2050 -0.0230  0.1326
20541W        W38065  16.986  11.617   4.944  0.0697  0.1746 -0.1377
20542W        W38066  10.998   0.476   1.352  0.0461 -0.0210  0.3295
20543W        W38067  17.077   1.741  14.795 -0.0767  0.0270 -0.1104
20544W        W38068   3.793  14.583   4.149 -0.1632 -0.3092 -0.2555
20545W        W38069   3.400  17.268  12.608  0.4266 -0.3607 -0.0657
20546W        W38070   8.184   8.055  12.571 -0.0471  0.0945  0.1435
20547W        W38071   9.447   6.449  11.958 -0.0753 -0.0116 -0.4168
20548W        W38072  17.879   7.524  13.363 -0.2505  0.0573  0.4624
20549W        W38073   6.584   6.266  14.235  0.2557  0.1272  0.2995
20550W        W38074   4.395  13.019   4.145  0.1376  0.0291 -0.2025
20551W        W38075  13.107   7.572   3.530 -0.1881  0.1744  0.0388
20552W        W38076  14.885   1.944  15.624  0.0798  0.1908 -0.1548
20553W        W38077   3.783   9.786   3.902 -0.1606 -0.2553  0.1078
20554W        W38078   7.363  12.995  14.587 -0.0405  0.1728 -0.2495
20555W        W38079   2.552   7.111   1.300  0.0951  0.0586 -0.1395
20556W        W38080   2.072   2.959  13.615  0.1235 -0.2594  0.0577
20557W        W38081  11.209   2.504  11.625  0.0732 -0.0437 -0.2299
20558W        W38082   9.965  10.109  12.958  0.1841 -0.0733  0.0880
20559W        W38083  15.093  16.731   2.034  0.4008 -0.0815 -0.1825
20560W        W38084   3.491  13.782   5.033 -0.0776 -0.0600  0.1044
20561W        W38085   8.344  16.629  13.789 -0.2404 -0.2898 -0.1567
20562W        W38086  10.644  12.790   0.830 -0.0187  0.0955 -0.2617
20563W        W38087   2.023   1.089  15.615  0.1666 -0.1246  0.2229
20564W        W38088  17.079  11.322  11.722 -0.0469  0.0558  0.2299
20565W        W38089   9.510   1.567   1.844  0.3928  0.3040  0.0119
20566W        W38090   3.987  12.640   1.240 -0.0708  0.2423 -0.0296
20567W        W38091   8.130  16.255  11.400 -0.0521  0.0334  0.1034
20568W        W38092  17.641  17.543   4.201  0.0150 -0.0247 -0.1561
20569W        W38093   9.450   9.135  11.358 -0.1097  0.1720 -0.1922
20570W        W38094   1.343  15.148   0.126 -0.1664  0.1931 -0.2523
20571W        W38095   2.703   9.043  14.114  0.2450 -0.2846 -0.0647
20572W        W38096   3.474   2.143   5.170 -0.0200  0.1175  0.1146
20573W        W38097   5.816  17.608   1.906 -0.0752 -0.0629 -0.0174
20574W        W38098  14.857  11.326   1.147 -0.0442 -0.1648 -0.4628
20575W        W38099   4.291  16.830  16.103  0.2137 -0.0146 -0.2648
20576W        W38100  10.376  14.104   4.650 -0.1784 -0.1221 -0.0957
20577W        W38101   9.064   7.963  11.536  0.2523 -0.0795  0.0010
20578W        W38102  16.760  10.637  10.927  0.0698  0.3157 -0.2728
20579W        W38103   2.643   3.360   5.495  0.0653 -0.0422 -0.0662
20580W        W38104   2.984   9.020  13.678  0.1927  0.1718 -0.0686
20581W        W38105   7.813   3.215   1.978  0.0323 -0.3638  0.0012
20582W        W38106   9.330  11.977   1.849  0.1199 -0.1244 -0.0779
20583W        W38107   3.182  17.390   0.771  0.3477  0.1120 -0.1022
20584W        W38108   8.690  14.607  12.686  0.0863  0.1175 -0.0303
20585W        W38109   1.706   2.729  11.799  0.2065  0.0737 -0.2137
20586W        W38110   4.294  15.897   0.858 -0.0461  0.1083  0.0207
20587W        W38111  17.856  11.613   5.316 -0.2975  0.2315 -0.3778
20588W        W38112   2.799  10.508   1.800 -0.0925  0.0771  0.1526
20589W        W38113  16.075  13.271  13.590 -0.2913  0.1334 -0.4016
20590W        W38114   7.704  16.131   1.876 -0.0328  0.2064  0.0049
20591W        W38115  17.456   7.053   1.210  0.0289  0.1916  0.2990
20592W        W38116   2.790   5.213   4.146 -0.0917 -0.1094 -0.0758
20593W        W38117  10.360   2.842   3.904 -0.1702  0.0921 -0.2227
20594W        W38118   9.176   1.393   4.686  0.0089 -0.1990  0.0099
20595W        W38119   1.160  13.208   1.760  0.0814 -0.1154  0.1409
20596W        W38120  10.981   8.911   3.961  0.1165  0.0768 -0.2294
20597W        W38121  10.085  16.162   0.833  0.3467 -0.1824 -0.1009
20598W        W38122   6.368   3.180   2.716  0.0287  0.1513  0.0201
20599W        W38123   3.526  16.252   1.700  0.1743 -0.0109 -0.0213
20600W        W38124   4.770  11.233   0.736  0.1126  0.0155 -0.0155
20601W        W38125  16.023  16.223  15.855  0.0606  0.0613 -0.2233
20602W        W38126  10.905   5.917   2.508 -0.0199  0.0332 -0.0246
20603W        W38127   4.945   9.345   2.535  0.0048  0.1663 -0.0922
20604W        W38128  15.815  11.890   3.545 -0.3549 -0.2517  0.1903
20605W        W38129   8.393   1.057  11.851 -0.3170  0.2664  0.5179
20606W        W38130   1.157   8.665   5.092  0.1672 -0.1212  0.0115
20607W        W38131   2.604  12.888   3.368  0.0767  0.1451 -0.1499
20608W        W38132   3.885   2.642   3.056 -0.1610  0.3610 -0.2315
20609W        W38133  14.221  15.002   4.065 -0.0797  0.2605  0.2086
20610W        W38134   3.421   8.105   0.340 -0.1246  0.2295  0.0575
20611W        W38135  12.489   3.855   1.183 -0.2592  0.2708  0.0622
20612W        W38136   7.753   9.084   4.562  0.1793  0.2420 -0.4911
20613W        W38137  11.316  17.273   2.585  0.0729 -0.1365 -0.1151
20614W        W38138   1.500   4.964  11.809  0.2012  0.1149 -0.1430
20615W        W38139  12.202   0.298   4.654 -0.2940  0.0061  0.0136
20616W        W38140   1.763  11.145  12.861  0.1748  0.0693  0.1389
20617W        W38141   9.181   1.794   1.362 -0.0688 -0.1592  0.0033
20618W        W38142   5.763  11.520   3.787  0.0632 -0.1303 -0.0123
20619W        W38143   9.724   7.795   1.102  0.3503 -0.0030  0.3564
20620W        W38144  15.701  16.144  14.412  0.0561 -0.3445  0.2523
20621W        W38145   0.366   5.852  16.193  0.0390 -0.3656 -0.1120
20622W        W38146  10.393  13.416   1.327 -0.0859 -0.0756 -0.0192
20623W        W38147   7.956  10.313  13.675 -0.1145  0.2640 -0.0416
20624W        W38148   5.190  17.668   1.415 -0.3125  0.0830 -0.3158
20625W        W38149   9.040   2.114   0.951 -0.2403 -0.0734 -0.0129
20626W        W38150   1.358   2.321  13.195  0.1465 -0.0451 -0.0604
20627W        W38151   7.124  15.352   2.504 -0.1206 -0.0998 -0.0274
20628W        W38152   3.217  14.161   3.847 -0.1095 -0.0251 -0.3972
20629W        W38153  12.750  13.082   0.228  0.0087  0.0415 -0.3885
20630W        W38154  15.326   2.748  11.882  0.2024 -0.1493  0.1539
20631W        W38155   3.225  14.655   1.840 -0.0916 -0.0098  0.2170
20632W        W38156  11.327   8.432   4.375  0.0354 -0.2678 -0.1866
20633W        W38157  14.882   5.284   4.744  0.1594 -0.0527  0.0383
20634W        W38158  13.919   2.326  16.155 -0.2904 -0.0924 -0.0683
20635W        W38159   7.640   0.049   3.133 -0.2426 -0.0773  0.1360
20636W        W38160  14.169  15.640   3.351  0.1400 -0.2348  0.2800
20637W        W38161   9.073   4.183   3.942 -0.0582  0.2879 -0.3555
20638W        W38162   5.467  11.460   0.135 -0.0489  0.0350  0.0702
20639W        W38163   6.080  14.576  15.577  0.0924  0.1386 -0.0878
20640W        W38164   1.648   1.602  14.337  0.0215  0.0356 -0.0058
20641W        W38165  14.584  15.717   0.739 -0.1041  0.1843 -0.2626
20642W        W38166   6.516  14.255   1.686 -0.1753 -0.1208  0.1171
20643W        W38167  12.897  12.977  12.712  0.2549  0.3644 -0.2287
20644W        W38168   6.814   0.592  13.093  0.1434 -0.0555 -0.2080
20645W        W38169   2.467   7.220  12.974 -0.1091 -0.0511  0.1507
20646W        W38170   4.738  15.865   2.076  0.2618 -0.1111  0.0355
20647W        W38171  15.391  13.614  15.704  0.0385  0.2756 -0.1316
20648W        W38172  12.480  13.675  13.333 -0.1396 -0.1617 -0.0135
20649W        W38173   6.086  14.504   3.104 -0.2533  0.0868  0.2533
20650W        W38174  10.024   4.741  16.164  0.2180  0.3265  0.1080
20651W        W38175   3.021  12.102   4.777 -0.0062  0.0915  0.0528
20652W        W38176   0.600   0.172  14.080  0.3522  0.2478 -0.0117
20653W        W38177   3.752   7.967  15.632  0.0457  0.2972  0.0310
20654W        W38178  14.395   2.158  12.030  0.1434 -0.0785  0.0862
20655W        W38179  17.820   0.445   3.038  0.0102  0.1996 -0.3232
20656W        W38180  12.653  14.551   0.615  0.2020 -0.0748  0.0236
20657W        W38181   0.326   2.382  13.020 -0.1019 -0.1889  0.2200
20658W        W38182   8.422  15.908  13.132 -0.0741  0.2244 -0.1658
20659W        W38183  14.612  15.344   3.970  0.1482 -0.3557 -0.1942
20660W        W38184  10.214  13.640  12.359  0.0153  0.0908 -0.0955
20661W        W38185  17.031  15.634   3.629 -0.2265 -0.1998 -0.3301
20662W        W38186   6.582  10.433   1.908 -0.0221  0.2215 -0.1412
20663W        W38187   7.860   7.858   0.116 -0.0068  0.1129 -0.3175
20664W        W38188  14.775   2.741  13.512  0.1769 -0.0331  0.1176
20665W        W38189   6.847  10.068  14.275 -0.0214 -0.1765  0.1411
20666W        W38190   9.156   6.718   4.970  0.2808 -0.1148 -0.0323
20667W        W38191   0.377  15.971   0.616  0.0082 -0.1940 -0.0148
20668W        W38192   5.837  12.686  12.165 -0.3111 -0.0429  0.0420
20669W        W38193  10.733   9.592  13.726 -0.2303  0.2595  0.3048
20670W        W38194  15.410  10.868  14.019  0.0461  0.1765 -0.0676
20671W        W38195  11.127   9.200   2.225  0.1592 -0.2418 -0.3040
20672W        W38196  17.962   7.741   0.803  0.2329  0.1531  0.1518
20673W        W38197   9.828   4.374  12.583 -0.0591  0.2026 -0.0002
20674W        W38198   1.749  15.257   2.008  0.0989 -0.2055  0.2694
20675W        W38199  11.313   0.058   3.720 -0.0829  0.0487 -0.0644
20676W        W38200   9.561   3.485   4.843 -0.0878 -0.1237  0.1120
20677W        W38201   8.001   3.808  14.700 -0.1882  0.2054 -0.1375
20678W        W38202  10.317   0.662   2.999 -0.0981 -0.4995  0.1144
20679W        W38203   3.766   2.521   0.558 -0.2729  0.2747  0.1792
20680W        W38204   1.636   9.308   0.172  0.0254 -0.0304 -0.1717
20681W        W38205   9.546   0.975   1.805  0.1561  0.2068 -0.0638
20682W        W38206   5.547   9.656   1.348  0.2587 -0.1387 -0.0808
20683W        W38207  10.197   5.800  16.186 -0.1905  0.2010  0.1391
20684W        W38208   8.474  16.098  14.665 -0.1965 -0.0459 -0.3661
20685W        W38209   0.111  10.547   1.672  0.1179 -0.2376 -0.2059
20686W        W38210   4.891   5.342   3.546  0.0956 -0.0886  0.2904
20687W        W38211  12.591   7.362  11.076 -0.0532 -0.1272 -0.0359
20688W        W38212  17.807  17.439   2.270  0.0980 -0.2521  0.5960
20689W        W38213  17.786   8.692   3.518  0.1527  0.2198 -0.0019
20690W        W38214  15.659  13.994   0.791  0.0730  0.1383  0.2323
20691W        W38215  14.517  15.062  15.545  0.1146  0.0802 -0.1580
20692W        W38216  11.360   0.466   0.940  0.0331  0.0652 -0.0504
20693W        W38217   9.020   0.190   2.113  0.0907 -0.1519  0.3096
20694W        W38218  17.745  14.254   4.198 -0.1543  0.0129 -0.0863
20695W        W38219   0.622  14.791  15.926 -0.0919  0.0519 -0.1649
20696W        W38220   4.547   9.861  14.509 -0.2489 -0.1020 -0.3372
20697W        W38221  16.826   7.192   2.502  0.0039 -0.2124 -0.0003
20698W        W38222  16.030   9.205  14.710  0.1073  0.1268 -0.2491
20699W        W38223  14.121   3.812  14.743  0.3707  0.1560  0.0358
20700W        W38224   9.120   3.561  15.322 -0.1251 -0.0726  0.0729
20701W        W38225   0.727   6.993  15.625 -0.0929 -0.0320  0.2397
20702W        W38226  16.528  17.419  13.954  0.0876 -0.0681 -0.1766
20703W        W38227  17.443  12.041   5.095 -0.0525  0.2506  0.1065
20704W        W38228   0.511   4.044  15.821 -0.0239 -0.2300  0.4000
20705W        W38229  17.431   4.792  12.344 -0.1345  0.1152  0.2841
20706W        W38230   0.720  10.038   3.248  0.1539  0.1020  0.0585
20707W        W38231  13.503   4.472  15.678 -0.0105 -0.3213 -0.2763
20708W        W38232   3.408   7.679  11.526 -0.3493 -0.2125  0.1481
20709W        W38233  15.100   3.877  13.845  0.2337 -0.0775 -0.1194
20710W        W38234   3.790  13.646  13.221  0.0792 -0.2687  0.1870
20711W        W38235   5.910  15.558   2.701 -0.2209 -0.1390  0.0421
20712W        W38236  13.297   5.397   5.870 -0.1966 -0.5413  0.2953
20713W        W38237   5.920  12.341  14.162 -0.2163  0.1580 -0.1305
20714W        W38238  16.931  10.485  11.712  0.3090 -0.3183  0.0344
20715W        W38239  10.499   7.283  11.265  0.2134 -0.3566  0.0351
20716W        W38240   6.809   9.475   0.670  0.0169  0.0311 -0.1911
20717W        W38241  11.879   6.898  12.624 -0.1378  0.2805  0.0993
20718W        W38242  17.710   6.415   3.971 -0.1743 -0.0053 -0.2187
20719W        W38243   1.808   1.520  11.650  0.1075  0.0500  0.2133
20720W        W38244   1.304  17.421  13.575  0.0805  0.1880 -0.4757
20721W        W38245   8.127   4.211   4.017 -0.0244  0.0156 -0.1406
20722W        W38246  17.036  10.554   3.377 -0.2050 -0.1891  0.0667
20723W        W38247  13.138   6.395  13.472  0.0174  0.0727  0.3786
20724W        W38248  10.596  14.047   4.172 -0.1865  0.0269  0.0319
20725W        W38249   4.177   6.560  11.481  0.1087  0.2515 -0.1407
20726W        W38250   2.959   5.515   2.920  0.2637  0.0562 -0.0000
20727W        W38251   8.780  12.711   3.015 -0.1583  0.0463 -0.0817
20728W        W38252  15.668  11.353   1.848  0.0633  0.0058 -0.0031
20729W        W38253  14.259   2.033  14.176  0.2303  0.1647 -0.1310
20730W        W38254  17.616  14.457   1.797  0.1029 -0.0412  0.0133
20731W        W38255   1.885   3.427   3.115 -0.2858  0.3113  0.2256
20732W        W38256  10.594  16.328   4.668  0.1854 -0.1129  0.0985
20733W        W38257   4.669  14.569   3.869 -0.3351 -0.3563  0.1781
20734W        W38258   4.718  13.170   4.955 -0.1684  0.0529 -0.0255
20735W        W38259   0.981   9.100   5.451  0.1230  0.0354 -0.0668
20736W        W38260   9.011  10.620   1.688 -0.0810  0.1762 -0.1175
20737W        W38261  11.852   8.574   1.138  0.2634 -0.0545 -0.1648
20738W        W38262  13.247   6.601   1.142  0.1120 -0.3918  0.0437
20739W        W38263  14.498  17.731  15.215  0.3000 -0.1260 -0.3359
20740W        W38264  12.738   0.950  14.014 -0.1041  0.0943  0.0768
20741W        W38265   3.286  16.326  12.680 -0.0772 -0.0648  0.0162
20742W        W38266  10.554  17.723  13.135  0.0169  0.0050 -0.0766
20743W        W38267  12.754  14.143   0.981  0.1282 -0.1353  0.1089
20744W        W38268   6.175   8.051   2.941 -0.0889  0.3906  0.4530
20745W        W38269  14.388   7.295  12.598  0.0301  0.2602 -0.2265
20746W        W38270  11.459  17.079   3.964 -0.0768 -0.2354 -0.0215
20747W        W38271  14.154  11.570   2.823 -0.2199 -0.2769  0.0354
20748W        W38272  10.242   9.113   1.848 -0.3010 -0.1833 -0.1087
20749W        W38273   4.224   2.358   4.465 -0.0016  0.1482 -0.3163
20750W        W38274  13.530   1.828   4.306 -0.0509 -0.0745 -0.1280
20751W        W38275   4.663  11.806  12.967  0.1076  0.4510 -0.0066
20752W        W38276   0.515   6.532   1.134 -0.3285  0.1492  0.1431
20753W        W38277  14.661  12.961  13.001  0.0075  0.2265 -0.2172
20754W        W38278   2.466  13.242   0.976  0.2778  0.5240  0.1160
20755W        W38279   9.628   5.198   2.770  0.2314  0.0528  0.3759
20756W        W38280   4.978  15.359   2.735 -0.1300  0.0027 -0.1487
20757W        W38281  13.635   8.478   1.578  0.2621 -0.1130  0.0343
20758W        W38282  17.171   7.771   5.067 -0.0388 -0.0085 -0.1721
20759W        W38283   7.864   4.792   4.240  0.2610  0.3265  0.2671
20760W        W38284   1.172   9.562  11.220 -0.2292  0.3057  0.0353
20761W        W38285  11.404   7.333   0.256 -0.0159 -0.0801 -0.1187
20762W        W38286  13.101   5.163   5.387 -0.1208  0.1866 -0.2868
20763W        W38287   0.137   6.305   0.957 -0.1660 -0.0413 -0.0300
20764W        W38288  10.677  12.886   1.373 -0.1838  0.0304  0.1259
20765W        W38289  12.126   2.773   4.581 -0.3224 -0.0285 -0.0717
20766W        W38290   0.512   6.281  10.612 -0.3331  0.0387  0.0655
20767W        W38291   7.045  14.534   0.038  0.1740  0.0811  0.1868
20768W        W38292  13.013   5.879  11.856 -0.1109  0.1748  0.1759
20769W        W38293   4.442   8.351  12.878  0.0915  0.0650  0.1195
20770W        W38294  17.650  10.957  10.848 -0.1926  0.1450 -0.1942
20771W        W38295  12.649   5.729   2.178 -0.1959 -0.2245 -0.0914
20772W        W38296   4.558  15.879  12.542  0.3287 -0.1170  0.1486
20773W        W38297   5.438   3.499  11.653  0.2254 -0.3637  0.2268
20774W        W38298  14.775  15.978  14.335  0.0966  0.2145 -0.0029
20775W        W38299  16.211  16.573  12.263  0.0901  0.0588 -0.1864
20776W        W38300   3.642  14.504   1.089  0.0396  0.0256 -0.1285
20777W        W38301   5.516  16.278  12.378  0.0444 -0.3378 -0.1656
20778W        W38302  12.569  15.913   2.873 -0.0686 -0.2715  0.0824
20779W        W38303   2.638  13.055   4.550 -0.0747  0.2713  0.1884
20780W        W38304  13.541   4.971  11.571 -0.0690 -0.0608 -0.0993
20781W        W38305  11.933  10.515  15.013 -0.1169  0.0656  0.0024
20782W        W38306   9.040   0.193  12.524 -0.1038 -0.0773  0.2238
20783W        W38307   4.765   5.409  13.756 -0.0602  0.1165  0.3078
20784W        W38308   4.005   6.957   2.435  0.0549  0.1699  0.0381
20785W        W38309   3.664   2.253  12.409 -0.2247  0.0587 -0.2023
20786W        W38310   8.601  15.539   4.626 -0.4294  0.1727 -0.0487
20787W        W38311  14.739  13.529   0.033  0.1765  0.1347 -0.1278
20788W        W38312  17.250  15.030   1.159 -0.0950 -0.1261 -0.0161
20789W        W38313  17.124  17.056  12.004 -0.2999 -0.1086  0.2762
20790W        W38314   7.426   3.999   4.039  0.2816  0.1908  0.1897
20791W        W38315   3.063  11.654   3.026 -0.1012  0.4305 -0.0668
20792W        W38316   7.910   9.568   2.519 -0.0094  0.1811  0.1388
20793W        W38317  14.095  14.397  13.192 -0.0048 -0.1378  0.0348
20794W        W38318  14.015  10.676   2.595  0.2301  0.1782  0.0250
20795W        W38319   7.139  16.854   4.378 -0.0528 -0.1120 -0.1624
20796W        W38320  17.338  15.676  14.701 -0.1602  0.0269  0.0567
20797W        W38321   6.414  13.793   1.408 -0.0906  0.1235 -0.1516
20798W        W38322  16.870   0.361   0.087  0.0391  0.0877  0.0125
20799W        W38323   3.865   9.434   0.199  0.1633 -0.1589  0.1432
20800W        W38324   1.350   7.166  12.585 -0.0830 -0.0132 -0.1801
20801W        W38325  16.569  17.163   1.610 -0.0399 -0.0803  0.0474
20802W        W38326   1.432  17.882   2.667  0.0263  0.0854  0.2394
20803W        W38327  11.158   1.496  11.367 -0.1851 -0.1045  0.0192
20804W        W38328  16.513   7.187  13.769 -0.1540  0.0888  0.0895
20805W        W38329   5.898  15.474  16.093 -0.2574  0.4153 -0.0903
20806W        W38330   3.582  10.289  11.725  0.1209 -0.1199  0.3458
20807W        W38331   6.285  15.714   2.254 -0.0224 -0.0547  0.0645
20808W        W38332   8.689   8.787   3.983  0.2792 -0.0687  0.3054
20809W        W38333  12.294  15.724   4.857  0.0525 -0.1017  0.0047
20810W        W38334   4.621   9.812   1.292 -0.3046  0.0325  0.2347
20811W        W38335  10.180   1.611  12.066 -0.0726  0.0308 -0.0039
20812W        W38336   5.376   1.248  15.975  0.1989  0.1437 -0.0646
20813W        W38337   1.629  17.533  12.317  0.1323  0.0593  0.0790
20814W        W38338   8.164   1.265   2.568  0.0615 -0.1253  0.1054
20815W        W38339   7.767   9.339  12.103 -0.0320  0.0994  0.0848
20816W        W38340   8.323  15.366   1.338  0.0262 -0.1431  0.0517
20817W        W38341  17.690   7.131   2.524 -0.1275  0.0270 -0.1465
20818W        W38342  12.545  17.333   1.588 -0.0309 -0.0285 -0.0815
20819W        W38343  14.609  17.374  13.507  0.3459  0.1875  0.0641
20820W        W38344  15.216  10.730  13.521  0.4286 -0.0318 -0.0094
20821W        W38345   0.358  14.383  16.028  0.2152 -0.0210 -0.0931
20822W        W38346  14.813  10.022   2.781  0.0139  0.1099  0.0812
20823W        W38347   7.410  12.446  14.873 -0.2282  0.1331  0.1574
20824W        W38348   5.540   9.905  12.498 -0.0297  0.0762  0.2237
20825W        W38349   5.258   6.858  13.763 -0.2189 -0.0362 -0.0025
20826W        W38350   2.867   4.457  13.089 -0.2764 -0.0428  0.0448
20827W        W38351  11.321  14.852  13.757 -0.0822  0.0714 -0.2007
20828W        W38352   2.338  14.947   2.283 -0.1542  0.0907 -0.2345
20829W        W38353   7.455  15.707   1.657  0.2371  0.3364 -0.3375
20830W        W38354  16.311   1.115  16.015 -0.1497 -0.1886  0.0884
20831W        W38355  17.168   3.135  12.276  0.1069  0.0577 -0.2406
20832W        W38356  10.576   7.198  13.969 -0.2662  0.1545 -0.1155
20833W        W38357  10.461   7.387  12.714 -0.2083  0.0492  0.0435
20834W        W38358   9.663  15.108  13.176 -0.0871 -0.0982  0.1540
20835W        W38359  14.725   7.021  13.699  0.0682  0.1857 -0.4227
20836W        W38360   4.044   5.772  11.722  0.1049 -0.0007  0.1963
20837W        W38361  10.475   1.172  12.358  0.2621  0.0729 -0.1366
20838W        W38362   6.131   6.970  11.169  0.0023  0.2890  0.1700
20839W        W38363   6.547  15.782  15.377  0.0156  0.0118 -0.1532
20840W        W38364  17.623   3.348   1.018  0.0537  0.0541 -0.0065
20841W        W38365  14.967  12.950  11.854  0.1889 -0.2574  0.1241
20842W        W38366  13.181  12.712   3.481  0.0322  0.1787  0.2640
20843W        W38367   1.861  12.359  15.076  0.0650 -0.0052 -0.1660
20844W        W38368   0.923  13.693   3.242 -0.3321  0.2756 -0.0205
20845W        W38369   6.210  11.682   3.685 -0.1572  0.0728  0.1147
20846W        W38370   2.347  12.701  15.446  0.3318  0.3514  0.1689
20847W        W38371   2.922   8.380   3.331 -0.0726 -0.0110 -0.0824
20848W        W38372   2.395   7.633  16.011 -0.0920 -0.0316  0.0377
20849W        W38373   5.507   1.177  14.983  0.2016  0.0848  0.0155
20850W        W38374   3.895   5.104  13.470  0.0621  0.0639  0.1051
20851W        W38375  15.202   5.131  11.155 -0.0158  0.1297  0.1740
20852W        W38376  17.598  17.860  15.244 -0.0249  0.0882 -0.1922
20853W        W38377   4.069  10.529  11.850 -0.0362 -0.0654 -0.0689
20854W        W38378  11.096   7.503  14.480  0.0006  0.0078 -0.1174
20855W        W38379   0.888   6.356   1.570 -0.0772 -0.1896  0.2834
20856W        W38380   6.387   5.466   0.514 -0.3763  0.1326  0.0777
20857W        W38381   0.325  17.267  14.985 -0.1118  0.0674  0.0835
20858W        W38382   6.900   2.790  14.651 -0.3398  0.1833  0.2950
20859W        W38383  14.143   9.151  12.502  0.3275  0.0189 -0.2322
20860W        W38384  17.918  15.003  11.434 -0.1468  0.0502 -0.0768
20861W        W38385   4.916  16.869  14.872 -0.2578  0.0633 -0.1078
20862W        W38386   2.818   2.394  16.115  0.2195  0.1518 -0.1218
20863W        W38387  17.613  16.757  13.590 -0.0197  0.1937 -0.1562
20864W        W38388  10.619  14.448   1.981  0.0627  0.1041 -0.1946
20865W        W38389   0.035   8.003   4.754  0.0856 -0.2647 -0.0770
20866W        W38390  10.162   7.485  15.627  0.0689  0.1851  0.0300
20867W        W38391   5.693  10.164  12.862  0.0495  0.3640  0.2297
20868W        W38392  10.913  16.099  11.072  0.1648 -0.2453 -0.1841
20869W        W38393  14.364   0.734   0.593  0.3627  0.0442  0.0336
20870W        W38394   0.419   9.587   2.662  0.0171  0.1585  0.1995
20871W        W38395  14.947  15.572   5.570  0.2439  0.1530  0.0543
20872W        W38396  10.907   7.342  11.714 -0.0682 -0.0134 -0.0471
20873W        W38397   8.096   3.158   1.559 -0.0692 -0.2567 -0.0087
20874W        W38398   6.893   4.865  14.829  0.0257 -0.1382 -0.4628
20875W        W38399   6.338   3.193  11.852  0.0527 -0.0007 -0.1484
20876W        W38400   2.034   5.520   2.531  0.0077  0.2322 -0.0950
20877W        W38401   3.471   3.734  12.567 -0.1202  0.1509  0.0036
20878W        W38402  13.698  17.536  14.158 -0.4178 -0.2729  0.0367
20879W        W38403  17.536  12.493   3.646 -0.1632  0.4080 -0.1346
20880W        W38404  12.980   5.002  13.248 -0.1440 -0.2417  0.0220
20881W        W38405   8.275  15.062  13.576 -0.1039  0.0528 -0.1426
20882W        W38406   3.403  12.265   1.804 -0.1813 -0.1066 -0.2925
20883W        W38407   4.767  16.860  16.219 -0.0253 -0.1938 -0.0180
20884W        W38408   3.114   7.789   2.589  0.1518 -0.0048  0.1780
20885W        W38409  15.174  11.322  11.178  0.0180 -0.0044  0.0195
20886W        W38410   4.002   3.381   1.469  0.0798 -0.1210  0.2273
20887W        W38411   7.717  13.002   4.032 -0.1390  0.0585 -0.0116
20888W        W38412  16.949  12.415  14.492 -0.3411 -0.1757  0.0419
20889W        W38413  16.560  14.311  11.984  0.0655  0.2064  0.0345
20890W        W38414   6.180   8.948  13.635 -0.0668  0.3934  0.0106
20891W        W38415   4.729  10.169  15.414  0.0208  0.1883 -0.0778
20892W        W38416   2.543  16.041   3.684  0.2480  0.2004  0.2884
20893W        W38417  15.331   0.922  13.334 -0.0258 -0.0317  0.0338
20894W        W38418  12.920   2.385   2.769 -0.1275 -0.0382  0.0984
20895W        W38419   1.883  13.484   0.305 -0.1580  0.1073 -0.3120
20896W        W38420  15.946  13.273   2.399 -0.2369 -0.0079 -0.0283
20897W        W38421  16.799   1.767  12.823  0.1250 -0.0031  0.0837
20898W        W38422  17.430  16.466  11.219 -0.4495 -0.1424  0.0947
20899W        W38423  16.372  15.688  14.622 -0.2107 -0.0180 -0.6080
20900W        W38424   4.736   1.368  12.744  0.4072  0.0944  0.0681
20901W        W38425   6.574  11.796   2.181 -0.0240 -0.0722  0.0738
20902W        W38426   8.079  11.778  14.757 -0.3090  0.1640 -0.1304
20903W        W38427  15.136  14.143   3.626  0.1125 -0.0937  0.1857
20904W        W38428   1.067   1.485  13.634 -0.0493 -0.0485  0.0588
20905W        W38429   1.620   5.080   5.006 -0.0459 -0.3860  0.1920
20906W        W38430   2.480  12.043  14.491 -0.4535  0.0528 -0.0129
20907W        W38431   5.983   2.179   4.641  0.2299  0.1845 -0.2254
20908W        W38432   2.129   7.323   1.077 -0.0496 -0.0587 -0.2542
20909W        W38433  12.180   3.907  13.286 -0.3243 -0.0410 -0.0083
20910W        W38434   3.013  15.642  12.370 -0.1750  0.0472  0.0240
20911W        W38435   7.190   5.341  12.837  0.1676  0.1653  0.0169
20912W        W38436  12.748  13.231   1.174  0.2557  0.0172  0.3004
20913W        W38437   5.989   1.886   0.891  0.1012 -0.2100 -0.1020
20914W        W38438  16.028  13.455   4.662  0.0290  0.1079  0.3815
20915W        W38439  16.570  11.439   4.607 -0.2420 -0.1834 -0.0806
20916W        W38440   6.683   9.503   2.343 -0.0334 -0.0309 -0.0791
20917W        W38441  11.468  12.167   0.063  0.1016 -0.1900  0.0173
20918W        W38442  13.134   9.362   0.368 -0.1123  0.0206  0.1551
20919W        W38443   3.579   3.576   2.601  0.2702 -0.1086  0.0302
20920W        W38444   9.355  12.471   4.878 -0.2476 -0.1066 -0.0738
20921W        W38445  15.808   6.395   3.761 -0.0079 -0.2728 -0.0471
20922W        W38446   9.378   9.156   1.604  0.1291  0.3393  0.2099
20923W        W38447  17.310  13.769   1.053 -0.2824  0.0240 -0.0460
20924W        W38448  11.621  15.720  11.569  0.0957 -0.0245  0.0857
20925W        W38449   8.924   7.156   4.689  0.0819 -0.0189  0.2334
20926W        W38450   9.229  15.034   3.720  0.0285  0.0655  0.0576
20927W        W38451  17.167  11.893  12.511 -0.3672  0.0142 -0.0078
20928W        W38452   4.211   1.587   2.465 -0.0180  0.1847 -0.1537
20929W        W38453   6.769   1.176   1.311  0.0771 -0.1110 -0.1875
20930W        W38454   5.133  12.588  11.515 -0.0076 -0.4644 -0.0153
20931W        W38455  17.815  10.560   4.267  0.0109  0.0801  0.2196
20932W        W38456  12.012   6.397  14.778 -0.1139  0.1940 -0.2519
20933W        W38457   0.710  13.033  13.137 -0.0412  0.0499 -0.1183
20934W        W38458  14.875   2.688   0.013  0.1546 -0.0695 -0.0748
20935W        W38459  14.157   4.173  13.362  0.0006  0.2609  0.3618
20936W        W38460  12.042   2.815   1.446  0.3526  0.0547 -0.0837
20937W        W38461   4.798   4.979  12.015 -0.3566  0.0502  0.2218
20938W        W38462   0.129  13.276  11.633  0.2139 -0.1170  0.0253
20939W        W38463   3.757   9.301  12.435 -0.0305  0.0263  0.3315
20940W        W38464  13.945  11.652   2.305  0.1058 -0.2012 -0.2140
20941W        W38465   9.237  12.757   3.218  0.0120  0.0641  0.0761
20942W        W38466   7.793   6.178   0.560 -0.0976  0.2478  0.0634
20943W        W38467  14.426   1.228   2.659 -0.2665 -0.0875 -0.0143
20944W        W38468   3.785  15.404  15.732  0.3279  0.1084  0.3875
20945W        W38469   8.837   3.798  11.671 -0.0542  0.0329 -0.3802
20946W        W38470   4.921  11.793  13.402 -0.1417  0.1167  0.0853
20947W        W38471   8.105   0.615   2.383 -0.1199 -0.0600 -0.2949
20948W        W38472   9.914   4.155  13.057 -0.1966 -0.0204 -0.3060
20949W        W38473   5.367   8.310   2.847 -0.0405 -0.1690  0.5342
20950W        W38474   2.319  13.166  15.732 -0.2601  0.0428 -0.0687
20951W        W38475   9.836  10.185   2.184  0.1881 -0.0754  0.1554
20952W        W38476  11.308   2.175  15.914 -0.0798  0.0640  0.1160
20953W        W38477  12.239   2.701   2.016  0.2811  0.1991  0.1957
20954W        W38478   3.329   5.912   3.866 -0.0050 -0.0379 -0.2643
20955W        W38479   5.865   8.431   3.074 -0.1419 -0.0476 -0.2831
20956W        W38480   7.318   8.623   0.200 -0.3991 -0.0960 -0.1035
20957W        W38481   0.542   1.439  14.785 -0.1116 -0.0100 -0.3663
20958W        W38482   4.225  10.862   3.051 -0.0411 -0.0048 -0.1051
20959W        W38483   4.234   2.088  14.166  0.1018 -0.2812  0.1968
20960W        W38484   7.714   3.783   4.544 -0.3183 -0.1768  0.3833
20961W        W38485  10.269  10.491   1.411 -0.0618 -0.0576  0.2676
20962W        W38486  15.234   7.618   1.837 -0.1241  0.2552 -0.2265
20963W        W38487  17.085   4.861   3.090 -0.1918 -0.0370 -0.1793
20964W        W38488   0.289   0.192  13.286 -0.1115  0.0836 -0.0915
20965W        W38489  10.661   4.748  11.436  0.1156  0.3041 -0.2897
20966W        W38490  15.612   2.257  11.646  0.0855  0.0071  0.0946
20967W        W38491  16.008   6.582  14.529 -0.1112 -0.0950  0.0126
20968W        W38492   4.919  14.977  12.770  0.0025 -0.0195  0.1525
20969W        W38493   8.016   9.861   3.993 -0.0067  0.1400  0.0192
20970W        W38494   9.135   8.504   3.968  0.1219 -0.2674 -0.0125
20971W        W38495  13.516   1.921  12.220 -0.1978 -0.0641  0.1224
20972W        W38496   6.249  13.437   5.285  0.2407  0.1310 -0.1985
20973W        W38497   5.338   9.422  13.993 -0.0065  0.2433 -0.2754
20974W        W38498   0.101  12.091  15.885 -0.0404 -0.0391  0.4359
20975W        W38499  17.456  14.234  16.086 -0.0967  0.1628 -0.1067
20976W        W38500   1.135  12.403   0.731 -0.2926  0.0265 -0.1693
20977W        W38501   7.791   4.373  13.578 -0.2622  0.0708  0.2582
20978W        W38502  13.409  15.357   1.697 -0.0878 -0.1098  0.0521
20979W        W38503  11.942  10.162  13.127 -0.1852 -0.1851  0.1212
20980W        W38504   7.011  13.899   2.964  0.0330  0.0090 -0.0365
20981W        W38505   4.401   8.757  13.867  0.1795 -0.0994  0.0276
20982W        W38506   8.225  15.867   4.517 -0.1901 -0.2057  0.2330
20983W        W38507  12.167  11.094   4.408 -0.0666 -0.1008  0.0834
20984W        W38508  16.487   9.014   2.539 -0.0834  0.1664  0.0149
20985W        W38509  14.785  12.302   0.651  0.1567 -0.1277 -0.2132
20986W        W38510   1.956  16.750   1.933 -0.2843 -0.0270 -0.3397
20987W        W38511   0.606   3.121  12.251  0.1325 -0.1092 -0.2502
20988W        W38512  10.356  14.575   0.417  0.0678  0.0002  0.0411
20989W        W38513   8.909  10.082  13.748  0.2052  0.0241  0.2467
20990W        W38514   6.803  16.905  14.173 -0.0539  0.2648  0.1749
20991W        W38515  15.621  13.489  13.696  0.1805 -0.2285 -0.3834
20992W        W38516   9.232  16.267  13.520 -0.1451  0.1107 -0.1847
20993W        W38517  15.678  15.351  15.203 -0.0575  0.0466  0.0802
20994W        W38518  10.618   6.227   1.724  0.1011  0.2134 -0.0575
20995W        W38519   1.487   8.989   1.053 -0.3732 -0.2822 -0.3538
20996W        W38520  15.456   8.451   4.600  0.0942  0.0632 -0.1616
20997W        W38521   0.740   9.094  11.522 -0.1787  0.4433 -0.0341
20998W        W38522  14.597  15.758   2.471 -0.0594  0.0147 -0.0823
20999W        W38523   9.310  10.593   3.426  0.0515  0.0206  0.0638
21000W        W38524   3.789   2.382  11.407  0.0614 -0.3906  0.1316
21001W        W38525  12.734   7.939  12.356 -0.1679  0.0961 -0.0308
21002W        W38526  16.916  16.088   3.423 -0.1852  0.0174 -0.1800
21003W        W38527   4.005   5.722   5.574 -0.0268  0.3719 -0.0069
21004W        W38528   7.312  12.602  15.716  0.0191  0.2027  0.1300
21005W        W38529   5.012   7.262  13.578 -0.1443 -0.3784 -0.1864
21006W        W38530  11.341  12.802  12.183 -0.3343  0.0447  0.2645
21007W        W38531  16.749  13.893   0.436  0.1023 -0.2151  0.3004
21008W        W38532  17.742   4.491  12.627 -0.1524 -0.3863 -0.0856
21009W        W38533  16.855   5.525  11.051  0.0038  0.0704 -0.0901
21010W        W38534  10.145  13.840   5.075  0.1616 -0.1824  0.0685
21011W        W38535  16.263  10.749   1.135  0.0819 -0.3279  0.2293
21012W        W38536  16.643  16.699   2.102 -0.2451 -0.0121  0.0332
21013W        W38537  10.225  10.114   2.912  0.1504 -0.0171  0.1334
21014W        W38538   1.737  12.233  14.506  0.0504 -0.0598 -0.0578
21015W        W38539  11.898   7.489  11.150  0.1936  0.0881  0.4618
21016W        W38540   5.418  13.379   0.704  0.1478  0.1922  0.2676
21017W        W38541  17.900   1.831  13.406 -0.1928  0.0693  0.0611
21018W        W38542   0.363   9.978   2.296  0.2885 -0.0984  0.2007
21019W        W38543  10.388   3.550   0.461 -0.1250 -0.0696  0.1029
21020W        W38544   5.153   5.875   1.392 -0.0846 -0.1054  0.3083
21021W        W38545  13.263  11.234  15.214  0.0945 -0.1956 -0.2795
21022W        W38546   4.865   6.625  15.027  0.0723  0.2345  0.3164
21023W        W38547  17.072   9.320   4.795 -0.1244  0.1641  0.0953
21024W        W38548   4.909  16.167  13.147 -0.0030 -0.4893  0.1625
21025W        W38549   9.815  16.725   3.275 -0.1479  0.0638 -0.4729
21026W        W38550  14.919   6.507  14.573 -0.2633  0.3380 -0.4177
21027W        W38551   6.554   7.714   1.725 -0.1513  0.2693  0.0442
21028W        W38552  17.612  15.345   1.265  0.0415 -0.0361  0.1221
21029W        W38553  15.911   4.923  15.418  0.2725 -0.1828  0.0412
21030W        W38554  11.720   4.955  15.490 -0.4162 -0.2677  0.1594
21031W        W38555   9.349  17.711  12.671  0.2199 -0.0542 -0.2565
21032W        W38556   9.512  12.328  11.614  0.0297  0.2903  0.1522
21033W        W38557  10.481   6.728   0.376 -0.0191  0.0576 -0.0872
21034W        W38558   3.153  16.577  13.724 -0.1113 -0.1351 -0.0003
21035W        W38559   6.005  16.959   2.621 -0.1974  0.0917  0.1554
21036W        W38560  10.103   7.785  14.751  0.1379  0.1429  0.2831
21037W        W38561   2.732  14.336   1.115 -0.1024 -0.0623  0.0222
21038W        W38562  17.520   0.199   1.782  0.0199  0.5659  0.1249
21039W        W38563   5.895  14.219   2.680 -0.3148  0.2184  0.0165
21040W        W38564   7.915  12.486   0.229 -0.2223  0.0794  0.0291
21041W        W38565  10.211  14.467  12.065  0.2771  0.2347  0.0539
21042W        W38566   1.813   2.403   4.072 -0.0172  0.2117 -0.0021
21043W        W38567  14.115   0.700   3.420  0.0080  0.0311 -0.4819
21044W        W38568   4.866   7.340  11.808  0.2434  0.3153 -0.0065
21045W        W38569   9.940  11.204   0.894  0.1567 -0.2491 -0.2111
21046W        W38570   5.516  10.181  11.089 -0.0806 -0.1458 -0.1213
21047W        W38571  17.608  11.525  13.458 -0.0695  0.0250 -0.1159
21048W        W38572  17.515  10.515   3.784 -0.1840  0.2860  0.2182
21049W        W38573  13.845   1.322  12.780  0.0656  0.0637  0.0345
21050W        W38574  15.958   2.089   1.900  0.0932  0.2857 -0.0263
21051W        W38575  11.875   5.446   0.467 -0.3435  0.0271  0.0801
21052W        W38576   3.043  11.754   1.163  0.1338  0.0526  0.1592
21053W        W38577   1.542  16.543  12.143 -0.3097 -0.2232 -0.0595
21054W        W38578   8.841  12.979  13.493 -0.3126  0.2066 -0.3027
21055W        W38579  11.299  12.437  13.344 -0.2542 -0.1897  0.0062
21056W        W38580   5.845  17.942  14.641  0.4860 -0.0797 -0.1546
21057W        W38581   6.996   7.999   4.894  0.1835  0.0380  0.0104
21058W        W38582   6.101   8.528  14.748  0.1655 -0.4025 -0.1894
21059W        W38583  11.000  16.410  14.970  0.0301 -0.2564  0.0076
21060W        W38584  15.131  12.980   3.039 -0.0956 -0.2808 -0.0346
21061W        W38585   3.958  17.643   0.289 -0.3504  0.0253  0.1743
21062W        W38586  17.524  10.434  10.789  0.0249 -0.0418 -0.0913
21063W        W38587  10.906   9.476  11.865 -0.0397  0.3621  0.0976
21064W        W38588  10.948   6.126   2.014  0.1302  0.3961 -0.0150
21065W        W38589   4.797   0.837   5.833  0.1746 -0.0407 -0.1237
21066W        W38590   5.104   1.535   4.975  0.0648 -0.2139  0.0077
21067W        W38591  13.211   1.858   3.047 -0.0040  0.0070  0.0590
21068W        W38592  16.841   1.766   2.189 -0.0210 -0.0381 -0.0807
21069W        W38593   6.025   4.614  12.091 -0.0723 -0.2251 -0.1400
21070W        W38594  10.825  10.306  11.535  0.0999  0.1363 -0.1900
21071W        W38595  11.486   5.695   5.195 -0.0061 -0.0844 -0.3255
21072W        W38596  10.449   4.329   2.927 -0.0091  0.0203 -0.2266
21073W        W38597   3.244   1.366   4.528 -0.1949 -0.1090 -0.1396
21074W        W38598   9.613   6.942  15.044 -0.1158 -0.0358  0.3054
21075W        W38599   7.748   5.911  13.544 -0.1215 -0.0311 -0.1564
21076W        W38600   8.275   1.243   3.143  0.2081  0.2728 -0.0411
21077W        W38601   1.060   8.509   2.225 -0.0634 -0.2218  0.1182
21078W        W38602  17.138   3.993   2.574  0.0996 -0.3243 -0.1642
21079W        W38603  11.481  12.921  14.125 -0.0732  0.0644 -0.0248
21080W        W38604  14.779   7.276  14.191  0.0167 -0.1643 -0.1693
21081W        W38605  13.215   3.020  12.369 -0.0448 -0.2307  0.0075
21082W        W38606   2.002  15.247  13.140  0.1519 -0.2509 -0.1083
21083W        W38607  16.331  11.352   0.053  0.0924 -0.1581 -0.0958
21084W        W38608   6.890  11.466  14.673 -0.1113  0.1851  0.1141
21085W        W38609   5.593  17.455   3.270  0.0364 -0.2246 -0.0250
21086W        W38610  17.344   5.227   5.767  0.0569  0.3526  0.0442
21087W        W38611   0.356  10.639   0.385 -0.1988 -0.3018 -0.1393
21088W        W38612   4.572  14.396   1.269 -0.1084 -0.1620 -0.0351
21089W        W38613   7.619  14.117  15.619 -0.3364  0.4086  0.2195
21090W        W38614  12.954   2.879   2.571 -0.0429 -0.1157  0.1213
21091W        W38615   7.645  13.097  10.619 -0.0875 -0.1438 -0.2226
21092W        W38616   2.723   5.169  15.782  0.0993  0.0037 -0.1703
21093W        W38617  13.793  10.867   4.769  0.2199 -0.0288 -0.1616
21094W        W38618  12.096  15.720   3.006  0.0893 -0.1054 -0.0741
21095W        W38619  17.443   0.511  13.479 -0.0232 -0.0579 -0.2155
21096W        W38620   6.684   3.160  16.252  0.1825 -0.1178 -0.1350
21097W        W38621   4.786   5.184  12.440  0.1926  0.1264 -0.0633
21098W        W38622   5.677   7.254   2.780 -0.0014  0.4302 -0.1178
21099W        W38623  17.913  11.157   3.013  0.1271  0.0151 -0.0452
21100W        W38624  17.942  11.841  12.886 -0.1144 -0.0184 -0.1134
21101W        W38625  14.012   9.505   3.857 -0.0612  0.3192 -0.4521
21102W        W38626   0.249   6.777   4.075  0.0158 -0.0451 -0.0244
21103W        W38627   2.459  14.326   3.515 -0.1452 -0.0544  0.2870
21104W        W38628  13.284   6.932  13.537 -0.0091 -0.0792  0.1242
21105W        W38629   3.963  17.410   1.274  0.2043  0.2016 -0.1966
21106W        W38630   9.296   8.992   0.589  0.1818  0.1080 -0.0714
21107W        W38631   5.902   9.780   5.635  0.0606  0.2739  0.0556
21108W        W38632   4.473   0.453  15.310 -0.0675 -0.1346 -0.0200
21109W        W38633   8.942  12.833   1.556 -0.0736 -0.0036 -0.2009
21110W        W38634  15.809  13.772   2.196  0.1067 -0.1303 -0.1120
21111W        W38635  10.804   8.530  11.372  0.0867 -0.0552  0.1488
21112W        W38636   6.141  17.348  15.927  0.1937 -0.0909  0.0701
21113W        W38637   9.535   5.305  12.429  0.3059  0.0508 -0.2239
21114W        W38638  17.834   1.081   5.297 -0.0020 -0.2180 -0.2262
21115W        W38639   5.909  17.916   4.946  0.0143 -0.2299 -0.0860
21116W        W38640   0.431  16.954   1.266 -0.1500  0.5137 -0.1274
21117W        W38641  10.344   7.684  15.213 -0.0691  0.2573 -0.2529
21118W        W38642   1.844  15.108  12.658 -0.1059  0.2308 -0.1393
21119W        W38643   8.705  13.585  14.506  0.1882  0.0180 -0.0208
21120W        W38644   9.411  17.497  13.500 -0.0533  0.0865  0.2658
21121W        W38645   5.302   6.538   1.641 -0.0302  0.3679 -0.0556
21122W        W38646   7.138   6.173  13.053 -0.1407  0.0003  0.1993
21123W        W38647  11.152   0.342  12.060  0.1831 -0.1263  0.2709
21124W        W38648   2.739  17.879  15.303  0.3937 -0.0507  0.0338
21125W        W38649  14.339   5.635  13.881  0.0100  0.2380  0.0500
21126W        W38650   3.435   7.174   2.328 -0.0512  0.0080  0.0537
21127W        W38651   9.090  13.853  15.523 -0.2375  0.3267  0.1364
21128W        W38652   8.448   4.899  12.395 -0.2370  0.0697 -0.1399
21129W        W38653  12.567   8.228  11.991 -0.1593 -0.0577 -0.0089
21130W        W38654  14.222   3.018  15.830  0.1590 -0.2897  0.1092
21131W        W38655   6.202   5.508   3.973  0.1428  0.2116 -0.0428
21132W        W38656  14.130   5.593  13.326  0.0304  0.1137 -0.0401
21133W        W38657   2.599  10.974   6.052 -0.2209 -0.1432  0.0863
21134W        W38658  14.633   5.071  15.836 -0.1372  0.1672  0.0621
21135W        W38659   7.912   9.497   4.881 -0.3332 -0.0012  0.3902
21136W        W38660  17.642   4.448  15.198  0.3329  0.1476  0.2209
21137W        W38661  16.209  13.557   2.040 -0.2498 -0.2084  0.0404
21138W        W38662   4.131  13.946  12.793 -0.2936 -0.0110  0.2880
21139W        W38663  17.866   2.945  13.859 -0.0222  0.0977 -0.1636
21140W        W38664   9.044   9.338  12.312 -0.2731 -0.1225 -0.0690
21141W        W38665  17.535  12.995  15.139 -0.1722  0.0396  0.0737
21142W        W38666   6.901  16.063  12.655 -0.0406 -0.1620 -0.0744
21143W        W38667   2.625  17.020   3.629  0.1222 -0.0206  0.0866
21144W        W38668   5.062   0.570   0.436 -0.2012 -0.2292 -0.0143
21145W        W38669   4.460  16.380  14.647 -0.0321  0.2817  0.5304
21146W        W38670   2.392   9.603   3.703  0.2916 -0.2138  0.4022
21147W        W38671  16.054  15.144  14.047 -0.2188 -0.1182  0.0468
21148W        W38672   5.810  10.428  14.190 -0.0807  0.1872  0.0284
21149W        W38673  13.515   7.520  16.024  0.1002  0.3355 -0.1158
21150W        W38674  11.037  15.818   3.431  0.2308 -0.1341  0.0960
21151W        W38675  12.891  12.159  11.120  0.0223  0.4205  0.1809
21152W        W38676   6.544  12.698   0.619  0.0536 -0.0844  0.0400
21153W        W38677  12.757  15.616   4.322  0.1252  0.0273  0.3251
21154W        W38678  14.248   0.299  13.902  0.2878 -0.0915 -0.0929
21155W        W38679   7.592   7.806   2.981 -0.1048  0.3239 -0.1900
21156W        W38680  17.194   8.185  13.787 -0.0621  0.1456  0.1594
21157W        W38681   6.073   5.081   4.213  0.2464  0.0626  0.1185
21158W        W38682  13.457   3.551  15.111  0.1023  0.1300  0.1563
21159W        W38683  16.651   9.346   1.579  0.0161  0.0673 -0.0293
21160W        W38684   9.614  10.252  15.110  0.1758  0.0991  0.1270
21161W        W38685  16.841  15.812  14.744  0.0053 -0.2044  0.0905
21162W        W38686   4.811  10.811  14.194  0.0495  0.0015 -0.1297
21163W        W38687  13.992   0.341   4.766 -0.2345  0.2045 -0.1501
21164W        W38688  15.714   6.153   1.440 -0.1967 -0.0231 -0.0134
21165W        W38689  13.013   7.571   4.059 -0.0732  0.0179 -0.1501
21166W        W38690   3.832  10.049  15.618  0.0124 -0.0512 -0.2740
21167W        W38691  14.731   7.454  14.657  0.0368  0.3160  0.4862
21168W        W38692  15.891   0.660  14.726 -0.2227  0.0932 -0.0865
21169W        W38693  14.703  11.700   5.339 -0.2891  0.1225  0.1009
21170W        W38694   6.889  11.912   2.555 -0.1041 -0.0780  0.0256
21171W        W38695  15.627   8.681  11.542 -0.1627  0.1641  0.1014
21172W        W38696   5.224  16.024   3.177 -0.0165 -0.0787  0.2708
21173W        W38697   0.830   0.832  12.023 -0.2086 -0.0848  0.0003
21174W        W38698  15.383   5.307  10.550 -0.1835 -0.2432 -0.0429
21175W        W38699   8.569   7.566   4.510  0.0713 -0.1506  0.0625
21176W        W38700  16.530   2.352  13.662 -0.0720  0.1379  0.3532
21177W        W38701  13.974  17.395   2.714  0.1108 -0.0061  0.1881
21178W        W38702  15.121  17.924  14.212 -0.0664 -0.0482 -0.0887
21179W        W38703  16.847  10.096   0.513 -0.0427 -0.1285  0.2967
21180W        W38704   6.167   0.501   2.365 -0.0739 -0.1395  0.2771
21181W        W38705  12.873   8.336  15.938  0.1348  0.2021  0.1087
21182W        W38706   8.321  13.110  13.472 -0.0486 -0.3243 -0.0439
21183W        W38707  11.366   5.189  11.442  0.1181 -0.3269  0.3441
21184W        W38708   2.473  12.097   4.857  0.1104 -0.0693  0.0322
21185W        W38709   9.268  16.433   0.689  0.0578  0.3549  0.0584
21186W        W38710  12.210  12.629   2.436 -0.1264 -0.1505  0.0638
21187W        W38711   9.225   7.614   3.083 -0.1506 -0.2000  0.1125
21188W        W38712   2.175   4.501  15.967 -0.1325  0.0335 -0.1058
21189W        W38713  17.661   8.200   4.504  0.2301 -0.0157  0.0071
21190W        W38714  16.565  13.320   3.170  0.2781  0.3655 -0.2301
21191W        W38715   6.275  16.777   3.023  0.1473 -0.0168 -0.0432
21192W        W38716  12.949  14.941   1.700 -0.1405  0.1048 -0.0491
21193W        W38717  16.112  14.411   5.547  0.0121  0.4465  0.1660
21194W        W38718  14.378   7.299  11.684 -0.1765  0.2236 -0.1314
21195W        W38719   4.403   7.094  14.664  0.1897  0.1774 -0.0509
21196W        W38720  17.845  12.679   1.096 -0.0216  0.2734 -0.1611
21197W        W38721  16.000   3.327   1.201 -0.0914 -0.1335  0.0503
21198W        W38722   4.361   4.186   1.112  0.3978 -0.0121 -0.1895
21199W        W38723   7.665   7.674   3.439 -0.0404  0.4644  0.0323
21200W        W38724  12.704   8.221   2.409  0.0672  0.0361 -0.2075
21201W        W38725   6.436  12.526  15.840 -0.1719 -0.2198 -0.0253
21202W        W38726  13.015  10.073  15.937 -0.0253  0.2194  0.2411
21203W        W38727  14.658  14.823   3.215  0.1604 -0.0668 -0.1435
21204W        W38728  13.429   6.109   1.027 -0.0112 -0.0851 -0.1016
21205W        W38729   1.993   6.042   2.702 -0.0202 -0.2663  0.1315
21206W        W38730  11.431  10.877   1.913 -0.3265 -0.1616  0.0877
21207W        W38731  11.452   5.345  11.995  0.0406  0.1781 -0.2141
21208W        W38732   0.428  12.601  14.012  0.1908  0.0779  0.1759
21209W        W38733  12.448   5.677   4.715 -0.1690  0.0999 -0.0517
21210W        W38734   4.175  11.881   3.310 -0.1581  0.1508 -0.1519
21211W        W38735   5.634  16.590  11.958  0.2117 -0.3769 -0.0481
21212W        W38736   9.854   5.352  14.300  0.0043  0.0076 -0.2178
21213W        W38737   1.555  14.571  15.623 -0.1819  0.1563  0.0092
21214W        W38738   3.139   7.863  15.684  0.1478  0.1246  0.1414
21215W        W38739  13.775   6.071   4.331 -0.1213  0.1907  0.2325
21216W        W38740  15.731   5.316  11.608 -0.1174 -0.3458 -0.0867
21217W        W38741   9.074  12.570  14.563  0.0063  0.2834 -0.2343
21218W        W38742   6.953   4.663   3.240 -0.0729 -0.2152 -0.1127
21219W        W38743   1.811   4.788  14.719  0.1081 -0.0569  0.2151
21220W        W38744   3.372   8.895  13.340 -0.0654 -0.3179 -0.0418
21221W        W38745   6.846  13.523   1.003  0.3762  0.0461  0.0178
21222W        W38746   7.680   4.633  12.309  0.0955  0.1411 -0.0852
21223W        W38747  13.093  13.192   3.396  0.1012  0.0150  0.0978
21224W        W38748  10.233   2.759  15.060  0.0071  0.0546  0.2811
21225W        W38749   9.866  11.344   2.464 -0.0948  0.0485  0.0627
21226W        W38750   9.534  11.038  16.130 -0.1871  0.1448  0.0678
21227W        W38751  10.425  14.831  14.209  0.6162 -0.2701 -0.3128
21228W        W38752   6.691   1.694  12.832  0.1342  0.0361 -0.3322
21229W        W38753  10.414  11.648   1.407  0.0193 -0.1477  0.1521
21230W        W38754  11.375   3.448  12.455  0.0450  0.5642 -0.0779
21231W        W38755  16.522   4.180   1.186 -0.2620 -0.1213 -0.3777
21232W        W38756   5.988   4.865   4.666 -0.2337 -0.0275 -0.2357
21233W        W38757   8.505   1.516  11.794 -0.0133 -0.2023  0.1833
21234W        W38758  14.264  13.612   2.971 -0.0539 -0.1397  0.0428
21235W        W38759  14.013   1.568   0.550 -0.3653  0.2778 -0.0595
21236W        W38760   0.988   0.634  13.168  0.2045  0.1134 -0.0188
21237W        W38761  11.787  12.052  15.991 -0.1420 -0.0611  0.0476
21238W        W38762   7.835   4.742  14.980  0.1832  0.1127 -0.2166
21239W        W38763  12.499   6.040   2.617  0.0968 -0.2124 -0.3707
21240W        W38764   0.855   4.438  14.145  0.0158 -0.1880 -0.1407
21241W        W38765   4.684   6.104   0.886 -0.4576  0.1347  0.3531
21242W        W38766   1.262   2.361   1.137  0.1764  0.0322  0.0582
21243W        W38767   4.857  10.091  11.228 -0.1610  0.1241 -0.0700
21244W        W38768   0.398   1.995   6.015 -0.2296 -0.0321 -0.1438
21245W        W38769  13.187   4.845   2.868 -0.4801  0.2984 -0.0866
21246W        W38770  14.660   2.447  15.113  0.0807  0.1874  0.0730
21247W        W38771   2.040   0.385  16.073  0.1210 -0.0428 -0.0428
21248W        W38772  17.782  11.238  11.317  0.1309 -0.0276  0.4592
21249W        W38773  13.929   7.438  12.421  0.2465  0.1920 -0.2013
21250W        W38774  16.890  10.933  11.403 -0.1354  0.1970  0.1603
21251W        W38775   2.938  17.773  12.466  0.0806 -0.0719  0.0314
21252W        W38776  12.359   5.237  12.009  0.1242 -0.4110 -0.1797
21253W        W38777   4.635   6.079   3.536  0.4117 -0.0267  0.1225
21254W        W38778   3.229   2.687  15.317 -0.1031  0.1409 -0.1941
21255W        W38779  17.261   4.247  15.745  0.2416 -0.0843 -0.2384
21256W        W38780   0.063   9.732   0.285 -0.0665  0.0027 -0.2177
21257W        W38781  11.116   8.809  12.120 -0.0779 -0.0557  0.1319
21258W        W38782   5.145   5.724  13.687 -0.0882 -0.1384  0.1806
21259W        W38783  16.154  17.804  12.302 -0.2619 -0.0501  0.2198
21260W        W38784   1.443   3.925  14.456 -0.2457 -0.1937  0.0512
21261W        W38785  17.822  11.684  12.206 -0.0803 -0.0617 -0.3067
21262W        W38786   6.781  10.474  13.252 -0.0572  0.0278  0.0006
21263W        W38787   5.207   6.601  13.215 -0.1756 -0.1813 -0.2502
21264W        W38788  14.677  17.475  12.955  0.0386  0.1561  0.0966
21265W        W38789  14.108   6.049  13.522 -0.1763 -0.1561 -0.0344
21266W        W38790  10.922  13.658   4.034  0.0815 -0.2224  0.0139
21267W        W38791   2.985   8.645  12.601 -0.1752 -0.0087  0.0215
21268W        W38792   0.936   1.037   1.038 -0.2648  0.0611 -0.4980
21269W        W38793  15.912   6.661   1.407  0.1819  0.1082  0.0099
21270W        W38794  11.608  17.920  16.260  0.1909  0.1676 -0.0552
21271W        W38795   4.198   7.444  12.709  0.0847  0.1157  0.0224
21272W        W38796  17.224   7.950   3.584  0.0966  0.5072 -0.1624
21273W        W38797   4.363   6.259  11.868  0.0186 -0.0806  0.0722
21274W        W38798   9.405   7.169  14.195 -0.2878  0.2255  0.4762
21275W        W38799  17.483  14.085  15.530  0.0288 -0.1707 -0.2977
21276W        W38800   0.650  16.063  11.866 -0.1762 -0.1336 -0.0294
21277W        W38801   4.397  14.879   1.062 -0.1271 -0.2979  0.3166
21278W        W38802   8.354   8.380  14.951  0.0542  0.1995 -0.0544
21279W        W38803  11.757  13.324  15.826  0.1457  0.1260  0.1678
21280W        W38804   7.237   2.819  15.016 -0.3088  0.0275 -0.3386
21281W        W38805   2.810  14.345  13.725 -0.0545  0.0862  0.2105
21282W        W38806   5.522  14.638  12.482 -0.0002  0.0361  0.1748
21283W        W38807   1.604  17.152   3.975  0.2214 -0.1384 -0.1232
21284W        W38808  16.748  13.322  14.613  0.0104 -0.1923 -0.0073
21285W        W38809  15.320   9.743  11.786 -0.1476  0.2497 -0.0588
21286W        W38810  10.624   7.644  10.896 -0.1287 -0.1705  0.2450
21287W        W38811  13.276  12.424   1.746 -0.0717  0.0842  0.1067
21288W        W38812  16.744   7.843  12.464 -0.1168  0.2663  0.0951
21289W        W38813   1.438  14.206   0.200 -0.0879 -0.3726  0.1303
21290W        W38814   9.727  12.306   1.317  0.0303  0.0689  0.0685
21291W        W38815  11.377  10.841   2.538  0.0488 -0.2485  0.1919
21292W        W38816   7.747  10.039  11.686  0.0550  0.1339  0.0187
21293W        W38817  10.670  11.521   3.556 -0.1773  0.1392  0.0301
21294W        W38818   7.309   8.370  11.768 -0.0379  0.0846  0.0205
21295W        W38819  14.836  14.570   0.849 -0.0262  0.0103  0.1796
21296W        W38820  16.814  10.297  14.491  0.1037 -0.0121 -0.0754
21297W        W38821   5.974   3.728  15.105 -0.0023 -0.0195  0.0757
21298W        W38822   5.182   5.823   2.723  0.1484  0.1330 -0.0891
21299W        W38823   3.203   9.828  11.701 -0.1478 -0.2366  0.0839
21300W        W38824   5.558   7.962  16.134 -0.2523  0.1761 -0.0751
21301W        W38825   9.550  17.155  15.475 -0.2181 -0.0321 -0.2705
21302W        W38826  10.090  17.115  12.474 -0.1127  0.1934 -0.3685
21303W        W38827   6.757  11.392  12.162  0.1548  0.0528  0.2045
21304W        W38828   6.645  12.094  11.665  0.1321 -0.0933  0.0982
21305W        W38829   3.686   1.941  16.140 -0.0149 -0.0018  0.0272
21306W        W38830  17.834  17.579   3.672 -0.1721  0.0235 -0.1509
21307W        W38831  14.016   7.818   4.326 -0.0851 -0.0345 -0.1276
21308W        W38832   1.048  10.565   0.745  0.0315  0.5423 -0.1338
21309W        W38833   5.700  13.424  14.595 -0.1665  0.0069  0.3168
21310W        W38834  13.614   1.554   2.796 -0.1747  0.0215 -0.3346
21311W        W38835   7.862  17.918   4.780 -0.3337  0.1358  0.0366
21312W        W38836  14.332   3.968   2.213  0.2274 -0.3072 -0.0964
21313W        W38837  16.581  15.906  15.932  0.2582 -0.2917  0.0558
21314W        W38838   2.684   6.589  16.083 -0.2508 -0.0595  0.0187
21315W        W38839   0.493   8.175  15.053 -0.0818 -0.0441  0.2347
21316W        W38840   6.777   7.708  11.445  0.2675  0.1910  0.0212
21317W        W38841   6.551  12.021  13.708 -0.2811 -0.2131 -0.0141
21318W        W38842   1.754  11.203   1.891  0.2540  0.2248  0.0442
21319W        W38843   5.612  15.792  15.063 -0.0377  0.0829  0.0277
21320W        W38844   8.851   9.016   1.581  0.1737  0.0901 -0.2875
21321W        W38845   9.798  13.079  15.917 -0.1233  0.2404 -0.0064
21322W        W38846   9.447  13.578   1.578  0.2299  0.2700 -0.1487
21323W        W38847   1.670  14.315   2.978 -0.1071 -0.0452 -0.0454
21324W        W38848   9.705   1.728   3.062  0.2384 -0.1657 -0.1411
21325W        W38849   8.740  12.921  11.516 -0.0368 -0.3014 -0.2899
21326W        W38850   1.426  10.091  14.009  0.1214 -0.0852 -0.1514
21327W        W38851   6.997   2.254   4.591 -0.0000 -0.0155 -0.0363
21328W        W38852   5.531  15.686  13.081  0.0730  0.0410 -0.0217
21329W        W38853   8.289   1.304   3.705  0.1798  0.2085 -0.0439
21330W        W38854   0.511   9.377  11.910 -0.1343 -0.0552 -0.2618
21331W        W38855   1.963   3.888   4.361 -0.0434 -0.0196  0.0692
21332W        W38856  12.632  14.033  14.013  0.1359  0.1747 -0.1195
21333W        W38857  15.326  12.631  10.031  0.0052  0.1038  0.2725
21334W        W38858   4.606   3.380  13.297  0.1326  0.0091 -0.0466
21335W        W38859  10.707   1.962   3.645  0.2105  0.0061 -0.2899
21336W        W38860  17.885  10.062  11.613  0.2285  0.0330 -0.0483
21337W        W38861  15.835   1.266  15.969 -0.2250 -0.1730  0.3842
21338W        W38862  17.903   9.106   0.352  0.2392  0.0958 -0.1770
21339W        W38863  13.319   5.375   0.359 -0.1128  0.0369 -0.1504
21340W        W38864   7.482  17.874  14.793  0.2428 -0.2082  0.1092
21341W        W38865   4.404   0.991   3.827 -0.0744  0.0925 -0.2764
21342W        W38866  16.395  15.923   3.659 -0.0591 -0.1389 -0.2449
21343W        W38867  10.130  15.232  12.965 -0.3339  0.3425  0.0163
21344W        W38868  13.085  10.694   1.941  0.0691  0.0107  0.1062
21345W        W38869   3.562   6.677   0.415 -0.4454  0.0683  0.0475
21346W        W38870   9.940   3.088  15.475 -0.0437 -0.0773 -0.0434
21347W        W38871  15.762  14.369  12.055  0.2229 -0.1791  0.1774
21348W        W38872  12.681  17.875   0.069 -0.0568 -0.2127 -0.1728
21349W        W38873  12.853  16.059   3.535 -0.1572 -0.2721  0.2103
21350W        W38874   2.347   7.569   4.250  0.2490  0.1970  0.2523
21351W        W38875  17.686   5.592   2.855 -0.2638 -0.1514 -0.3089
21352W        W38876  17.171   6.571  12.782 -0.1545  0.1956  0.2857
21353W        W38877  14.252   6.186   4.169 -0.2104 -0.1683  0.1416
21354W        W38878   0.098   1.532  12.806  0.1106 -0.2269 -0.0536
21355W        W38879   0.291  15.853  14.500 -0.0467  0.3168  0.0872
21356W        W38880  11.666   0.093  15.722  0.0164  0.0480  0.0264
21357W        W38881  16.828   9.588   3.136 -0.0495 -0.0076  0.1324
21358W        W38882   7.287   4.772   2.350  0.0024 -0.1463 -0.0137
21359W        W38883  14.353  11.552   4.479 -0.0153  0.0022 -0.0321
21360W        W38884  10.804  15.304  14.433 -0.2205  0.1829 -0.1538
21361W        W38885  10.663   4.225  14.180  0.0467 -0.0965 -0.2760
21362W        W38886   5.988   1.041   3.141  0.2765 -0.3283 -0.0740
21363W        W38887  16.387   3.428   3.762 -0.0192  0.3097 -0.0033
21364W        W38888  16.971   1.308   1.029 -0.0754 -0.0486 -0.0087
21365W        W38889  13.415   5.558  15.801  0.0822 -0.2588 -0.0463
21366W        W38890   2.237   7.629  12.301  0.0823 -0.1518 -0.1441
21367W        W38891   0.419  14.045   0.166 -0.0973 -0.1428  0.1679
21368W        W38892   7.326  15.686  15.365 -0.1075  0.1476  0.1406
21369W        W38893  11.097   0.495   3.580 -0.3524  0.4398  0.0106
21370W        W38894   4.925  15.312  11.882  0.3085 -0.4965  0.1086
21371W        W38895  13.909   9.972   3.102  0.3955  0.1706  0.3317
21372W        W38896   7.206  16.421   4.629  0.3013  0.0214 -0.0443
21373W        W38897   0.688   0.854  12.827 -0.0926  0.1909 -0.1434
21374W        W38898  17.409   6.887   2.893  0.0719 -0.0020 -0.1679
21375W        W38899  17.863   2.581  13.561 -0.1259 -0.0868  0.1119
21376W        W38900   0.037  13.393  15.808  0.0619 -0.2681  0.2804
21377W        W38901  12.403   2.952  13.424  0.3730 -0.0097  0.1274
21378W        W38902  16.562  11.398   1.879  0.1554  0.1002 -0.0341
21379W        W38903   3.830  14.781   1.493  0.2535 -0.1550 -0.0473
21380W        W38904  10.168   9.175  13.696 -0.2511  0.0920  0.0056
21381W        W38905   0.914   2.248  11.832  0.1199 -0.1166 -0.0364
21382W        W38906   8.399   2.317  13.543 -0.1311  0.3620  0.0205
21383W        W38907  11.651  13.965   0.587  0.1151 -0.2370 -0.3602
21384W        W38908  16.778   9.346  12.942  0.0759 -0.2531  0.2347
21385W        W38909   7.217   2.195  13.944  0.0948  0.1626  0.3029
21386W        W38910  17.204  16.771  12.477 -0.0448 -0.0047 -0.1450
21387W        W38911  13.323  10.595  12.181 -0.0507  0.1664  0.0399
21388W        W38912  14.011   1.831   0.109 -0.0168 -0.1686 -0.0325
21389W        W38913  14.405  12.333   4.094 -0.1929 -0.0430  0.5661
21390W        W38914   1.116   5.233  16.136 -0.4487  0.0979 -0.1451
21391W        W38915   4.817   9.027  13.868  0.0553 -0.3048 -0.1318
21392W        W38916   0.534  17.600  11.644  0.1144 -0.0297  0.0338
21393W        W38917  14.022   8.681  13.126  0.0374  0.0370  0.0201
21394W        W38918   5.469  16.515   6.192  0.1733  0.0211  0.1281
21395W        W38919   4.348  16.447   1.630 -0.1060  0.2945 -0.0863
21396W        W38920   1.245   8.565  10.460 -0.2269 -0.0861  0.0012
21397W        W38921  16.410  12.208   4.963  0.0543  0.0033 -0.0750
21398W        W38922  14.921   6.082  12.344 -0.1604  0.1265 -0.2139
21399W        W38923  17.307  10.073  14.392  0.2313  0.1041  0.0624
21400W        W38924  13.303   1.034  16.075  0.3708 -0.1896  0.0634
21401W        W38925   8.579   7.027  15.471  0.1856 -0.0231  0.0063
21402W        W38926   9.094   5.523  15.459 -0.1539  0.0479 -0.1334
21403W        W38927   4.367  10.062   0.942 -0.0793 -0.0264 -0.1679
21404W        W38928   6.155   4.171  12.244  0.2798  0.2755 -0.1060
21405W        W38929  17.749  16.470  16.200  0.1285  0.4624 -0.0530
21406W        W38930  17.646   1.198   2.674 -0.1865 -0.2838 -0.2909
21407W        W38931  10.105   1.326   4.281  0.1655 -0.1269 -0.0915
21408W        W38932   4.475   9.038  11.213 -0.1392 -0.1671 -0.0719
21409W        W38933   9.113   7.017  13.815  0.0105  0.0729  0.1443
21410W        W38934   8.675  16.091   4.810 -0.0443  0.3953  0.0770
21411W        W38935   8.521  16.774   3.422 -0.0497 -0.2472 -0.1873
21412W        W38936   2.319  10.005   1.747 -0.1792 -0.3862  0.0880
21413W        W38937   3.968   1.490  16.148 -0.1167  0.0860  0.2088
21414W        W38938   3.159  10.168  14.637  0.0712  0.0449  0.1564
21415W        W38939   3.354   7.732  15.251  0.2357  0.0453  0.2155
21416W        W38940  12.147   1.555   1.134  0.2138 -0.3297  0.2438
21417W        W38941  14.976   2.716  12.657 -0.1093  0.1669 -0.1469
21418W        W38942  15.089   9.726   2.340 -0.1203  0.0340  0.0536
21419W        W38943   8.982   9.581   4.573 -0.0276 -0.1522 -0.3861
21420W        W38944   7.022  10.738   1.883 -0.2617 -0.2504  0.1344
21421W        W38945   1.233   2.002  14.828 -0.1706  0.2400  0.4129
21422W        W38946  12.240   4.427  11.505  0.1410 -0.1812  0.1368
21423W        W38947  12.945   2.292   3.247  0.0907  0.1054  0.1940
21424W        W38948  16.296   6.710   0.159  0.0798 -0.2680  0.2027
21425W        W38949   7.492  16.565   5.051 -0.0092  0.0628 -0.0513
21426W        W38950   3.155  17.959   0.852 -0.1581  0.0855 -0.1061
21427W        W38951   7.991  11.603  14.226  0.2096 -0.0130  0.2086
21428W        W38952   3.438   2.132   0.649 -0.0880  0.1216  0.3325
21429W        W38953  11.571  13.682  16.153  0.2564  0.0010 -0.0129
21430W        W38954   9.218   9.067  14.633 -0.0538  0.0941 -0.0431
21431W        W38955  17.699   3.461   4.202 -0.1022  0.3162 -0.0066
21432W        W38956  11.142  10.241  16.193  0.1650  0.1085 -0.0868
21433W        W38957  13.397   7.584  13.888  0.0060  0.2177 -0.3173
21434W        W38958   0.869  14.843   0.164 -0.1726 -0.4898 -0.0626
21435W        W38959  10.041   1.725   3.456  0.0181 -0.0009  0.1168
21436W        W38960   3.656   0.361   2.430  0.0847  0.0660 -0.2298
21437W        W38961   0.299   6.292  14.532 -0.1968  0.2768  0.0063
21438W        W38962  11.064   7.746   1.068  0.0634 -0.0460  0.0665
21439W        W38963  12.712   6.448   2.808  0.0109 -0.0212  0.0279
21440W        W38964  15.459   4.694  14.451  0.0361 -0.1243  0.2961
21441W        W38965   4.812  17.288   1.399 -0.0218  0.0559 -0.1422
21442W        W38966   8.222  16.162   1.791  0.0985  0.2345 -0.0187
21443W        W38967   7.040   0.775  15.085  0.0961 -0.0413  0.0678
21444W        W38968  13.014  10.801  15.708  0.1128 -0.2161 -0.0255
21445W        W38969   0.777  16.322   3.037  0.2285 -0.2905  0.3101
21446W        W38970  11.588  11.185  14.358 -0.0024 -0.2087 -0.1796
21447W        W38971  16.772  15.166   1.302  0.1731 -0.0742 -0.0460
21448W        W38972   1.829   3.602  15.504 -0.0280  0.1445  0.1334
21449W        W38973  14.872  11.824   2.369 -0.0742  0.0248  0.2821
21450W        W38974  16.382  13.477  14.960  0.1019 -0.0451 -0.2101
21451W        W38975  15.922  17.388  12.547  0.1095  0.3111  0.2992
21452W        W38976  11.322   8.582  15.832 -0.0357 -0.1648  0.2550
21453W        W38977  10.517   7.658  11.626 -0.1729  0.1379 -0.0184
21454W        W38978   2.267   0.861  15.161 -0.1068  0.0443  0.0632
21455W        W38979   7.553  14.230   2.192 -0.1260  0.0280 -0.0989
21456W        W38980   0.043   7.724   3.269  0.1553  0.0535 -0.1867
21457W        W38981   6.395   8.121  11.454 -0.2382  0.2463  0.2404
21458W        W38982  17.506  10.297   3.309  0.0796 -0.1306  0.3178
21459W        W38983   6.210  13.501  15.430  0.1825 -0.0200  0.0479
21460W        W38984  12.031  15.415  13.630  0.2804 -0.1285  0.0158
21461W        W38985  14.066  13.011  13.280  0.0758 -0.0153  0.0789
21462W        W38986   1.298  16.851  14.570 -0.0621  0.1200  0.0693
21463W        W38987   9.127  14.437  12.551 -0.1355 -0.1317 -0.4248
21464W        W38988  14.381   9.066   2.524 -0.3006 -0.0453  0.4488
21465W        W38989  16.031   4.156  12.526 -0.0817  0.2292 -0.1836
21466W        W38990  12.943  17.107  14.392 -0.0615  0.1425  0.2395
21467W        W38991   9.894   2.262   0.243 -0.2744 -0.1512  0.2346
21468W        W38992  17.065  17.107  14.186  0.1320  0.0670  0.0489
21469W        W38993  12.152   4.488   3.403 -0.2588 -0.3101  0.0730
21470W        W38994   2.576  17.489  15.004  0.2932 -0.0181 -0.2716
21471W        W38995  10.353   6.338   0.781  0.1497 -0.1092  0.1205
21472W        W38996   1.936  16.816   4.824  0.2492 -0.0742 -0.3650
21473W        W38997   2.758  10.576  13.276 -0.1980  0.0156  0.1140
21474W        W38998  11.445   9.785  13.219 -0.3317 -0.0687  0.1572
21475W        W38999   7.844  17.725   2.641  0.2566 -0.2131 -0.1601
21476W        W39000   5.256   0.598   1.919 -0.1139  0.1748 -0.1372
21477W        W39001   8.580  16.256   0.934  0.0940 -0.0037  0.1147
21478W        W39002   0.962   7.979   4.689  0.0696 -0.0682  0.1107
21479W        W39003   6.559  12.364  14.684 -0.1478  0.0994  0.0572
21480W        W39004   5.088  15.684  11.020  0.2011  0.2420 -0.0247
21481W        W39005  11.739   7.211   0.678  0.4013 -0.1833 -0.2868
21482W        W39006   4.432   8.171   2.614  0.0262 -0.0420  0.0736
21483W        W39007   7.426   2.302  16.216 -0.2378 -0.0299 -0.0756
21484W        W39008   6.053   7.921   3.442 -0.1403  0.0119 -0.0632
21485W        W39009  15.476  14.608  12.795 -0.1116  0.0340 -0.0355
21486W        W39010   5.573   0.764  11.747 -0.0402  0.0790 -0.0023
21487W        W39011  16.270   1.074   2.309 -0.2924  0.1291  0.3203
21488W        W39012   0.114   4.482  15.896  0.0865 -0.0319  0.0210
21489W        W39013   1.703   9.884   1.208 -0.1643  0.3327 -0.2903
21490W        W39014  10.470  10.777   3.849  0.0556  0.1379 -0.1521
21491W        W39015  17.674  11.823   1.219 -0.2131  0.2002  0.0371
21492W        W39016   2.579   3.832   3.168 -0.1565 -0.1374 -0.1000
21493W        W39017  17.391  11.331   3.914  0.1370 -0.5452 -0.3708
21494W        W39018  11.413   8.947  16.150  0.1434  0.2251 -0.2012
21495W        W39019  16.369   5.261   4.762  0.1972  0.3735 -0.0143
21496W        W39020   8.814  12.796   3.506 -0.2733  0.3087 -0.3034
21497W        W39021   1.196  12.116   0.314  0.0622  0.1357 -0.0172
21498W        W39022   1.957  15.244   2.481 -0.1983  0.1523 -0.0957
21499W        W39023   7.260   7.225  13.116  0.0494 -0.3267 -0.1901
21500W        W39024   9.271   4.071  11.889  0.1140  0.3724  0.2769
21501W        W39025  10.006   7.153  16.083  0.2917  0.2997 -0.1624
21502W        W39026  14.609   8.011  12.173 -0.2705 -0.0813 -0.2252
21503W        W39027  13.362  14.432   3.923  0.3066 -0.0735 -0.2224
21504W        W39028   6.807  17.266  13.822 -0.0800  0.1441  0.1362
21505W        W39029  16.969  17.372   2.705  0.2475  0.0127 -0.0510
21506W        W39030   1.683  13.514  12.214 -0.0029 -0.1446 -0.1244
21507W        W39031   5.972   9.691  14.747 -0.0107  0.0811 -0.1753
21508W        W39032  15.403   7.573  12.348 -0.0646 -0.1511 -0.1133
21509W        W39033  15.119  12.050  13.756 -0.1222 -0.0849  0.0894
21510W        W39034   3.346  13.319   2.047 -0.4510  0.0912  0.1569
21511W        W39035   7.552  14.807   4.466  0.4638  0.1690  0.2614
21512W        W39036   7.341   2.602  12.644  0.0732  0.2560  0.2133
21513W        W39037   3.604  13.023   4.705 -0.1660 -0.1576 -0.0106
21514W        W39038   8.145  14.577   1.567 -0.1776 -0.2486  0.3313
21515W        W39039  14.383  16.781  10.779 -0.0722  0.1065  0.1564
21516W        W39040   6.189  11.864  11.647  0.2472 -0.1799  0.1150
21517W        W39041   5.095  13.510   0.262  0.0291  0.1444 -0.2526
21518W        W39042   8.515  16.206  14.130  0.1268 -0.0757  0.1397
21519W        W39043   5.928   6.486  12.196  0.0723  0.1054 -0.0227
21520W        W39044  13.638  10.067  14.841  0.1364  0.0442 -0.0074
21521W        W39045   3.867   6.508  13.555 -0.0273 -0.0123  0.1285
21522W        W39046  17.051  16.658  14.769  0.1241 -0.1798  0.1822
21523W        W39047   6.243   6.856  12.784 -0.0596  0.3068 -0.1010
21524W        W39048  14.064   5.526   0.124 -0.1802 -0.0649  0.0624
21525W        W39049   1.856  10.997   4.465  0.2377  0.0687 -0.1962
21526W        W39050   9.680   7.516  15.973  0.1184  0.2171 -0.0111
21527W        W39051   9.005  11.496   0.569  0.0923 -0.2576  0.2260
21528W        W39052   8.563   3.633  15.345 -0.1104 -0.0691  0.0324
21529W        W39053   4.106   9.049   3.732 -0.1473  0.1188  0.1841
21530W        W39054   0.357   4.029   3.740  0.1915  0.1811 -0.1187
21531W        W39055   8.174  10.064   0.688  0.1541  0.1768  0.2808
21532W        W39056   0.825  14.854   5.295  0.0674  0.2478  0.1923
21533W        W39057  13.548   9.147   4.031 -0.2594 -0.0049 -0.1209
21534W        W39058   5.841   2.628   0.364 -0.0988 -0.1608 -0.0131
21535W        W39059   7.208  12.530   4.377 -0.0393 -0.0515 -0.0415
21536W        W39060   2.239   3.624  11.056 -0.0523  0.0751  0.0898
21537W        W39061  11.840   9.585   3.206  0.0025  0.0648  0.4391
21538W        W39062   9.942   9.602   0.400  0.1451  0.1622 -0.1513
21539W        W39063   3.649  16.075  15.724 -0.0474  0.2033 -0.2562
21540W        W39064   2.850  13.041  11.219 -0.0873 -0.2112 -0.1472
21541W        W39065   4.000   2.863  14.912 -0.0862  0.1737 -0.1833
21542W        W39066   3.137  11.350  12.134  0.1513 -0.3019 -0.2033
21543W        W39067  11.429   7.345  11.553  0.3592 -0.0510 -0.0123
21544W        W39068  12.411   2.219   2.003 -0.1521 -0.2622 -0.0776
21545W        W39069  17.305   1.587  12.634  0.3483  0.2233 -0.2217
21546W        W39070   2.446  16.965   2.669 -0.1941 -0.1121  0.1527
21547W        W39071  12.306  17.724   3.608  0.3968 -0.1573  0.0250
21548W        W39072  14.303   7.146   3.809 -0.0100  0.3161  0.0452
21549W        W39073  13.948   5.173  11.415 -0.1383  0.1112  0.1218
21550W        W39074  11.591  14.086  14.777  0.2186 -0.2548  0.1557
21551W        W39075  13.353   3.461  15.969 -0.1226 -0.3438 -0.1046
21552W        W39076   8.278   5.838   4.375 -0.0344  0.2844  0.2925
21553W        W39077  15.202   3.055  13.403 -0.0241  0.0725 -0.2246
21554W        W39078   2.499  10.055   0.733 -0.0029  0.2793 -0.1887
21555W        W39079   9.370   2.921   5.413 -0.2660  0.0748  0.0310
21556W        W39080   3.345   8.601   4.962  0.3190 -0.1891  0.1048
21557W        W39081  16.097  11.572   1.723  0.1404  0.1987 -0.2979
21558W        W39082   7.850  15.572   0.015  0.2345  0.0883  0.2213
21559W        W39083   5.527   7.948   4.024  0.0891 -0.3776  0.1544
21560W        W39084   9.790  10.439  13.686 -0.1174  0.1088 -0.0709
21561W        W39085   5.241   2.778   0.147 -0.1375 -0.2188 -0.0032
21562W        W39086   3.399   3.515  12.114  0.1653 -0.1823 -0.1167
21563W        W39087   0.936   1.847  12.911  0.4238 -0.1030  0.0016
21564W        W39088  12.002  14.259  15.631  0.1965  0.0703  0.1116
21565W        W39089  15.446  13.191  16.106  0.0404  0.2623 -0.2461
21566W        W39090   6.239   6.212  13.614  0.0721  0.3122 -0.2144
21567W        W39091   5.829   9.030   4.395  0.1254 -0.1772 -0.0868
21568W        W39092   2.780  13.860   1.006 -0.1339  0.1914 -0.2459
21569W        W39093   7.810   7.109  16.251 -0.1471  0.1694 -0.1221
21570W        W39094  11.279  10.699   3.520  0.1291  0.2119 -0.3441
21571W        W39095   0.950   6.680   1.957 -0.2161  0.1033 -0.2347
21572W        W39096  16.474   6.315  12.249  0.0449  0.3991  0.0062
21573W        W39097   6.711  15.607  12.756  0.0427  0.0652 -0.0106
21574W        W39098   4.385   2.330   1.922 -0.0687 -0.1080 -0.0021
21575W        W39099  16.203   7.964  16.151 -0.0547 -0.1707 -0.2675
21576W        W39100  14.669   5.202   2.680  0.1446  0.1880  0.1966
21577W        W39101  11.663  14.651  13.353 -0.2883 -0.1174 -0.4487
21578W        W39102   9.608  16.479  11.532 -0.1969 -0.2150 -0.3077
21579W        W39103   2.202  14.739  16.225  0.1595  0.3551  0.3628
21580W        W39104   4.371   6.690  13.787  0.0536 -0.2547 -0.0720
21581W        W39105   8.442  12.636  13.493 -0.2409 -0.0241 -0.1839
21582W        W39106   5.007   0.646  11.897  0.1083 -0.1904 -0.0198
21583W        W39107  15.215   9.319   1.152 -0.2204 -0.1403 -0.3461
21584W        W39108  10.035   9.609   1.511  0.1641 -0.1180  0.0781
21585W        W39109   4.474  11.142   4.010 -0.1515  0.2611  0.0664
21586W        W39110   5.901   5.685   3.304 -0.2843  0.0582  0.0771
21587W        W39111   4.638   1.488  11.772 -0.0953  0.0301  0.1370
21588W        W39112   6.145  10.281   4.143 -0.3336 -0.0158  0.2065
21589W        W39113   9.868   8.098   4.198 -0.0316  0.0082 -0.0937
21590W        W39114   6.779  16.018  13.138 -0.1745  0.0873  0.3182
21591W        W39115   7.188  13.151  13.032  0.1950  0.1860 -0.2261
21592W        W39116   9.268   2.145   2.310 -0.0412  0.1095  0.0933
21593W        W39117  11.656  15.624  12.507  0.0591  0.2608 -0.1103
21594W        W39118   0.775   8.403   0.624  0.0926 -0.1248 -0.0885
21595W        W39119   2.432  13.489  14.404  0.2608 -0.0565  0.2175
21596W        W39120  12.239   1.771   2.125  0.0494 -0.0290 -0.1080
21597W        W39121  15.270   3.207   0.467 -0.1704 -0.0629  0.0843
21598W        W39122   8.699   0.710  14.622 -0.0301 -0.1770 -0.0783
21599W        W39123  17.874   0.390  14.958 -0.1371 -0.2298  0.0422
21600W        W39124   7.589   5.214   0.757 -0.4149 -0.2909  0.1124
21601W        W39125   4.210  13.684   2.187 -0.0669 -0.0599 -0.4018
21602W        W39126   4.572   1.920   3.231 -0.1447  0.0347  0.0575
21603W        W39127  16.083  17.585  12.957 -0.2891 -0.0502 -0.0887
21604W        W39128   4.154   5.938   3.600  0.0582 -0.2134 -0.3365
21605W        W39129  14.640   8.228  14.168 -0.0315  0.2573  0.2346
21606W        W39130  13.467   8.536  14.655 -0.1804  0.0726 -0.0603
21607W        W39131   4.427   8.448   5.840 -0.1579 -0.0902 -0.1814
21608W        W39132   1.218  13.119   2.390  0.0878 -0.0534 -0.1866
21609W        W39133   0.660   4.602  12.486 -0.0636  0.3006 -0.1889
21610W        W39134   0.266   4.571  14.130  0.0261 -0.0889 -0.3531
21611W        W39135  10.614  11.036  14.429  0.2260 -0.0293 -0.2868
21612W        W39136   4.254   8.591   1.584  0.1868  0.2623 -0.0433
21613W        W39137  10.863   2.736  13.834 -0.0376 -0.4081 -0.1092
21614W        W39138   3.112   4.053  12.797 -0.2356  0.0760  0.2545
21615W        W39139  17.852   1.656  11.890  0.0430  0.2855  0.3516
21616W        W39140   1.047  11.627  14.594  0.1038 -0.2139  0.0140
21617W        W39141   7.572   2.111   0.955 -0.2194 -0.0414 -0.0711
21618W        W39142   8.775   7.290  14.540  0.0504  0.1538  0.0109
21619W        W39143  14.754  17.542   2.218 -0.0961  0.2217  0.1273
21620W        W39144  16.237   8.329   4.232  0.0266  0.1698  0.0815
21621W        W39145   7.846  12.130   4.254 -0.3483 -0.0517  0.0755
21622W        W39146   0.035  17.463   4.663  0.2155 -0.1223 -0.3362
21623W        W39147   1.522   2.801   4.303 -0.1221  0.0429 -0.1258
21624W        W39148  16.712   6.831  15.170 -0.0132 -0.2317  0.1006
21625W        W39149  14.441   9.857  15.097  0.0675 -0.0167 -0.1217
21626W        W39150  16.688   0.216  11.530  0.1307 -0.0547 -0.1216
21627W        W39151  12.063   7.717   3.520 -0.3524 -0.0693 -0.0329
21628W        W39152   4.071  10.206  16.039  0.0008  0.0409 -0.1329
21629W        W39153  14.046   0.748  14.669  0.2051 -0.1653 -0.2896
21630W        W39154  16.022  16.113  11.523 -0.0016 -0.1153  0.0488
21631W        W39155  11.220   8.817   1.879  0.1384 -0.3730 -0.1305
21632W        W39156  11.192   0.165   2.049 -0.1698 -0.0433  0.0128
21633W        W39157   6.455   2.110   0.784 -0.0208  0.1736  0.1219
21634W        W39158   6.480  17.134   1.281  0.0161 -0.0034  0.3528
21635W        W39159   9.500   2.330   0.814 -0.2185  0.2116 -0.1666
21636W        W39160  14.795   3.982  15.151 -0.0282 -0.2054  0.0706
21637W        W39161   2.552   6.378   2.420 -0.3927 -0.1089 -0.1700
21638W        W39162   0.869  16.054  11.108  0.0514 -0.1275  0.0968
21639W        W39163   2.902   7.231  12.744 -0.2107 -0.0245 -0.0219
21640W        W39164  16.220  11.143  11.899  0.0106  0.0720  0.1167
21641W        W39165  17.275   0.708   0.022 -0.0539 -0.1669 -0.2833
21642W        W39166   3.388  14.435  13.983  0.0606  0.0046  0.1855
21643W        W39167  14.142   9.058  10.726 -0.3028 -0.0799 -0.4889
21644W        W39168  16.338   9.356   4.876 -0.1680 -0.0436 -0.0834
21645W        W39169  16.864  10.526   0.179 -0.2630  0.3799 -0.2395
21646W        W39170  10.753   0.255   0.113 -0.1725 -0.1033 -0.1446
21647W        W39171  14.932  12.520  12.793 -0.1766 -0.2419 -0.2263
21648W        W39172   4.578   4.598   2.869 -0.2489  0.0053 -0.0157
21649W        W39173  14.735   6.397   2.360  0.0318 -0.0376 -0.0060
21650W        W39174  16.674   5.387  13.689  0.3091  0.3821  0.1002
21651W        W39175  17.120   7.654  12.826 -0.0031 -0.1954  0.0729
21652W        W39176  17.500  13.402   4.227  0.0959  0.1743  0.0312
21653W        W39177   2.291   3.942  11.441 -0.2051 -0.1754 -0.1462
21654W        W39178  16.014   7.098   4.779 -0.1244  0.0001  0.1012
21655W        W39179   9.450  13.316  14.179  0.0948 -0.0873  0.0503
21656W        W39180   1.028  16.777  13.462  0.1416  0.0754 -0.2487
21657W        W39181  10.778  12.454  15.347 -0.1835  0.2093  0.2697
21658W        W39182   2.870   7.693  16.075  0.3647 -0.0201 -0.0757
21659W        W39183  15.589   5.559   1.939  0.0774 -0.0609  0.0696
21660W        W39184   2.578   2.998  15.095  0.1281  0.3017 -0.0954
21661W        W39185   8.728   0.011  15.077  0.0144  0.1511  0.0356
21662W        W39186   4.112   9.019   1.312  0.1028  0.2076 -0.4171
21663W        W39187   4.737  12.414  15.005 -0.2763 -0.2473 -0.1791
21664W        W39188  14.200  10.644  15.580  0.1581 -0.0377 -0.0739
21665W        W39189   6.810   3.452  13.418 -0.1538 -0.1484  0.0902
21666W        W39190   9.874  15.135   2.738  0.2428 -0.1296  0.3755
21667W        W39191   0.549  14.791   1.830  0.3492 -0.2896 -0.4266
21668W        W39192  11.538   0.241  12.342 -0.3698  0.1794 -0.0851
21669W        W39193   8.368  11.658   2.595 -0.0937 -0.0171  0.1444
21670W        W39194   3.680  17.601  14.779  0.1051  0.1385 -0.0484
21671W        W39195   6.831   9.092  12.738 -0.0643  0.1740 -0.0862
21672W        W39196   0.553  15.977  13.480  0.1003  0.1549 -0.0695
21673W        W39197  15.947  11.945   0.935  0.0030 -0.1809  0.0289
21674W        W39198  15.736  12.141   0.480  0.2191 -0.1759  0.1835
21675W        W39199   6.282   2.102   2.566  0.0710 -0.1435  0.2037
21676W        W39200   8.491   0.283   2.693 -0.1312 -0.1669  0.2491
21677W        W39201   8.983   6.475  11.766 -0.0533 -0.0712  0.0655
21678W        W39202  14.422  10.052   4.762 -0.2453 -0.0749  0.0280
21679W        W39203   4.680   4.498  12.209 -0.2966  0.1959 -0.1525
21680W        W39204  10.787   0.019  12.786  0.0400 -0.0382  0.0508
21681W        W39205   2.995   4.028  15.507  0.1442 -0.2227  0.0697
21682W        W39206  16.865  10.526  15.467 -0.1259 -0.1345  0.3892
21683W        W39207   2.928   6.057   1.114 -0.0080 -0.0894 -0.1785
21684W        W39208  14.715  13.062  13.874  0.1405 -0.1777  0.0885
21685W        W39209  10.209   6.101   3.708  0.0151 -0.2462 -0.2848
21686W        W39210   6.737  10.882   4.491 -0.0782  0.2745  0.0071
21687W        W39211  13.776   5.665  12.300 -0.1475  0.0255  0.0710
21688W        W39212  15.239  11.446  12.388 -0.1728 -0.1540  0.0795
21689W        W39213  16.233   0.655   0.990  0.1961 -0.0699 -0.3176
21690W        W39214   4.369   8.470  12.364 -0.1086 -0.1347 -0.2216
21691W        W39215   6.818  11.534  15.736 -0.1571 -0.1250  0.0657
21692W        W39216   4.096   1.976  12.297  0.1439  0.0902  0.4813
21693W        W39217   6.623   2.844  12.114 -0.3264 -0.1379 -0.2383
21694W        W39218  16.639  16.897  11.975  0.0828  0.1979  0.0219
21695W        W39219  12.581  17.409   0.755 -0.0819 -0.0091 -0.1796
21696W        W39220   1.833  10.883   2.778 -0.0179 -0.2004 -0.0841
21697W        W39221  10.809   9.771   2.189 -0.1338  0.1996 -0.0057
21698W        W39222   5.013  14.188   1.027  0.1078  0.1630  0.3800
21699W        W39223   5.404  13.777  12.955 -0.3378  0.1110  0.0675
21700W        W39224   5.107   9.177  12.578 -0.1698  0.1356  0.0744
21701W        W39225  11.998  16.951  11.558  0.2513 -0.0574  0.0823
21702W        W39226   2.893   7.434   3.661 -0.1261 -0.0545  0.1337
21703W        W39227   1.136  16.032   2.821 -0.1128  0.0450 -0.0070
21704W        W39228   6.571  13.455   1.800  0.2353  0.1592  0.1996
21705W        W39229  10.871  10.098   3.715 -0.1323  0.0359  0.0008
21706W        W39230   3.056  17.536   2.118  0.0641  0.0196 -0.3005
21707W        W39231  15.742  15.876  13.995  0.0908  0.0310 -0.2393
21708W        W39232   0.359  14.513   0.913  0.0061 -0.2303  0.0664
21709W        W39233   7.400   5.249  15.678 -0.4144 -0.0565  0.1432
21710W        W39234  17.277   7.535  13.256 -0.1404 -0.0421 -0.1921
21711W        W39235  13.724  12.844   1.131 -0.1599 -0.0115 -0.1297
21712W        W39236   5.284  15.422  14.832 -0.2497  0.1314 -0.1176
21713W        W39237   8.590   0.936  12.791 -0.1700  0.0677 -0.1572
21714W        W39238   9.566   7.393  11.345 -0.0382  0.1457 -0.0460
21715W        W39239   5.396   1.931   2.278  0.0758  0.0923  0.0444
21716W        W39240   1.876  16.198  13.151 -0.2919 -0.0535 -0.1874
21717W        W39241  10.097  15.917   3.586 -0.2475  0.1482 -0.1119
21718W        W39242   0.267   1.594   3.901 -0.0584  0.1404  0.2111
21719W        W39243  17.185  13.698  10.945 -0.2001  0.3176 -0.0488
21720W        W39244   7.286  14.721  15.821  0.0855 -0.1538 -0.0458
21721W        W39245  15.703   5.528   3.151  0.2292  0.0500 -0.0050
21722W        W39246   7.902   4.181   3.145  0.4206  0.1483 -0.2169
21723W        W39247   1.032   4.120  11.623 -0.1994  0.3342 -0.0192
21724W        W39248  11.291   5.423   1.280 -0.0448 -0.0799  0.2075
21725W        W39249  10.356  11.702  13.159  0.0407  0.0167 -0.0868
21726W        W39250   8.190   9.919  15.774  0.1216  0.1026 -0.0279
21727W        W39251  17.376  16.400   3.651 -0.1437  0.2389  0.2231
21728W        W39252   4.590   1.934  12.062 -0.1736  0.2086  0.1071
21729W        W39253  16.780   5.168   2.767  0.0298 -0.0869 -0.0186
21730W        W39254   0.651   9.750   4.121 -0.2274  0.0187 -0.1022
21731W        W39255  12.016  11.353   3.061 -0.1590 -0.0489  0.0436
21732W        W39256   3.832  14.884  15.571 -0.2476 -0.1442 -0.2443
21733W        W39257   5.686   4.318  12.363  0.3501 -0.1907 -0.3352
21734W        W39258   5.124   3.125  15.083 -0.0119 -0.2155  0.0648
21735W        W39259  10.886  13.787   4.587 -0.0284 -0.2095  0.0119
21736W        W39260  11.032   3.064   4.515 -0.0416 -0.2166 -0.1206
21737W        W39261   8.185  16.958  14.193  0.1389 -0.0725 -0.0980
21738W        W39262   1.508   7.056   1.393  0.1861  0.1971 -0.1754
21739W        W39263   2.910   1.018  11.376 -0.2159  0.3628  0.0707
21740W        W39264   8.657  17.730  12.488 -0.1174 -0.1758  0.1399
21741W        W39265  10.492  10.474   2.497 -0.0829  0.2621 -0.1775
21742W        W39266   6.406  13.230   3.547 -0.3785 -0.0408 -0.3141
21743W        W39267  12.872   5.496   1.284  0.0412 -0.1346 -0.1048
21744W        W39268   4.951   5.661  14.791  0.0645  0.0466  0.0151
21745W        W39269  13.344  13.843  16.093 -0.0204 -0.0559  0.2622
21746W        W39270   4.667  10.181   4.032  0.0738  0.1425  0.7945
21747W        W39271  14.633   4.516   3.203  0.1936  0.0450  0.0219
21748W        W39272   0.505   0.498   0.639  0.1200 -0.1261  0.1550
21749W        W39273   6.977  11.437  12.632  0.0808  0.0982  0.1084
21750W        W39274   6.024   3.333   1.166 -0.2008 -0.3010  0.1907
21751W        W39275   1.149   8.057   0.791  0.3369 -0.0470  0.0273
21752W        W39276  15.405  14.097   2.098 -0.1000  0.1487 -0.0169
21753W        W39277  17.238  15.174   1.674 -0.0889 -0.1261 -0.0874
21754W        W39278  10.778  14.568  15.845 -0.3300 -0.0878 -0.0803
21755W        W39279   2.006  12.637  14.244  0.1702 -0.1031 -0.0493
21756W        W39280  16.232  11.131   1.590 -0.3297  0.0009  0.2409
21757W        W39281   4.583   3.824   5.282  0.2165  0.0277  0.1483
21758W        W39282  10.130   5.193  12.499  0.0123 -0.0693  0.1178
21759W        W39283   0.529  10.893   3.379  0.1161  0.2913  0.1703
21760W        W39284  14.405  15.211  13.502  0.3176 -0.1139  0.3766
21761W        W39285  13.532   0.278  11.461  0.0540  0.1080 -0.0728
21762W        W39286  11.417   5.519   2.728  0.0549  0.0658 -0.0148
21763W        W39287  10.139   8.615   1.953  0.1981  0.0629  0.0530
21764W        W39288   4.724   7.585  11.352 -0.1310 -0.1173  0.1152
21765W        W39289   1.911  16.549  11.828 -0.0388 -0.0843  0.1129
21766W        W39290   8.217   7.374  11.136  0.1260 -0.0111 -0.2543
21767W        W39291  14.675   5.682   1.706  0.2028 -0.0621 -0.0127
21768W        W39292   3.376   5.888   2.896 -0.3354 -0.1424 -0.1184
21769W        W39293  13.055  11.688   1.865  0.1615 -0.0489 -0.1991
21770W        W39294   5.839  14.504   0.747  0.1778  0.1710  0.3750
21771W        W39295  11.106   4.973   1.064 -0.3039 -0.1987  0.1575
21772W        W39296  15.073  13.570   2.210  0.4503  0.0289  0.0368
21773W        W39297   3.912  10.535   3.306  0.1492 -0.1859  0.1826
21774W        W39298   9.152  15.755   1.500  0.3436 -0.1053  0.1428
21775W        W39299   0.166  15.866  11.754 -0.1824 -0.0999  0.0200
21776W        W39300   1.877  10.398  13.178  0.0245 -0.1664 -0.0754
21777W        W39301  14.591   5.862  15.084 -0.0651 -0.0282  0.1787
21778W        W39302   0.639  15.670  10.955  0.0419 -0.0418 -0.2613
21779W        W39303   0.893   1.122   4.834 -0.2832 -0.0706  0.2740
21780W        W39304   3.649   3.832  15.062 -0.1969 -0.0330 -0.0070
21781W        W39305  14.427  16.522  13.282  0.1748  0.2900 -0.2600
21782W        W39306  14.645  17.752  15.696  0.0241 -0.2634  0.1499
21783W        W39307  14.086   1.012  15.953 -0.1188  0.0758 -0.0910
21784W        W39308   8.295   3.051   2.382  0.1654  0.2528 -0.0375
21785W        W39309  16.013   8.367   0.413  0.0289  0.1699  0.4545
21786W        W39310  10.651   2.880  14.795 -0.0164 -0.0190  0.2093
21787W        W39311   0.076   6.204   0.338 -0.1947  0.1490  0.0041
21788W        W39312   4.066   7.459   1.534  0.1694 -0.1755  0.1708
21789W        W39313  13.780  13.398  12.314 -0.0505 -0.0000 -0.1177
21790W        W39314  12.363  15.514  12.386  0.2488  0.2077  0.0632
21791W        W39315   9.874   2.214  10.920  0.1277 -0.0677  0.1248
21792W        W39316   1.102  14.199   1.457 -0.0819 -0.1297  0.0782
21793W        W39317   2.777  17.955  13.034 -0.2402  0.0065  0.0828
21794W        W39318  10.054   3.746   2.859 -0.0594  0.0563  0.1812
21795W        W39319  12.784   8.664   4.482 -0.0357  0.1939  0.0190
21796W        W39320  14.187   7.392   1.825  0.2107  0.0684  0.0555
21797W        W39321   8.202   0.008  13.321  0.3531 -0.0259  0.0387
21798W        W39322  13.958   3.621  12.407  0.1244 -0.0744  0.1385
21799W        W39323  14.495  15.097   4.425 -0.0780 -0.2034 -0.0376
21800W        W39324  13.814  15.829   0.386  0.2334  0.1629  0.2493
21801W        W39325   3.646  14.561  13.324  0.0151  0.2807 -0.0072
21802W        W39326  10.974  12.795  12.605  0.3435 -0.1682 -0.0127
21803W        W39327  11.356   8.444  15.279 -0.2821 -0.1034 -0.0079
21804W        W39328  13.583   7.975  14.245  0.1076  0.3317  0.1285
21805W        W39329   1.629  17.872   3.143 -0.2135  0.1276 -0.2269
21806W        W39330  11.681   1.081   2.235  0.0660 -0.0846  0.1720
21807W        W39331   7.379   8.856  15.981  0.0625 -0.0602 -0.1015
21808W        W39332   1.021  17.273  14.330  0.1080 -0.4270  0.0242
21809W        W39333  16.867   3.062  15.661  0.1668  0.0639  0.1226
21810W        W39334   2.133  10.669  11.573  0.1231 -0.0946  0.2859
21811W        W39335   3.057   4.656  11.349 -0.1982  0.1905  0.1412
21812W        W39336  12.166   6.257  11.873  0.3474  0.0356  0.0461
21813W        W39337   3.648   5.777   2.178 -0.0008 -0.0827 -0.0274
21814W        W39338  16.908  12.925  16.027  0.2710 -0.1984  0.3438
21815W        W39339   1.662   2.612   1.167  0.1086  0.2102 -0.0006
21816W        W39340  10.597   3.837   2.799 -0.1404 -0.0751 -0.0743
21817W        W39341   7.933   8.828   1.360  0.0995 -0.0906  0.1722
21818W        W39342  10.517   2.388  14.267  0.0676 -0.0940  0.1829
21819W        W39343  10.538  12.540   4.565 -0.1823  0.2427  0.1603
21820W        W39344   3.487   4.835  10.450 -0.0148 -0.2743  0.0299
21821W        W39345  17.571   4.528   3.745  0.1783 -0.0910 -0.1600
21822W        W39346  11.292  11.683  11.358 -0.0002  0.1373  0.0960
21823W        W39347   4.874  13.721  14.043  0.0704 -0.0560 -0.0278
21824W        W39348   1.477   9.358   4.108 -0.0262 -0.0716  0.1331
21825W        W39349  14.965   1.990   1.824 -0.0150 -0.0002  0.0257
21826W        W39350   1.821   3.764   0.340  0.2402  0.0138 -0.2247
21827W        W39351   6.850  12.846   2.064  0.2639  0.3616  0.0693
21828W        W39352   1.816  16.205  15.528  0.2573 -0.4174  0.3726
21829W        W39353  14.526  17.161  12.148  0.3753  0.3683 -0.0225
21830W        W39354  12.249  13.236   0.270 -0.0207  0.0507 -0.2112
21831W        W39355  13.436   4.849  14.238  0.0684 -0.2876 -0.2422
21832W        W39356  11.493  10.689  15.902  0.1212  0.1792  0.0779
21833W        W39357  15.093   2.833   1.378 -0.1334  0.1450  0.2484
21834W        W39358   2.345   3.924  12.320  0.0640 -0.1256  0.1283
21835W        W39359   2.722  13.379  14.009 -0.1182  0.1178  0.1166
21836W        W39360   1.736  14.912   5.258 -0.1816  0.0401  0.0613
21837W        W39361   0.963  10.929  13.623  0.0546 -0.1483  0.0199
21838W        W39362   6.186   0.109  13.012 -0.1829 -0.2824 -0.0043
21839W        W39363  11.810   7.336  16.210  0.1600  0.0466  0.1516
21840W        W39364  10.558   9.963  15.039  0.0186 -0.3607  0.2673
21841W        W39365   0.814   0.255  13.484 -0.1888 -0.1554 -0.2026
21842W        W39366   0.240  10.232   4.196  0.3749  0.2339  0.0805
21843W        W39367  17.538  12.154  14.177  0.0063  0.0111  0.0781
21844W        W39368   9.639  13.603  16.051 -0.0633  0.0606 -0.0962
21845W        W39369   6.352   8.447  13.438 -0.0484 -0.2394  0.2500
21846W        W39370   4.294  10.816   5.258 -0.0916  0.3015 -0.1954
21847W        W39371   3.980  14.210  14.350 -0.1080  0.2158  0.1268
21848W        W39372  14.366   6.812   2.804  0.5411  0.0607  0.0403
21849W        W39373   6.658   4.539  14.380 -0.2110  0.2019  0.0254
21850W        W39374   7.384  16.822   0.952 -0.1381  0.1511 -0.1912
21851W        W39375   8.983   9.229   1.981  0.0310 -0.0895  0.1024
21852W        W39376   9.846   9.898  14.896  0.3150 -0.0719  0.2562
21853W        W39377  12.059   1.710   0.224  0.1386  0.0596 -0.0537
21854W        W39378   5.251   4.983   4.167 -0.0676 -0.0671  0.0980
21855W        W39379   6.680   8.918  15.119 -0.1984 -0.0970 -0.0633
21856W        W39380   5.057   1.513   4.449 -0.2670  0.1125 -0.2857
21857W        W39381  15.756   2.248   4.211 -0.1323 -0.0050  0.0702
21858W        W39382  16.768   2.074   1.635 -0.3213  0.2402 -0.1283
21859W        W39383  16.465  10.753  10.225 -0.2275 -0.2811  0.0601
21860W        W39384   7.101  10.670   3.295  0.2542  0.0213 -0.4244
21861W        W39385   6.299   3.207  11.357  0.0844  0.2954 -0.4724
21862W        W39386  10.264   6.090  10.937  0.1720 -0.3215  0.1762
21863W        W39387   4.864  14.617  15.044  0.2506 -0.2047  0.0633
21864W        W39388  11.858   4.842   3.215 -0.2579  0.1531 -0.0118
21865W        W39389  17.843   9.666   4.579  0.2029 -0.1515 -0.0481
21866W        W39390   5.881   3.569   4.184 -0.1298  0.2023 -0.2422
21867W        W39391   1.083  16.276  13.614  0.0807 -0.0039  0.0053
21868W        W39392  15.914   8.384   3.144 -0.0114  0.3971  0.0718
21869W        W39393   0.563  17.835   5.200  0.0281 -0.1383  0.0879
21870W        W39394   0.447  17.074  14.303  0.1452  0.3579 -0.1750
21871W        W39395  11.190   9.420  12.278  0.2404  0.1220 -0.0563
21872W        W39396   7.962  14.044   4.821 -0.1829  0.0026 -0.0212
21873W        W39397   9.424  14.302  13.774 -0.3447 -0.0504  0.0415
21874W        W39398   0.234   3.496   4.579 -0.1972  0.3888 -0.0696
21875W        W39399  14.853  16.822  14.624  0.0114 -0.0563  0.1083
21876W        W39400   3.601  15.440   2.578  0.0851 -0.0900  0.1167
21877W        W39401   8.991   0.852  13.738  0.1092  0.1288  0.2659
21878W        W39402   3.712   8.623  14.781 -0.0862  0.2319 -0.1423
21879W        W39403   1.130  16.433   0.670 -0.0114 -0.0829 -0.1071
21880W        W39404  14.253  10.433   2.117  0.0530  0.2092  0.1455
21881W        W39405  11.051  11.392  16.119  0.1993 -0.3426  0.1386
21882W        W39406  16.825  10.711   4.110 -0.0637  0.1563 -0.0499
21883W        W39407  13.764  16.290   0.246  0.2977  0.1122 -0.1007
21884W        W39408  17.382   6.876  14.814 -0.0325  0.1074  0.3846
21885W        W39409   3.835  15.129   1.093 -0.0127  0.1626 -0.2074
21886W        W39410  10.151  10.613   3.431  0.2493  0.3330  0.1541
21887W        W39411  15.826  15.286   1.370 -0.0134 -0.2475 -0.1644
21888W        W39412  16.372   2.176   0.264  0.1810 -0.0786 -0.1060
21889W        W39413   5.083  16.724   2.528 -0.2090 -0.1438  0.2727
21890W        W39414  15.143  13.742   2.721 -0.0345  0.1336 -0.0603
21891W        W39415  13.238  12.176   4.256  0.2823 -0.3336 -0.0018
21892W        W39416  13.289   9.243  13.080  0.3009 -0.1386 -0.0376
21893W        W39417   0.573   4.603  13.216  0.0148 -0.1700 -0.2805
21894W        W39418   9.922   7.414   0.756  0.4177 -0.2220 -0.0102
21895W        W39419  13.136  17.000   2.550 -0.0007  0.0633 -0.0114
21896W        W39420   9.729   1.527  13.406 -0.1973  0.4243 -0.2446
21897W        W39421   5.847   2.904   1.966 -0.2405 -0.3559  0.1800
21898W        W39422  15.390  13.316  14.091 -0.0380 -0.0531  0.2231
21899W        W39423  10.040   5.096   3.500 -0.2122  0.1216 -0.0734
21900W        W39424   5.727   9.498   2.757  0.0617 -0.0504  0.2143
21901W        W39425   5.868  16.074  13.294  0.1086  0.3192 -0.1000
21902W        W39426  12.773   0.524   5.239 -0.2356  0.4153 -0.2812
21903W        W39427   4.196  15.954   3.002 -0.1166  0.3488  0.1768
21904W        W39428   1.487   5.848   1.225  0.0367  0.3068  0.2319
21905W        W39429  13.639  12.025   0.904  0.0130  0.0853  0.1720
21906W        W39430  17.557   2.785   2.057  0.1701 -0.1092 -0.2577
21907W        W39431  10.429   5.398   2.573  0.0070 -0.1845 -0.0697
21908W        W39432   5.155   1.659  13.432  0.3282  0.0783 -0.2115
21909W        W39433  11.739   5.563   3.631 -0.0167  0.2537 -0.0001
21910W        W39434   0.594  16.123   0.039  0.0873 -0.2367 -0.1559
21911W        W39435   9.523  17.331  15.007  0.2128 -0.3572 -0.1437
21912W        W39436   8.313   1.922   2.801 -0.4800  0.1966 -0.1782
21913W        W39437   5.486   2.516  12.646 -0.3014  0.3061 -0.1933
21914W        W39438   4.192   1.911   3.660  0.1751 -0.1751 -0.1450
21915W        W39439  12.060  13.904  12.670 -0.1019 -0.2180 -0.0430
21916W        W39440  11.646  12.718  13.120 -0.0926 -0.2578 -0.0693
21917W        W39441   4.163   9.915   0.171 -0.0030  0.1879  0.0543
21918W        W39442   7.746   8.732   5.988  0.1936  0.0207  0.1004
21919W        W39443   7.306  12.903  11.498  0.1794 -0.0536 -0.1925
21920W        W39444   3.260   5.607  13.342 -0.1052  0.0031 -0.1589
21921W        W39445  11.009   7.526   5.659  0.1958  0.2228 -0.3999
21922W        W39446   5.190  12.519  15.893  0.1519  0.1794  0.2560
21923W        W39447   4.708  16.570   0.432 -0.2988  0.0993 -0.2098
21924W        W39448  12.208  10.594  13.796 -0.1122  0.0584 -0.0666
21925W        W39449  13.831   7.852  13.197 -0.1001 -0.1074  0.2277
21926W        W39450   8.371  14.063  11.214 -0.0381 -0.1289  0.0431
21927W        W39451  10.090   6.938   3.677  0.0317  0.1338 -0.1710
21928W        W39452   1.004  11.167  14.225 -0.0358 -0.3057 -0.0837
21929W        W39453   5.934  11.708   2.549  0.1774  0.1970  0.1473
21930W        W39454   7.339   3.187   3.241  0.0496 -0.0491  0.1563
21931W        W39455   4.689   6.457  15.573 -0.0135 -0.1028  0.2079
21932W        W39456   4.511   4.501  11.730  0.0000  0.1975 -0.1574
21933W        W39457   7.391  10.124   4.109  0.1939  0.0788  0.2517
21934W        W39458   9.589   8.046  12.589 -0.0416 -0.0963 -0.0590
21935W        W39459  12.137   0.239  13.036 -0.0771 -0.1257  0.0119
21936W        W39460  11.080  17.617   3.585 -0.1833 -0.0938 -0.1614
21937W        W39461  10.459   8.420   3.189 -0.0222  0.1509  0.0257
21938W        W39462   6.662  15.433   3.673  0.1045 -0.0251  0.2012
21939W        W39463  11.429  12.538   1.392  0.0551  0.1860 -0.1994
21940W        W39464  17.322   6.402  14.506 -0.2899  0.0534 -0.0871
21941W        W39465  10.772   6.372  12.117 -0.0615  0.1755 -0.1283
21942W        W39466  13.168   4.190  11.261  0.0206  0.3691  0.1466
21943W        W39467  11.939   6.015   3.844 -0.0763  0.0345  0.1798
21944W        W39468   9.721  14.387   1.531 -0.1202 -0.3624  0.0224
21945W        W39469   8.210  10.835  14.841 -0.0063  0.1724 -0.2037
21946W        W39470  12.826   0.091   4.457  0.1045 -0.0426  0.0208
21947W        W39471   3.742  12.580   0.385  0.0391 -0.0821  0.1023
21948W        W39472  12.490  11.910  10.886  0.4147  0.2726  0.1320
21949W        W39473  11.829  12.945   0.361 -0.0110 -0.1153 -0.1956
21950W        W39474   5.558  12.457   3.543  0.2118  0.0475 -0.0474
21951W        W39475  14.001   6.753  15.383  0.0856 -0.0184 -0.0848
21952W        W39476  10.148   6.738  14.751  0.0300 -0.0638 -0.2314
21953W        W39477   5.631  12.797  14.825 -0.1910  0.1557  0.0518
21954W        W39478  17.050   9.483   1.214 -0.0578  0.0573  0.0752
21955W        W39479   5.767  11.678   5.139 -0.4237 -0.1813  0.1526
21956W        W39480  13.109  13.593   2.099 -0.2153  0.3247  0.1315
21957W        W39481  15.435   5.225  14.025 -0.0435  0.1471  0.2342
21958W        W39482   5.331  10.050   1.531  0.1958  0.2615 -0.0001
21959W        W39483  16.140   6.319   1.720  0.0108 -0.0313 -0.0897
21960W        W39484  16.680  13.442   0.351  0.0690  0.0144 -0.1458
21961W        W39485   6.194   3.147  13.977 -0.2844 -0.0640  0.3827
21962W        W39486   7.570   6.261  13.957 -0.2767 -0.1639  0.2671
21963W        W39487   9.211   5.450   0.045  0.2137 -0.0179  0.1481
21964W        W39488  14.026   9.195  12.042 -0.3800 -0.1485 -0.1988
21965W        W39489   7.295  16.174   1.578 -0.2200  0.2313  0.1849
21966W        W39490   7.250  13.830   2.178  0.0910  0.0467 -0.1608
21967W        W39491   4.886  11.216  15.405 -0.0931 -0.1889 -0.0178
21968W        W39492   3.068  12.498  15.708 -0.0958 -0.1997 -0.4366
21969W        W39493  15.845   4.501  15.660  0.0401 -0.0715 -0.1984
21970W        W39494   1.352   9.752  14.416 -0.0707 -0.0220 -0.1861
21971W        W39495   1.269  11.346   3.579  0.0734  0.0740 -0.2384
21972W        W39496   9.229   9.935   0.545 -0.2840 -0.0947 -0.1243
21973W        W39497  13.091   7.250  13.114  0.0358  0.0717 -0.0320
21974W        W39498   8.349   0.706   1.569 -0.0961  0.0504 -0.0169
21975W        W39499   2.052   4.154  12.000 -0.0741  0.2258  0.3285
21976W        W39500   6.967   8.393   3.097  0.0288  0.1383 -0.3693
21977W        W39501  13.883  15.145   3.661  0.0258  0.0860  0.1509
21978W        W39502   3.111   4.563   2.502  0.0639  0.1393 -0.0475
21979W        W39503   1.318  12.261  11.212 -0.2055 -0.1731  0.0577
21980W        W39504   4.673   2.873   5.374 -0.0920  0.2222 -0.0422
21981W        W39505  15.882   1.197  14.637  0.2604 -0.0099  0.1919
21982W        W39506  15.886   3.439  15.854  0.0204 -0.0120  0.0775
21983W        W39507   7.334  10.932   5.382 -0.1951  0.2116 -0.0278
21984W        W39508  11.881   1.418   2.950 -0.2836 -0.2185 -0.0000
21985W        W39509  13.777   7.899  12.676  0.2794  0.1583 -0.1319
21986W        W39510   0.982   2.132   2.950 -0.0194  0.0182  0.0505
21987W        W39511   0.907   0.213   0.774  0.0291 -0.0196 -0.2081
21988W        W39512  13.226   9.737  13.340  0.1196 -0.1199 -0.1604
21989W        W39513   8.275   5.906  11.299  0.4625 -0.1262 -0.0853
21990W        W39514   2.270   9.935   4.141 -0.0169  0.0043  0.2448
21991W        W39515   7.265  12.879   3.263 -0.0739 -0.0702  0.0026
21992W        W39516  10.341  14.965  11.929  0.0068 -0.1739  0.0362
21993W        W39517  11.482  14.591   2.580  0.1549  0.1496  0.3269
21994W        W39518   1.341   4.096  14.935  0.0309 -0.0046  0.0345
21995W        W39519   7.192  11.412   0.408 -0.0515  0.0413  0.3736
21996W        W39520   1.760   4.428  15.187  0.1405  0.1467  0.1810
21997W        W39521   5.279   1.908  14.396  0.0697 -0.0193  0.1396
21998W        W39522  17.539   5.471   3.684  0.1679 -0.1337  0.3552
21999W        W39523   6.565   2.556   0.926 -0.0934 -0.1858 -0.1243
22000W        W39524   2.163   2.083   5.183 -0.3040 -0.0862  0.0769
22001W        W39525   5.302   3.405   3.339  0.0098 -0.0334  0.3749
22002W        W39526  16.270  13.714  11.961 -0.1746  0.4133  0.1117
22003W        W39527   4.204   2.346  11.924 -0.1510 -0.0375 -0.1511
22004W        W39528   8.035   3.046  12.037  0.1161 -0.0293 -0.1138
22005W        W39529  16.329   1.996   4.687  0.2826  0.0355 -0.0062
22006W        W39530   9.073   6.885  15.071  0.0640  0.2263  0.1277
22007W        W39531  12.567   7.626  14.970 -0.0316  0.1267 -0.1459
22008W        W39532  17.229  10.982  15.771  0.1129 -0.0286  0.2147
22009W        W39533   5.406   9.174   2.556 -0.0397 -0.0336 -0.1971
22010W        W39534   0.320   5.915  13.569 -0.1134  0.3687 -0.0350
22011W        W39535   8.742  16.433   2.420  0.0016  0.0546 -0.1763
22012W        W39536   8.270  16.084   3.633 -0.2013  0.2358  0.1629
22013W        W39537   4.952   8.351  12.895 -0.1008  0.1118 -0.2468
22014W        W39538  11.782   2.506  11.810  0.0616 -0.3409 -0.2605
22015W        W39539  15.099  12.689  14.709  0.0452  0.3162 -0.1580
22016W        W39540  10.592   5.976  12.307 -0.2078 -0.0723 -0.0331
22017W        W39541   2.966  11.807   1.935  0.0819 -0.0661  0.0878
22018W        W39542  14.271   4.586  14.487 -0.0449 -0.0400 -0.0282
22019W        W39543  12.094   1.080  11.371 -0.0282 -0.2032 -0.0711
22020W        W39544  11.938  14.340   1.252  0.2276  0.0953  0.1870
22021W        W39545   6.543   0.806  10.660 -0.1125 -0.0638 -0.0190
22022W        W39546   1.213  16.805   1.941  0.0325 -0.0007 -0.1007
22023W        W39547  17.070  16.556  15.281 -0.1658  0.3646  0.1242
22024W        W39548   5.156   9.770   1.014 -0.1702 -0.1227 -0.0336
22025W        W39549  13.518   2.729   0.495 -0.1164 -0.0134 -0.2569
22026W        W39550  16.483  17.279   2.943  0.1349  0.0619  0.1915
22027W        W39551  10.581   8.826  12.780 -0.2129  0.3128  0.0529
22028W        W39552  14.176  13.799  14.455 -0.1476 -0.0454  0.0176
22029W        W39553   9.740  16.051  11.269 -0.0010  0.2498  0.0609
22030W        W39554  13.096   5.826  11.382 -0.0813  0.1134  0.1078
22031W        W39555   3.860   8.238   1.044  0.4089  0.1805  0.1566
22032W        W39556  17.277  16.594   4.803  0.0086 -0.0520 -0.0264
22033W        W39557   9.348   4.197   0.651  0.0820 -0.1284  0.1870
22034W        W39558   3.008   7.245   4.134 -0.2795  0.0747  0.0323
22035W        W39559  15.393  14.373   4.036  0.0225  0.1431 -0.0012
22036W        W39560  11.684  15.061   1.574 -0.0994 -0.0226  0.2777
22037W        W39561  17.314   3.285   4.413 -0.0934 -0.0102 -0.0446
22038W        W39562  11.309  10.337  13.181  0.3776 -0.0717  0.2171
22039W        W39563   4.490  10.906  12.750 -0.0830  0.1663 -0.0680
22040W        W39564  15.521   9.495  14.875 -0.1920  0.0846  0.1089
22041W        W39565   0.704   3.314   5.446 -0.1077  0.0977  0.1127
22042W        W39566  17.382   8.406   3.422  0.0077  0.3763 -0.0957
22043W        W39567  16.444   9.607   3.402  0.0287  0.0854 -0.1547
22044W        W39568   1.877   8.730  14.083  0.1800 -0.0630  0.1966
22045W        W39569   8.638  17.140   0.916  0.1611 -0.0040  0.0034
22046W        W39570   5.432   4.922  13.686  0.1036  0.0800 -0.2064
22047W        W39571  15.957  12.610   3.230  0.0311  0.0759 -0.1955
22048W        W39572   9.119  16.096   4.438 -0.2510 -0.1760  0.2345
22049W        W39573   9.193   7.136   2.624  0.3069  0.1544 -0.3329
22050W        W39574  15.771   7.760  12.727  0.0480 -0.1647  0.2209
22051W        W39575  10.326   3.015   2.284 -0.1364  0.2780  0.2971
22052W        W39576   4.615  11.076   2.680  0.0164 -0.0109  0.0438
22053W        W39577  13.344  12.328   4.772 -0.0821  0.2008  0.0312
22054W        W39578   3.766  14.056   2.711  0.0636  0.1075 -0.0042
22055W        W39579   3.236   2.579   4.288 -0.3367  0.3399  0.0056
22056W        W39580  14.429   2.736  15.494 -0.1391 -0.0346  0.3788
22057W        W39581   2.731  10.248  15.413  0.1155 -0.0062 -0.0145
22058W        W39582  17.200   0.279   0.886 -0.0317  0.4264 -0.1738
22059W        W39583   0.558  12.918   3.405 -0.0416 -0.0889 -0.0694
22060W        W39584  12.672   7.406   1.459 -0.1803  0.1372 -0.3029
22061W        W39585   0.098   3.859  13.767  0.1729  0.0899 -0.3220
22062W        W39586   0.760   2.941  10.806 -0.1703 -0.0754 -0.1645
22063W        W39587   9.951  14.843  15.383 -0.1979  0.0707  0.2339
22064W        W39588   9.638  17.805  13.122  0.0914  0.0829  0.2447
22065W        W39589  17.570  13.841   3.986  0.0189 -0.1125 -0.0780
22066W        W39590   3.520  14.263  14.517 -0.2721  0.1677 -0.2709
22067W        W39591  14.025  14.520  13.763  0.0647  0.0703  0.2072
22068W        W39592  17.494   5.953  11.683 -0.1333 -0.1382 -0.5239
22069W        W39593   8.790   6.107  11.317  0.4401 -0.2797 -0.0509
22070W        W39594   5.822   4.733  13.914 -0.0553 -0.0767 -0.1966
22071W        W39595  10.820  12.762  13.562  0.3410  0.3332 -0.2655
22072W        W39596  10.727   7.015   3.737  0.1349 -0.0320 -0.1080
22073W        W39597  12.823   6.917   1.147 -0.0444  0.0181  0.2157
22074W        W39598  12.969  13.119   2.011  0.3556  0.0546 -0.1663
22075W        W39599   3.196  17.863   1.554  0.2224  0.2684  0.0086
22076W        W39600   8.859   0.486  12.853  0.1058 -0.2343  0.1159
22077W        W39601  12.483   6.707   0.670  0.2193  0.1949 -0.1467
22078W        W39602   0.552  12.690  13.424  0.1763  0.1500 -0.3717
22079W        W39603   4.354   8.276   3.487  0.2238 -0.1135 -0.0741
22080W        W39604   8.949  17.586  14.476  0.2438  0.0686  0.1965
22081W        W39605   1.694   9.023   4.438  0.2118  0.3285 -0.0443
22082W        W39606   1.112   7.099  14.782  0.1050  0.1882  0.1033
22083W        W39607  13.454   9.220  16.072 -0.0335 -0.3675 -0.2841
22084W        W39608  10.274   0.569  15.379  0.1493 -0.1319  0.2336
22085W        W39609   4.151  10.724   4.754  0.1534 -0.0930 -0.2486
22086W        W39610  12.827  12.776  14.154  0.0645  0.1303 -0.1272
22087W        W39611   6.173   8.844   3.457  0.1434 -0.3367  0.1036
22088W        W39612   7.101  17.345   4.304  0.1789  0.0839 -0.0645
22089W        W39613   6.330  13.971   5.135 -0.0365 -0.4713 -0.3502
22090W        W39614   9.609   8.585   3.174  0.2711  0.1497  0.3440
22091W        W39615   4.312   9.679  11.381  0.2117 -0.0534 -0.2255
22092W        W39616   9.881  15.926  12.107 -0.1060 -0.0817 -0.0963
22093W        W39617   6.835  17.255  16.030 -0.0615  0.0276  0.0857
22094W        W39618   0.773  16.626   2.068 -0.0291  0.0795  0.1723
22095W        W39619  14.773   5.892   3.936 -0.3039  0.2833 -0.0070
22096W        W39620  14.311  14.305   0.171 -0.2119  0.2298 -0.0485
22097W        W39621   4.911  13.252  14.184 -0.0549 -0.0729 -0.0289
22098W        W39622  12.995   1.651   3.778 -0.2095  0.0085  0.1466
22099W        W39623  15.972  15.721  15.986  0.2414 -0.3045 -0.3531
22100W        W39624   9.590  15.542   1.296 -0.0312 -0.1274 -0.1195
22101W        W39625  14.812   1.038  12.655  0.3221  0.2788  0.1255
22102W        W39626  13.582   2.267   0.291 -0.0703  0.3820 -0.2574
22103W        W39627  14.332   1.550  14.314  0.0500  0.1965  0.1083
22104W        W39628  17.050  11.938  15.987  0.2460  0.2883 -0.1355
22105W        W39629  12.985  13.962   0.402  0.2470  0.1728  0.1997
22106W        W39630   7.746   6.428  11.891  0.1299  0.1108  0.0391
22107W        W39631  11.149   6.510   1.067 -0.1724 -0.1338 -0.2934
22108W        W39632   9.746   3.605  12.241 -0.2350  0.0104 -0.1902
22109W        W39633  17.543   9.706  14.739  0.0481 -0.1152 -0.1114
22110W        W39634  17.466   5.245  12.149  0.0180  0.0023 -0.0785
22111W        W39635   4.961  16.622  13.944  0.1523 -0.1381  0.0300
22112W        W39636   5.419  15.722  11.421 -0.0213  0.2103  0.0129
22113W        W39637  15.147  12.080  11.734  0.0980  0.3186 -0.2995
22114W        W39638  15.830   6.986  10.517  0.1558 -0.1842  0.1940
22115W        W39639  11.502  15.275  13.490 -0.1336  0.0587 -0.0774
22116W        W39640   3.159  14.037  14.755  0.1087 -0.2032 -0.1885
22117W        W39641   3.381   1.207  12.740 -0.3517  0.0331 -0.0777
22118W        W39642   0.902  13.796   4.707  0.2051 -0.0011  0.0663
22119W        W39643   3.153  17.914   4.962 -0.1966 -0.1463 -0.2145
22120W        W39644  12.705   2.545   2.224  0.0621  0.3504  0.0217
22121W        W39645   4.603  16.840   2.745  0.0411 -0.2695 -0.1013
22122W        W39646  16.906  17.235   3.252  0.2699  0.2854 -0.0199
22123W        W39647  15.714   0.226  12.232  0.0950  0.0994 -0.3174
22124W        W39648   6.691  13.482  14.653  0.1374 -0.0889 -0.0007
22125W        W39649   8.295   6.377  16.052  0.2337  0.1638  0.0056
22126W        W39650  17.083   6.010  13.774 -0.0119 -0.0015 -0.1748
22127W        W39651   4.629   3.932  15.333 -0.3302  0.0601 -0.2216
22128W        W39652  16.445  12.219   3.320  0.1607 -0.2713  0.1053
22129W        W39653   5.714   5.135   4.997 -0.0664 -0.0503  0.1629
22130W        W39654  12.278   3.336  12.657 -0.0261 -0.0438  0.1123
22131W        W39655   2.793   2.191   2.463  0.0080 -0.2358 -0.2424
22132W        W39656  10.695   0.787  15.316 -0.2250 -0.1950 -0.1656
22133W        W39657   7.702   3.418   2.939 -0.0728  0.1016  0.0484
22134W        W39658   6.587  16.768  11.119 -0.0258 -0.0396 -0.1814
22135W        W39659   4.423   5.044   4.817  0.0589 -0.0415  0.1564
22136W        W39660  14.568   6.245   0.949 -0.1311  0.2382 -0.1535
22137W        W39661  17.778  16.050  14.384  0.0885  0.2643  0.1798
22138W        W39662  14.280  17.872   4.629  0.0641 -0.1294  0.0800
22139W        W39663   0.279   7.755  12.187  0.1332  0.2427 -0.1503
22140W        W39664   6.518   1.845  13.672  0.2368 -0.0065  0.0680
22141W        W39665   2.164   6.544  13.644 -0.0962 -0.0997  0.0151
22142W        W39666  12.228   3.301  12.180 -0.1786  0.0202 -0.0446
22143W        W39667  15.408   2.943   4.996  0.2196 -0.1326  0.4459
22144W        W39668   8.936   0.482  15.032 -0.1981  0.1288  0.0959
22145W        W39669  11.617   4.637  12.416  0.2355  0.0410 -0.2981
22146W        W39670   0.547  15.318   1.288 -0.2742  0.0313  0.0661
22147W        W39671   9.966   6.423   1.140 -0.2711  0.0995 -0.2947
22148W        W39672   5.059  12.533   0.551 -0.2328 -0.1395  0.4158
22149W        W39673   8.577   3.371   2.774 -0.0555 -0.0697 -0.0592
22150W        W39674  17.648  10.979  14.381  0.2262 -0.0652  0.0016
22151W        W39675   4.736   4.547   0.719  0.1903  0.0707  0.1462
22152W        W39676   8.755   0.727  11.778 -0.0345  0.0261 -0.1109
22153W        W39677   5.787   5.404  13.219 -0.0124  0.2701  0.0562
22154W        W39678  10.947   4.019   1.467  0.1084  0.0513  0.1388
22155W        W39679   4.396   4.681   1.042  0.0465 -0.0705 -0.1199
22156W        W39680  15.311  13.908  13.720  0.0367 -0.0209 -0.0083
22157W        W39681  10.700  10.335   0.171 -0.1769  0.1459 -0.2317
22158W        W39682  13.215  16.632   5.071  0.2345 -0.1559  0.1682
22159W        W39683   2.049  10.072  12.787 -0.3954 -0.1623  0.2001
22160W        W39684   9.460   6.551  10.931 -0.0751 -0.2794  0.1032
22161W        W39685  15.235  11.800  13.299 -0.0355  0.3857  0.1452
22162W        W39686  12.295   8.523   3.651 -0.1999 -0.2688  0.0041
22163W        W39687  11.427   9.115   3.990 -0.1712  0.0913  0.0497
22164W        W39688  12.826   9.690   3.058  0.1683 -0.0749  0.1094
22165W        W39689   3.799   8.795   0.854 -0.0242  0.1763  0.0798
22166W        W39690  12.325  17.497  16.245  0.0284  0.3077 -0.2245
22167W        W39691   4.273   5.336  15.498 -0.1319 -0.0578 -0.0070
22168W        W39692   3.361  11.356   2.727  0.0019 -0.1221 -0.2942
22169W        W39693  11.659   6.843   3.650  0.0065 -0.0560  0.1447
22170W        W39694   0.344   6.182  13.102  0.0633 -0.0881  0.0932
22171W        W39695   5.640   7.090  11.697 -0.3721 -0.0332 -0.3167
22172W        W39696  15.768   0.396   2.546  0.0558  0.1821  0.2183
22173W        W39697   1.362   6.628  11.835  0.1337 -0.1110 -0.0054
22174W        W39698  15.275   5.274   1.036 -0.2585  0.1556 -0.0109
22175W        W39699   7.476   5.359  13.572 -0.1417  0.1091  0.0576
22176W        W39700  15.419   0.010   1.038  0.1235 -0.2265 -0.1045
22177W        W39701  13.772   4.004   2.169  0.0868 -0.1062 -0.1968
22178W        W39702   6.221  12.580  13.187 -0.0993  0.1196 -0.1937
22179W        W39703   9.816  16.054  15.756  0.0503  0.1114 -0.4865
22180W        W39704  13.377   3.471  13.670  0.2129 -0.0776  0.0680
22181W        W39705  13.083   7.665   4.628  0.4855  0.1427 -0.1826
22182W        W39706  17.443   2.102   4.376  0.2716 -0.2676  0.0750
22183W        W39707  17.228   1.994  12.403  0.0836 -0.0276 -0.1620
22184W        W39708  16.251   4.761   3.401 -0.3437 -0.0694 -0.1157
22185W        W39709   4.750   4.905   3.308 -0.1471  0.1712  0.2215
22186W        W39710   8.260   4.549  13.165 -0.2762 -0.0625 -0.0278
22187W        W39711   9.894  11.429  15.889 -0.1669  0.0581  0.0091
22188W        W39712  12.836   4.704   3.776 -0.0629  0.2323  0.1342
22189W        W39713  13.387  12.002  13.744 -0.1754  0.0774 -0.2770
22190W        W39714  12.455   2.261   3.026 -0.2570  0.1065 -0.3509
22191W        W39715  11.880   0.659   3.734  0.1083  0.0178 -0.0248
22192W        W39716  13.377  17.546   1.768 -0.0698  0.0493  0.0549
22193W        W39717   4.036  10.725   3.751  0.0707 -0.3357 -0.0260
22194W        W39718  13.725   0.821  11.484  0.1192 -0.1988  0.0887
22195W        W39719  15.754   9.720  15.618  0.0576  0.1844 -0.2392
22196W        W39720   2.993   3.225   1.414  0.2849  0.2384  0.2454
22197W        W39721   5.811   3.409   1.645  0.0951  0.0207  0.0861
22198W        W39722   8.158  12.000   0.219  0.1876 -0.0228 -0.1546
22199W        W39723  16.667   0.418   3.620 -0.0630  0.0868 -0.0306
22200W        W39724   5.943  12.279   4.409  0.0811  0.0499 -0.1485
22201W        W39725  17.780  17.943   2.203 -0.1719 -0.1195  0.2830
22202W        W39726   4.114   9.242   3.036 -0.2219  0.0622 -0.2685
22203W        W39727  13.745   0.188   1.249  0.5737 -0.0071 -0.0293
22204W        W39728  14.791   5.032   3.152 -0.1225 -0.0962  0.1098
22205W        W39729   5.756   2.371  13.567 -0.3318  0.3536 -0.1988
22206W        W39730  11.432  14.892   5.129  0.2013 -0.0778 -0.0735
22207W        W39731   9.212   3.473  11.556  0.0949 -0.0883  0.3630
22208W        W39732   8.283  14.888   1.170  0.0177  0.2922  0.0460
22209W        W39733   7.658   7.108  14.321 -0.0893  0.0343 -0.2546
22210W        W39734   0.428  13.553  15.575  0.0421  0.0203 -0.0852
22211W        W39735   5.242   7.070  13.088  0.0581 -0.1392  0.0075
22212W        W39736   4.695  11.996   0.190 -0.1227  0.4404 -0.1771
22213W        W39737   2.054   3.568   5.839 -0.2856 -0.1275 -0.0204
22214W        W39738   6.149   4.674   1.555  0.1277 -0.2108  0.3407
22215W        W39739   5.205  15.082   1.506  0.0751 -0.1957  0.0021
22216W        W39740  14.915   9.251  11.047  0.1765  0.1275 -0.0142
22217W        W39741  10.553   1.022   0.738 -0.0165 -0.0078  0.0121
22218W        W39742  10.301   6.090   2.097 -0.3382  0.0928  0.0516
22219W        W39743   3.997   1.923   2.765  0.0017 -0.0630  0.1757
22220W        W39744  16.818  12.853  13.168  0.1810 -0.3665 -0.1784
22221W        W39745  11.568   2.890   4.559 -0.0813 -0.2297  0.2029
22222W        W39746   5.412   0.714   6.216 -0.0080 -0.1849  0.0735
22223W        W39747   5.266   6.704   5.744  0.1551  0.1271  0.0603
22224W        W39748  17.373  12.219   0.959  0.0474 -0.0204  0.0085
22225W        W39749  10.582  17.227  11.273 -0.1090 -0.0771 -0.1185
22226W        W39750  13.717  11.856   1.405  0.1417 -0.1532  0.1488
22227W        W39751   6.192   9.601  16.076  0.1006 -0.3405  0.2149
22228W        W39752   2.375  12.552   4.312  0.3357  0.2781  0.0329
22229W        W39753   6.421  17.763  13.368 -0.0515 -0.1291 -0.2514
22230W        W39754   7.270  10.661   2.546  0.2246 -0.0088 -0.0019
22231W        W39755  17.772  12.945  12.140  0.1858  0.0033  0.1840
22232W        W39756  16.682  17.029   5.076  0.1600 -0.1718  0.2530
22233W        W39757  16.147  13.960   0.820 -0.0025 -0.0278  0.0949
22234W        W39758  17.274  12.726  12.877 -0.2754 -0.0365  0.0334
22235W        W39759  15.517   8.872  12.626 -0.0016 -0.4027 -0.2834
22236W        W39760   3.020  13.572  13.538  0.2777 -0.1045 -0.0648
22237W        W39761   4.109   0.077   3.571 -0.0683 -0.3845 -0.2904
22238W        W39762  10.528   6.497   4.610  0.1200 -0.1375 -0.0595
22239W        W39763   3.429  12.251   5.193 -0.2277 -0.1525 -0.2349
22240W        W39764   8.103   9.606   3.032  0.0476 -0.0188  0.0137
22241W        W39765  15.976   4.163   1.261  0.1643  0.4290  0.1889
22242W        W39766   3.028   2.878  14.380 -0.1283 -0.1939  0.1906
22243W        W39767   5.850  17.452   0.587  0.4273  0.0739  0.0600
22244W        W39768   9.466  13.044   5.029 -0.1638  0.2165 -0.2300
22245W        W39769  17.309   2.443  14.484  0.1564 -0.2172 -0.0781
22246W        W39770   1.452  14.007   4.975 -0.2490  0.4802 -0.2102
22247W        W39771   3.397   8.568  11.993 -0.1552  0.1710 -0.0801
22248W        W39772   1.773  13.715   4.687 -0.0418 -0.2107 -0.1843
22249W        W39773  13.021  12.633   2.125  0.4529  0.0301  0.2293
22250W        W39774   8.041  16.471  15.939  0.0161 -0.1977 -0.0441
22251W        W39775   4.466  14.507  16.258 -0.2702 -0.0957  0.1680
22252W        W39776  11.560   6.967   2.190 -0.0957  0.0152 -0.1177
22253W        W39777   4.767   3.655   4.829  0.0396  0.1902 -0.3386
22254W        W39778   6.260  12.767  14.837 -0.1792  0.0559 -0.3726
22255W        W39779   8.870  11.628  10.801 -0.0733  0.2121  0.0370
22256W        W39780  17.080   9.690  13.236  0.0925  0.2500 -0.2513
22257W        W39781  16.870  10.083  12.238 -0.3516 -0.1528  0.1860
22258W        W39782   8.619   9.561   1.935 -0.1550  0.1421 -0.1643
22259W        W39783   8.705   0.560  13.346  0.1205 -0.1323 -0.1281
22260W        W39784  10.794   1.448   0.461 -0.0705 -0.2416 -0.4877
22261W        W39785   8.492   6.829   2.132 -0.0744 -0.1054 -0.1534
22262W        W39786   1.907  17.470  15.200 -0.4773 -0.3075 -0.1220
22263W        W39787   9.839   1.525  15.705 -0.0029  0.4165 -0.3104
22264W        W39788  14.567  17.236  14.589 -0.0453  0.0232  0.3250
22265W        W39789   0.376  17.330  13.007 -0.0977  0.0905  0.0061
22266W        W39790  15.465   7.894   1.529 -0.2597 -0.1684 -0.1652
22267W        W39791  14.333  15.249   0.787 -0.0918  0.0822 -0.0554
22268W        W39792   4.889  10.879  12.360  0.1107 -0.2496 -0.0334
22269W        W39793  14.810   2.035  14.261 -0.0830 -0.0084 -0.0926
22270W        W39794  15.413  11.747   2.341 -0.1628 -0.0078 -0.0423
22271W        W39795  13.044  10.426   0.556  0.0378 -0.0534  0.2037
22272W        W39796  11.001   8.158   3.157 -0.4337  0.0018  0.0248
22273W        W39797   2.801  12.838  13.958 -0.0068  0.2045  0.0773
22274W        W39798   1.173  10.916  15.242  0.0051  0.0898  0.1354
22275W        W39799   1.307  10.395   2.007 -0.1884  0.3150  0.1827
22276W        W39800   5.238   3.178  11.936  0.4050  0.0510 -0.3026
22277W        W39801   4.248  12.218   1.455 -0.1406 -0.2737  0.4241
22278W        W39802  10.966  13.783  15.463  0.0471  0.1561 -0.1753
22279W        W39803  14.690  11.631  14.518  0.1156 -0.1265  0.2522
22280W        W39804  14.612   3.526  11.886 -0.2070 -0.0511  0.0691
22281W        W39805   2.458   5.665   0.486 -0.0294 -0.0731  0.1213
22282W        W39806  15.791   7.439  10.693  0.0863 -0.0822  0.1230
22283W        W39807   7.941   1.118   4.455 -0.1546  0.0764 -0.0470
22284W        W39808   7.663  17.885  15.206 -0.3049  0.1103  0.4708
22285W        W39809   6.817   7.030   2.818  0.0720 -0.1313  0.2738
22286W        W39810  15.885  14.325  14.210 -0.1720  0.1431 -0.1467
22287W        W39811   7.256  11.726  16.074  0.2396  0.1972 -0.1493
22288W        W39812   1.922  12.632  11.772 -0.1713 -0.0803 -0.2791
22289W        W39813  14.042  16.129   2.013 -0.0160 -0.0909 -0.2384
22290W        W39814   3.013   3.379  12.496  0.1573 -0.1481  0.2367
22291W        W39815  17.303   0.996  11.375  0.1072  0.0682  0.0992
22292W        W39816   6.679  11.558  11.646  0.0166 -0.0722  0.1310
22293W        W39817  11.096   3.361   5.831 -0.2100  0.1324  0.0608
22294W        W39818  11.051  14.065  14.376 -0.1142  0.3354  0.1375
22295W        W39819  12.891   9.087  11.845 -0.4478  0.0271  0.1776
22296W        W39820  17.940  15.229   0.369 -0.0866  0.2771  0.1613
22297W        W39821   5.158  15.579  13.922  0.1542  0.0126 -0.0201
22298W        W39822  11.207  14.162   0.583  0.1077 -0.0735  0.2098
22299W        W39823  13.151   1.000  13.615  0.0655  0.0123 -0.0992
22300W        W39824  14.192   0.512  10.354  0.2714 -0.0630  0.2204
22301W        W39825   8.381   9.246   1.563  0.4496 -0.0214  0.0855
22302W        W39826  15.338   8.227  10.726 -0.1422  0.3548 -0.1885
22303W        W39827  15.106  15.639   0.397  0.1558  0.4508 -0.2012
22304W        W39828   1.024   0.121  14.862 -0.1648  0.1389 -0.1593
22305W        W39829   1.401  14.382  11.878 -0.0392 -0.2533  0.0267
22306W        W39830   3.426   8.006  14.831  0.0763  0.4100 -0.1795
22307W        W39831  15.199  15.875   0.841 -0.4875  0.3694  0.0101
22308W        W39832   4.204   8.124  12.031 -0.0753  0.1831  0.1160
22309W        W39833   7.648  16.582   1.383  0.1294 -0.0035 -0.1717
22310W        W39834  16.948   6.865   0.378  0.1205 -0.1986 -0.0326
22311W        W39835  11.217   8.883  15.042  0.1766  0.2064 -0.1350
22312W        W39836  11.006   0.560   2.386 -0.3732  0.0332 -0.1817
22313W        W39837  15.545  13.856   4.587  0.3873 -0.2294 -0.2487
22314W        W39838   4.717  15.991   3.023  0.3174  0.1671  0.1169
22315W        W39839   4.671   3.716   2.531 -0.1772 -0.3071  0.2281
22316W        W39840   7.677  11.672  15.131 -0.2634  0.0223  0.0929
22317W        W39841   0.429   2.396  11.703  0.1099 -0.0803  0.0573
22318W        W39842  16.702  13.642   2.337  0.1560 -0.0675 -0.1155
22319W        W39843   4.026   2.132  14.716 -0.0657  0.0404 -0.0972
22320W        W39844  17.145  11.616   5.831 -0.1772 -0.2196  0.1409
22321W        W39845  17.565   5.113   4.625 -0.1505 -0.0964  0.2876
22322W        W39846   5.650  16.478   4.659 -0.1965  0.1576 -0.3731
22323W        W39847  13.012   5.516  13.334 -0.1264 -0.1311 -0.0252
22324W        W39848   6.250  16.914   0.100  0.1745  0.0675 -0.0220
22325W        W39849   9.195   2.880   1.816  0.0515 -0.1985  0.0717
22326W        W39850  12.094   3.591   2.087 -0.0433 -0.0614 -0.2233
22327W        W39851   9.578  12.318  16.132  0.2210  0.2916  0.0179
22328W        W39852  10.854   5.069   0.125 -0.2187  0.1026 -0.1486
22329W        W39853  14.501   1.071  14.504  0.0896 -0.0772 -0.0797
22330W        W39854  12.217   7.142   0.555 -0.2049  0.0851  0.0899
22331W        W39855  11.841  11.833  13.141 -0.1032  0.0156 -0.0666
22332W        W39856   7.116  16.903  15.931 -0.1312 -0.0803 -0.0305
22333W        W39857   1.527   2.804  13.510  0.0369  0.2382  0.1452
22334W        W39858   4.094   8.202   2.947  0.2418 -0.1824  0.1187
22335W        W39859   0.967  13.306  11.647  0.0285  0.1204 -0.1715
22336W        W39860   1.394  17.016   0.998 -0.0458  0.1484 -0.2043
22337W        W39861   4.640  13.134   0.492  0.2004  0.2025  0.2988
22338W        W39862   3.232  17.866  13.187 -0.0353 -0.1211  0.1799
22339W        W39863   5.102  10.883   2.690  0.1640  0.0489 -0.2820
22340W        W39864   2.585   8.302   3.676 -0.1689 -0.2200  0.1096
22341W        W39865   9.037   3.276  14.855 -0.1445 -0.0320  0.3556
22342W        W39866  10.445   9.679  12.996 -0.1365 -0.1177 -0.3307
22343W        W39867   2.955   8.788   3.660 -0.0201 -0.1674  0.0659
22344W        W39868  14.786   3.965  10.989 -0.1437 -0.0408  0.0184
22345W        W39869  16.400   1.653   1.955  0.1021  0.0825 -0.1824
22346W        W39870   4.170  10.866   1.476 -0.0786 -0.0526  0.1069
22347W        W39871  12.944   8.636  14.631 -0.0612  0.0020  0.3279
22348W        W39872   8.057  12.112  11.505  0.1672  0.2503  0.1516
22349W        W39873   2.787   2.897   1.768 -0.0197 -0.1018 -0.1921
22350W        W39874   1.411   5.742  16.008  0.1948  0.0830  0.2417
22351W        W39875  13.726  15.180  13.729 -0.0139 -0.0517 -0.2517
22352W        W39876   1.303   9.625   0.366  0.0000  0.2519  0.0563
22353W        W39877   6.769   0.465  10.926 -0.0126  0.1909 -0.0104
22354W        W39878  11.198   4.601  11.524  0.0569 -0.0871 -0.0214
22355W        W39879   3.636  16.293  15.286 -0.1718  0.1451  0.1202
22356W        W39880   8.769  11.277  12.096  0.0051  0.0976 -0.1003
22357W        W39881   3.170  15.161  12.623 -0.1767 -0.1448 -0.1042
22358W        W39882   0.123  11.190   3.492  0.0867  0.0800 -0.0263
22359W        W39883  12.915   8.223   1.965 -0.2572  0.2779 -0.1260
22360W        W39884   7.263   1.509   5.398  0.4444  0.0476  0.1128
22361W        W39885   3.915   2.599  13.068  0.1097 -0.1276  0.2164
22362W        W39886   9.195   4.073   2.073  0.0402 -0.0525  0.0062
22363W        W39887   0.463   3.219   1.465  0.1187 -0.0960  0.1004
22364W        W39888   1.560   9.209  15.208 -0.1946  0.1614 -0.0547
22365W        W39889   2.114  15.408  11.237 -0.3271  0.0885  0.0296
22366W        W39890  13.019  10.753  12.676 -0.0678 -0.0993  0.0836
22367W        W39891   8.899   7.360  15.105  0.0748  0.1230  0.0523
22368W        W39892  15.266   2.687   3.467 -0.0524  0.0380 -0.1202
22369W        W39893   9.434   1.164   4.180 -0.0855  0.1908 -0.0363
22370W        W39894   2.920   4.094   2.353 -0.0703  0.0092 -0.1271
22371W        W39895   2.284  14.627   3.110  0.0325  0.2445 -0.0540
22372W        W39896   6.467   8.069   0.333  0.0525 -0.0317  0.1312
22373W        W39897  16.988  15.112  12.066  0.0986  0.0264 -0.0555
22374W        W39898   0.664  16.859   5.115 -0.3248  0.0519  0.2807
22375W        W39899   7.381   6.882  13.495 -0.2243  0.0933 -0.1623
22376W        W39900  12.398  14.908  15.188  0.1046 -0.2500  0.1222
22377W        W39901  13.625  17.945  15.419  0.2526  0.2655  0.4675
22378W        W39902  10.074  17.385  14.902 -0.0536  0.0677  0.1004
22379W        W39903  12.108   5.887   2.338 -0.1786  0.1463 -0.0018
22380W        W39904  15.026   9.904  15.659  0.3806  0.0994 -0.1036
22381W        W39905   2.080  13.313   1.286 -0.1658  0.1931  0.0505
22382W        W39906   7.159   0.888  12.747 -0.1112 -0.2039  0.1440
22383W        W39907  16.782   5.555   0.685  0.0440 -0.0616 -0.2984
22384W        W39908  11.739   8.018  14.052  0.2489  0.1592  0.0357
22385W        W39909  11.552  15.242  12.071  0.0473 -0.2251  0.0763
22386W        W39910  17.944   8.258   3.139  0.0037  0.1842  0.0302
22387W        W39911   3.441   9.519   5.587 -0.0266 -0.0839 -0.1131
22388W        W39912  14.673  15.356  14.874  0.2593  0.0476 -0.1487
22389W        W39913   1.911   1.624   2.954 -0.2354  0.3120  0.0677
22390W        W39914   9.603  16.104   0.014 -0.1637  0.3243 -0.1125
22391W        W39915   6.960   8.770  11.706 -0.1359 -0.1226  0.0466
22392W        W39916   8.216   8.619  14.403  0.1514 -0.1994 -0.3168
22393W        W39917   0.257  12.754  14.598 -0.0506 -0.0459 -0.0386
22394W        W39918  15.757   6.018   2.915 -0.0098 -0.0288 -0.2936
22395W        W39919  12.795   0.997  16.045 -0.0072 -0.0204  0.2446
22396W        W39920  12.029   1.635  12.103 -0.3279 -0.0625  0.2933
22397W        W39921   6.194   2.872   1.193 -0.0770 -0.2434  0.2051
22398W        W39922  14.344   9.555   4.617 -0.0145 -0.0324  0.0899
22399W        W39923  11.469  16.621  14.965  0.0686  0.0377 -0.0217
22400W        W39924   7.054   7.664   1.208 -0.0372  0.2279 -0.1446
22401W        W39925   1.383   6.798  16.211  0.0519 -0.1977  0.1323
22402W        W39926   5.774   8.546   2.567  0.0324 -0.0852 -0.4911
22403W        W39927   2.739   1.938   1.946 -0.0140 -0.0936 -0.1105
22404W        W39928  14.606   1.685   1.032 -0.1421  0.1408 -0.0587
22405W        W39929   4.346   2.150   0.230  0.0154  0.0419  0.0551
22406W        W39930  10.526  13.021   3.754  0.0369  0.1712  0.0853
22407W        W39931   9.785   0.537  15.717 -0.0337  0.0037  0.1982
22408W        W39932  14.400  11.718   3.989  0.0761 -0.1526  0.1460
22409W        W39933  16.560  10.470   1.561 -0.0782 -0.0293 -0.1269
22410W        W39934  12.038   7.983   1.769  0.0316  0.1401  0.0549
22411W        W39935   1.079   3.929   1.484  0.1981  0.0296 -0.2033
22412W        W39936   0.689   8.667  11.776 -0.1871  0.0143 -0.1455
22413W        W39937  11.497   2.634  14.464 -0.0956  0.0201  0.1002
22414W        W39938  15.102   4.476   3.431 -0.3569  0.1608 -0.1706
22415W        W39939   0.755  17.132  14.753  0.0071  0.1997  0.0903
22416W        W39940   5.356   1.250   1.662  0.0160  0.3626  0.2239
22417W        W39941  16.521  14.617   1.190  0.1489  0.2886  0.0911
22418W        W39942  17.899  10.900  11.695  0.2617 -0.0093 -0.0227
22419W        W39943  14.397   3.375  11.479 -0.1259 -0.1101  0.2234
22420W        W39944  12.137   1.697   5.455 -0.1102 -0.0545  0.2982
22421W        W39945  16.239  14.955   5.646 -0.0281 -0.3050 -0.2003
22422W        W39946  12.535   4.494   4.097 -0.0766  0.0957  0.3336
22423W        W39947   2.451  14.479  15.851  0.0316  0.2110 -0.0632
22424W        W39948   5.488  10.130  15.771 -0.0582  0.0862 -0.0565
22425W        W39949   8.069  12.996  15.565  0.1681 -0.2169  0.0671
22426W        W39950   3.884   7.262   0.185 -0.2478 -0.1082 -0.0930
22427W        W39951   6.465   9.144  15.548 -0.0242 -0.3294  0.1551
22428W        W39952   5.758   8.486  15.289  0.1831 -0.1441  0.1926
22429W        W39953   1.676   1.457  15.516  0.0201  0.0512 -0.2488
22430W        W39954   3.973  13.524  12.532  0.1890 -0.1151 -0.1518
22431W        W39955   4.103   0.401   2.727 -0.2086  0.1788 -0.0929
22432W        W39956  12.916   7.775   2.222 -0.0561 -0.5010  0.1212
22433W        W39957  11.817  10.599   3.715  0.2678  0.0072 -0.1501
22434W        W39958   6.440   8.552   0.503  0.2516  0.0290 -0.1880
22435W        W39959   5.658  16.099   1.042 -0.2363 -0.0851 -0.0250
22436W        W39960  15.046   2.037  14.670 -0.1909  0.2348 -0.0018
22437W        W39961   4.482   0.321   1.092 -0.3618 -0.0012  0.1106
22438W        W39962   2.445   0.516  14.414 -0.0827 -0.0916 -0.0873
22439W        W39963   7.991   0.936  12.788 -0.1843 -0.1900 -0.1900
22440W        W39964   3.039   9.702   5.346 -0.0557  0.0462  0.0201
22441W        W39965   3.324   6.165   3.341  0.0717 -0.2837  0.2242
22442W        W39966   3.014   2.920  13.864  0.2227 -0.1948  0.0622
22443W        W39967   1.175  17.042  12.882  0.3611 -0.3059 -0.1108
22444W        W39968  12.605  11.240   4.053 -0.1185  0.1312 -0.3058
22445W        W39969   7.669   0.350   0.246 -0.0832 -0.3207 -0.1504
22446W        W39970   8.265  12.394  15.682  0.0377  0.1110  0.1917
22447W        W39971  10.498   3.806   1.363 -0.1372 -0.1310 -0.0298
22448W        W39972  11.761   2.350  15.926  0.0882 -0.0925 -0.0382
22449W        W39973   6.905   6.103  12.598  0.1219 -0.4331 -0.0875
22450W        W39974   4.911   1.082   3.102 -0.1106  0.1918  0.1961
22451W        W39975  14.083  14.055  15.346  0.4527  0.0992  0.2881
22452W        W39976   3.851  13.039   1.598 -0.3687  0.1148 -0.4235
22453W        W39977   3.347  15.212  15.527  0.0742  0.2373  0.2859
22454W        W39978  11.029  12.641   2.533 -0.0886 -0.1494 -0.0226
22455W        W39979  12.971  13.125   0.737  0.1058  0.0930  0.0300
22456W        W39980  17.782  10.197   0.089  0.0907  0.2604 -0.0102
22457W        W39981  16.472   0.848   3.534  0.1772 -0.1589 -0.0599
22458W        W39982   4.773  10.802  16.220 -0.0857  0.2359 -0.0085
22459W        W39983   3.631   3.366  12.859 -0.1306 -0.0187  0.1015
22460W        W39984  14.147  11.610   6.097 -0.0977  0.1292 -0.2296
22461W        W39985   6.754   6.731   3.647  0.1353  0.1358 -0.0958
22462W        W39986  13.408   1.221  11.551 -0.3033 -0.2178 -0.0105
22463W        W39987  17.609   8.699   4.356 -0.2452  0.4001  0.1535
22464W        W39988  10.077   0.159  15.675  0.0722  0.3808  0.0890
22465W        W39989  12.188  11.854  14.642  0.1202  0.3576 -0.1278
22466W        W39990   2.149  12.223  15.509  0.3630  0.2839 -0.1548
22467W        W39991   1.951   8.041  15.130  0.1838 -0.2189 -0.2518
22468W        W39992   0.454   0.603  16.116 -0.0649 -0.4243  0.1224
22469W        W39993  11.361  16.508   1.140 -0.0489 -0.2183 -0.2392
22470W        W39994  15.799  13.371   1.358 -0.2473 -0.0634 -0.0504
22471W        W39995   7.838   5.468  11.910 -0.0832  0.2506 -0.1531
22472W        W39996  17.370  13.588  15.344  0.2472 -0.3336 -0.1748
22473W        W39997  13.221   0.202   3.476  0.2062 -0.3408 -0.0597
22474W        W39998  15.505   5.490  14.984  0.0249  0.0773  0.2840
22475W        W39999  16.944   1.642   2.867  0.1064  0.2594  0.1026
22476W        W40000   2.636  16.256  11.478  0.2364  0.1668 -0.2877
22477W        W40001   0.791  14.671   4.838  0.1466  0.1682  0.0243
22478W        W40002  13.499   3.032  13.122  0.2035 -0.0018  0.0369
22479W        W40003   2.016  13.703   3.543 -0.0349 -0.1211 -0.3165
22480W        W40004   0.994  16.949   3.079 -0.1720  0.0373 -0.1790
22481W        W40005   9.937  12.331   3.547 -0.3399 -0.0014 -0.0641
22482W        W40006  10.299   4.653   3.736 -0.0960  0.0300 -0.0855
22483W        W40007  16.479   1.324  13.794  0.2981 -0.2804 -0.1937
22484W        W40008   9.549   7.854   4.562  0.0475 -0.3457  0.4324
22485W        W40009  13.329  15.088   0.266 -0.1237 -0.1987 -0.1772
22486W        W40010  14.452   6.561  10.803 -0.1469 -0.0313 -0.0024
22487W        W40011   6.390   6.285   1.718  0.0440 -0.0912  0.0107
22488W        W40012  13.923   7.179   3.428  0.0098  0.2184  0.2304
22489W        W40013   9.269  11.208   4.325 -0.2091 -0.1804  0.1571
22490W        W40014  17.367  13.608   2.895  0.4134  0.4245 -0.1832
22491W        W40015   1.043  14.155   5.764 -0.0780  0.0298 -0.2987
22492W        W40016  12.167   3.564  11.697  0.0132  0.1934 -0.0523
22493W        W40017   9.784  10.442   1.061  0.4148 -0.0495 -0.1337
22494W        W40018   4.757   1.994   3.670 -0.0406 -0.0610  0.1627
22495W        W40019   8.613   1.954  11.497  0.0060  0.0202  0.0022
22496W        W40020   8.648  15.099   2.951  0.0505  0.2327  0.1405
22497W        W40021   5.470  17.962   2.196 -0.2872 -0.1542  0.3383
22498W        W40022   7.716   1.587  14.462  0.0126 -0.1493 -0.0120
22499W        W40023   1.582  11.484  13.473 -0.1942  0.0594 -0.2537
22500W        W40024  12.830  13.330  13.116  0.0432  0.1461 -0.2784
22501W        W40025   8.716   3.491  12.006  0.2566 -0.1445 -0.0383
22502W        W40026   0.203  17.148   3.571  0.2537  0.1934 -0.1400
22503W        W40027   8.007   0.726   4.787  0.3533 -0.2374  0.0035
22504W        W40028  11.984  10.745  10.697  0.0125  0.1041 -0.0135
22505W        W40029   3.208   4.507  15.588  0.0642 -0.3308  0.2352
22506W        W40030  16.883  12.615   0.199 -0.0576 -0.1141  0.2329
22507W        W40031   4.503   6.341  12.809 -0.0974  0.1807  0.2167
22508W        W40032   6.758  10.109  15.757  0.2662 -0.1983  0.1649
22509W        W40033  12.336  10.239   1.260  0.0938 -0.1924 -0.0697
22510W        W40034   9.127   8.665  15.544 -0.0002 -0.1256 -0.1221
22511W        W40035  14.899   3.304   1.995  0.0893  0.4292 -0.1193
22512W        W40036   5.941   9.184   3.073 -0.0327  0.0540  0.2907
22513W        W40037   0.903  12.119   1.997  0.0462  0.1058  0.0382
22514W        W40038   6.010  10.654  14.614 -0.4434 -0.2532 -0.1676
22515W        W40039  14.380   1.965   0.557 -0.1454 -0.0837 -0.0597
22516W        W40040   8.823   7.939   3.037  0.0842  0.0746  0.2827
22517W        W40041   9.867  17.741  10.175 -0.0192 -0.1172 -0.0696
22518W        W40042   6.413   1.132   0.765 -0.2054 -0.4539  0.0674
22519W        W40043   4.832   7.205   0.395 -0.1063 -0.0072 -0.0022
22520W        W40044   7.341  16.978  14.006  0.1403  0.1245  0.0237
22521W        W40045   3.993   5.362   3.368 -0.3673 -0.1194  0.3301
22522W        W40046   2.152   1.971   1.805  0.1015  0.1338  0.0110
22523W        W40047  15.428   6.053   0.119 -0.0555  0.1285 -0.0622
22524W        W40048  10.527   2.916  15.477 -0.0414  0.2113 -0.3186
22525W        W40049   8.140  15.748  13.983  0.1538  0.0627  0.1922
22526W        W40050   8.357  11.819   4.864 -0.0236  0.1086 -0.0461
22527W        W40051   8.960   7.609   2.621  0.1921 -0.2105  0.0987
22528W        W40052   1.965   4.986   1.899 -0.1236 -0.3025  0.0761
22529W        W40053   1.927  12.438   0.618 -0.0617 -0.0219 -0.3593
22530W        W40054  14.453  12.904   1.878 -0.1559 -0.3436 -0.0070
22531W        W40055   2.240   9.909  16.207 -0.0859  0.1203  0.2724
22532W        W40056   0.133  17.433   1.436 -0.0641  0.0407 -0.1589
22533W        W40057  16.969   5.182  14.804 -0.1011  0.1449  0.3842
22534W        W40058  10.760  15.873  15.766  0.0693  0.0099  0.1868
22535W        W40059   1.510  15.915  13.507 -0.0987 -0.2289  0.0245
22536W        W40060  15.565  15.284   2.412 -0.1496  0.0553 -0.0431
22537W        W40061  16.747   6.280   4.362  0.0922  0.2686  0.1857
22538W        W40062   4.126   3.886  12.045  0.1505 -0.2216  0.0883
22539W        W40063  13.457  16.669   0.514 -0.1329  0.0475  0.0169
22540W        W40064   4.058  12.427   3.297 -0.1903  0.2339  0.1118
22541W        W40065   3.434   9.940  13.651 -0.0094  0.0537 -0.0327
22542W        W40066  11.307  15.702   0.878 -0.0219 -0.0769 -0.1223
22543W        W40067   6.981  13.042  14.263  0.0468 -0.1047 -0.0077
22544W        W40068  12.757   9.812   2.326  0.0726  0.0895  0.0491
22545W        W40069  16.834  13.543  15.203 -0.1518  0.2161  0.1266
22546W        W40070  12.333   4.148   1.779 -0.2008 -0.0762  0.0883
22547W        W40071  16.350   5.489  12.828  0.0515 -0.0907  0.3540
22548W        W40072   3.691  15.286  15.043  0.2161  0.1670  0.1562
22549W        W40073   3.686   0.078   3.860 -0.0059 -0.1150  0.0857
22550W        W40074  10.955   5.374  13.916 -0.2527  0.3557 -0.2847
22551W        W40075   8.440   3.794  11.273  0.1279 -0.0928 -0.0796
22552W        W40076   5.253  16.388   0.681 -0.1072  0.0973  0.0173
22553W        W40077   8.159   3.228   2.984 -0.3676 -0.3103 -0.1240
22554W        W40078   8.128  10.286  15.006 -0.2106 -0.2423 -0.0788
22555W        W40079   8.705  16.110   1.475 -0.1475  0.2547  0.2533
22556W        W40080   3.000   9.962  14.086 -0.0284  0.1812 -0.0609
22557W        W40081  17.774  15.750  12.976 -0.2219 -0.1207 -0.0621
22558W        W40082  17.850  17.818  12.466  0.1115 -0.2217 -0.1550
22559W        W40083   9.270  14.975   4.258  0.1812 -0.0361  0.0389
22560W        W40084  17.167  16.946   3.629 -0.0236 -0.2998  0.1837
22561W        W40085   7.465   6.279   3.725 -0.0249 -0.0226  0.2473
22562W        W40086   2.145   6.142   4.081 -0.1216  0.1666  0.1713
22563W        W40087  10.364  14.556  13.779  0.0143  0.0538 -0.1926
22564W        W40088   7.532  12.855  13.604  0.2464 -0.0798  0.3630
22565W        W40089   9.705   5.239  16.248  0.1001  0.0285  0.1055
22566W        W40090  12.978  14.094   2.289 -0.0454 -0.3467  0.0237
22567W        W40091   8.607  10.046  11.917  0.3016 -0.0793  0.1584
22568W        W40092  16.033   1.575  11.943  0.0241 -0.3813 -0.2349
22569W        W40093  12.502   7.687  13.541  0.0956  0.0155 -0.1322
22570W        W40094   4.139  16.192  12.926 -0.2021  0.0464  0.2311
22571W        W40095   7.591   4.376   1.468 -0.0193  0.0385  0.3396
22572W        W40096   5.741  13.098   3.803  0.1074 -0.1222 -0.0956
22573W        W40097   6.624  17.954  10.727 -0.0961 -0.1325 -0.0512
22574W        W40098  13.995   1.571   3.425  0.0034  0.1120 -0.2994
22575W        W40099  10.007  12.806   3.715  0.1344 -0.4379 -0.0054
22576W        W40100   7.228  12.133   5.630  0.1424  0.1298  0.1258
22577W        W40101   7.359  17.499   1.430 -0.1200 -0.1224  0.0068
22578W        W40102   3.727  12.845   0.813 -0.4385  0.3846 -0.0618
22579W        W40103  10.569   2.472  12.532 -0.1263  0.0329 -0.3303
22580W        W40104  14.056   1.805  10.902  0.2827  0.1237 -0.0982
22581W        W40105  13.899   7.677   2.120  0.0816  0.0089  0.1490
22582W        W40106  15.253   8.263   2.548 -0.0531  0.1680  0.1499
22583W        W40107  17.698  11.449   0.189 -0.0473 -0.0029 -0.0939
22584W        W40108   1.394  17.595   4.124 -0.0349 -0.2532 -0.0481
22585W        W40109   9.051   6.199   3.822  0.2743 -0.5537 -0.2005
22586W        W40110  14.220   0.673   2.435  0.1893  0.0387 -0.0049
22587W        W40111   2.548  16.993  15.637  0.1910  0.1180  0.1968
22588W        W40112   5.109  13.196   4.648  0.3433 -0.2587 -0.2726
22589W        W40113   5.140  12.182  12.738 -0.1665  0.1390 -0.1325
22590W        W40114   8.310   0.897  10.571 -0.1504 -0.0271 -0.3096
22591W        W40115   8.845  12.479   1.140 -0.0640 -0.1014  0.3064
22592W        W40116  16.113   2.523  11.609 -0.2101 -0.3918 -0.0084
22593W        W40117   6.206   2.231  15.403  0.1324 -0.0690  0.1240
22594W        W40118   0.120  12.401  12.750 -0.1544 -0.0521 -0.0610
22595W        W40119  14.733  13.475  11.043 -0.0317  0.0399 -0.0044
22596W        W40120   5.182   2.587  13.179  0.1884 -0.0740 -0.0416
22597W        W40121   4.927  10.893   3.925 -0.2193  0.2423  0.1165
22598W        W40122  12.889  15.227  12.442  0.0612 -0.1535 -0.3173
22599W        W40123  10.685   5.959   2.979 -0.1960  0.3900  0.1570
22600W        W40124  13.094  12.286   0.375 -0.1580 -0.0333  0.0948
22601W        W40125   8.629  16.552  12.755  0.1110  0.0001  0.3493
22602W        W40126   9.110   5.517  12.275  0.2532  0.1044 -0.0847
22603W        W40127  16.600   7.222   0.863 -0.0732  0.0120 -0.0569
22604W        W40128  15.650   1.166   3.311  0.0481 -0.2874 -0.0124
22605W        W40129  15.006  14.305  13.693 -0.0371 -0.0556  0.0236
22606W        W40130  13.102  14.121   3.612 -0.1740 -0.0896  0.1348
22607W        W40131   8.409  14.729   3.811  0.0270 -0.0140 -0.4327
22608W        W40132   2.428   8.127   4.942  0.1904 -0.3344  0.0477
22609W        W40133  12.069   0.169  12.432  0.1986 -0.2161 -0.1359
22610W        W40134   8.982  13.205  12.278 -0.0112 -0.0730 -0.1922
22611W        W40135  11.949   6.904  12.120  0.0604  0.2257 -0.3002
22612W        W40136   2.294   7.890   1.831 -0.3992  0.1685 -0.1580
22613W        W40137  13.004  17.183   0.642  0.1137 -0.1753 -0.1357
22614W        W40138  17.014  16.850   2.471 -0.2297  0.1854  0.1025
22615W        W40139  17.211  12.115   5.507 -0.1737 -0.0050 -0.0511
22616W        W40140   5.292   2.993  12.908  0.0474 -0.1394 -0.2074
22617W        W40141   5.470   9.800  14.884 -0.1195  0.1402 -0.1829
22618W        W40142  14.137   0.288  12.777  0.1353 -0.0490  0.2326
22619W        W40143  17.055   9.310  14.606 -0.0824 -0.0628  0.2457
22620W        W40144   3.926   3.278   2.346  0.1766  0.2052  0.1797
22621W        W40145   8.221   5.490  12.826  0.0811 -0.0541 -0.2279
22622W        W40146   2.755  13.931  13.338 -0.4540 -0.2556 -0.0229
22623W        W40147   8.318  10.996   3.277 -0.1463  0.0089 -0.1995
22624W        W40148   6.621   8.837   2.545 -0.1316  0.0914  0.0267
22625W        W40149  11.872   0.605   2.388  0.1157 -0.1910 -0.0176
22626W        W40150   3.350   0.743   1.368  0.2700  0.0185  0.1947
22627W        W40151   2.694   2.622   1.255 -0.0488 -0.1462 -0.1002
22628W        W40152  15.738   3.748  14.464 -0.2033  0.2967 -0.0654
22629W        W40153   5.757  15.263   3.193  0.0212 -0.1548 -0.1071
22630W        W40154   0.425   9.376   4.487 -0.1758  0.1954  0.1337
22631W        W40155  15.028  13.697  12.347  0.1687  0.0327  0.2620
22632W        W40156   8.724   5.033   3.729 -0.2160 -0.1357 -0.0386
22633W        W40157  12.081  17.030  16.163 -0.0388 -0.1042 -0.2789
22634W        W40158   7.902  16.020  13.064 -0.0554 -0.0050 -0.0527
22635W        W40159  13.047   0.744   3.752  0.0798 -0.1286  0.3372
22636W        W40160  12.664   9.282   0.412  0.0482 -0.0600 -0.1772
22637W        W40161  14.597  12.539  10.613  0.0395 -0.1993  0.1388
22638W        W40162  13.279   6.128   4.874 -0.0983 -0.0792 -0.2440
22639W        W40163   3.440   2.268  13.688 -0.0348 -0.4221 -0.0335
22640W        W40164   1.852   1.011  13.443 -0.2958 -0.0589  0.3983
22641W        W40165   8.642  15.486   0.290 -0.2874 -0.1003 -0.0523
22642W        W40166  17.179   4.090  10.605 -0.2685  0.0051 -0.1544
22643W        W40167   5.663  15.906   1.521 -0.1443 -0.0208 -0.2794
22644W        W40168   2.112   0.346  13.971 -0.0171 -0.0659 -0.0011
22645W        W40169  12.232  14.367  14.017 -0.1050 -0.1303 -0.0294
22646W        W40170   1.572   1.021   4.011  0.1548 -0.1466 -0.0229
22647W        W40171   5.876  12.509  15.774  0.0189  0.0320 -0.2887
22648W        W40172  15.390   4.053  10.475  0.0852 -0.2497 -0.1418
22649W        W40173   3.006   5.189   5.089  0.1415  0.2367 -0.2314
22650W        W40174  16.463  16.434  11.712 -0.2075  0.0212 -0.1333
22651W        W40175   7.938  13.482  12.518 -0.2162 -0.0436 -0.0077
22652W        W40176  11.808   2.909  16.166 -0.3918  0.3423 -0.0216
22653W        W40177   2.014   8.977   0.502  0.0918 -0.0625  0.1662
22654W        W40178  12.802  15.246   3.367  0.0835 -0.0793  0.0292
22655W        W40179   7.228   7.978   4.018 -0.3700  0.1891 -0.0813
22656W        W40180  17.005  11.507  14.699 -0.0360 -0.2362  0.2664
22657W        W40181  16.622  17.905  12.400 -0.1115  0.1482 -0.0669
22658W        W40182   8.224  14.339  13.057 -0.0861  0.1048 -0.3287
22659W        W40183   7.909   6.575  13.114  0.3869  0.3518 -0.1860
22660W        W40184   7.798   7.618   4.033  0.0482 -0.1248 -0.2945
22661W        W40185   3.651  14.246   1.781 -0.1807 -0.1901  0.1943
22662W        W40186   3.052   5.217   2.061 -0.1368 -0.2362  0.0666
22663W        W40187   2.476   4.142  15.757  0.1492 -0.0993  0.0843
22664W        W40188   4.864  11.322   1.595 -0.0897  0.1775  0.3486
22665W        W40189   8.743  10.669   4.167  0.0833 -0.1944  0.0565
22666W        W40190  15.036   5.032   1.392  0.2286 -0.1006 -0.2477
22667W        W40191  17.042  13.599   3.904 -0.0212 -0.1935  0.1044
22668W        W40192  17.109   4.736   0.553 -0.0400 -0.0221 -0.0104
22669W        W40193   5.893   7.810   0.770 -0.1804  0.0657 -0.2279
22670W        W40194  11.037  15.633   4.969 -0.2111  0.1644  0.0579
22671W        W40195   3.587   4.236  12.849 -0.1145  0.1352  0.1991
22672W        W40196  16.100   6.371  14.006 -0.0017 -0.1749  0.0203
22673W        W40197  10.971  17.572   1.835 -0.1107  0.2849 -0.1427
22674W        W40198  12.221   9.497  11.317 -0.0569  0.1290  0.1508
22675W        W40199   3.847   4.558   0.174 -0.0425  0.1195  0.0844
22676W        W40200   1.012  12.296  15.515  0.0288  0.0897  0.0546
22677W        W40201   5.455   4.272  13.216 -0.1623 -0.0158  0.0696
22678W        W40202  17.913   6.034   4.237  0.0445  0.0199  0.0600
22679W        W40203  12.642  12.362  13.254  0.1694 -0.0542  0.1368
22680W        W40204   6.376  11.553   1.747  0.0178  0.1417  0.0913
22681W        W40205   1.982   9.836   3.071  0.3031 -0.0031  0.2191
22682W        W40206   3.277   9.346  14.698 -0.2570 -0.0458 -0.1066
22683W        W40207   4.438   0.127  14.308  0.0540  0.0782 -0.2700
22684W        W40208   0.321  12.299  14.364 -0.1401  0.2408  0.0915
22685W        W40209   5.032  15.795   0.045  0.1356 -0.0562  0.0661
22686W        W40210  15.764   5.959   4.958  0.3557  0.0882  0.1505
22687W        W40211   2.625   7.485   1.937 -0.5503 -0.0552 -0.1038
22688W        W40212   2.422  11.298  15.357 -0.1787  0.1118 -0.1302
22689W        W40213   9.612  11.903  15.772 -0.1444 -0.1024 -0.0745
22690W        W40214   1.408  12.453  11.834 -0.3237 -0.0094  0.3069
22691W        W40215  10.863   4.847  15.390 -0.2351 -0.0926  0.0869
22692W        W40216  13.053  17.092   5.700  0.0958 -0.1771  0.2195
22693W        W40217  10.897  14.532  14.306 -0.1838  0.2004 -0.2377
22694W        W40218  16.049  17.186   4.214  0.0846  0.0199 -0.1317
22695W        W40219   9.246  14.556   1.695 -0.2149  0.2479  0.0593
22696W        W40220  17.740   2.391   3.817 -0.1615 -0.0952  0.0111
22697W        W40221  12.530   5.658   0.869  0.1928  0.2500 -0.1959
22698W        W40222   0.768  13.293   1.247 -0.1119 -0.2239  0.1581
22699W        W40223   1.164   6.103   5.527  0.1752  0.3369 -0.1032
22700W        W40224  15.849   2.942  11.812  0.1689 -0.0415  0.0488
22701W        W40225   2.983  13.617  12.385 -0.0508 -0.2022  0.1163
22702W        W40226   2.524  11.927  12.062 -0.2554 -0.0132 -0.0186
22703W        W40227  12.965  17.378  11.098  0.1147  0.3634 -0.3015
22704W        W40228   4.964  16.227   4.385 -0.1448  0.1457 -0.0188
22705W        W40229  12.822  12.734   2.586  0.0050 -0.3868 -0.2340
22706W        W40230  12.645   1.944  15.505  0.1160 -0.0255  0.3224
22707W        W40231   5.617  14.341   3.467 -0.1838 -0.0869  0.2676
22708W        W40232   4.650   4.080   0.002 -0.2568 -0.4218  0.1862
22709W        W40233  16.535  13.505  12.389  0.1065 -0.0468  0.1920
22710W        W40234   5.386   5.790   3.169  0.0170  0.3330 -0.1485
22711W        W40235   1.798   6.392   4.342 -0.1085 -0.1100 -0.0141
22712W        W40236  10.873   4.059   3.161 -0.0364 -0.2611  0.2785
22713W        W40237  11.334   6.497   3.546 -0.2417  0.2700  0.0525
22714W        W40238   6.696   4.650  15.215  0.0120  0.1248  0.1606
22715W        W40239  15.960  17.742   4.163  0.1262  0.0860  0.3440
22716W        W40240   0.667  17.426   0.493  0.1231  0.2050 -0.0662
22717W        W40241   1.995  10.791  12.144  0.1020 -0.0542 -0.0253
22718W        W40242   3.072  13.921   1.997  0.1546 -0.1281  0.3154
22719W        W40243   3.147   0.246  12.720 -0.0576  0.2031  0.1614
22720W        W40244   4.258   4.795   1.529 -0.2812 -0.1940 -0.0799
22721W        W40245  12.259  12.142   2.440 -0.0308  0.1085 -0.0441
22722W        W40246  10.866   6.923   2.916  0.1179 -0.3307  0.0875
22723W        W40247   8.538   0.610  13.828 -0.1112 -0.1793  0.0950
22724W        W40248   6.338   5.086  15.632 -0.0711  0.1828 -0.0504
22725W        W40249   4.995   7.231  14.472  0.1334 -0.0804 -0.1484
22726W        W40250   5.952   8.298   1.143 -0.0809 -0.0199  0.3874
22727W        W40251  15.889  17.594  15.685  0.1627 -0.3807  0.0833
22728W        W40252   0.267  15.326  11.173 -0.2355 -0.1451  0.0146
22729W        W40253   1.731   2.239   2.077  0.0592  0.0526  0.0994
22730W        W40254  11.044  14.447   2.409 -0.1979  0.1834 -0.0219
22731W        W40255  10.680  16.275  13.450  0.1629 -0.1394 -0.0343
22732W        W40256   8.395  14.005  14.659  0.3181  0.1234  0.0163
22733W        W40257  14.432   6.562  12.122 -0.0035  0.3566  0.0431
22734W        W40258   8.567  11.286  10.412 -0.0166  0.0882  0.0143
22735W        W40259  17.741   1.862  12.461 -0.0234 -0.1153 -0.3022
22736W        W40260  13.732  16.535   4.850  0.1478 -0.1530  0.3177
22737W        W40261   4.144   9.321  12.737 -0.0748 -0.1571  0.3856
22738W        W40262  15.568  13.528  12.201  0.1278 -0.2776  0.2168
22739W        W40263   8.953  13.584  14.058 -0.2165 -0.0354 -0.3144
22740W        W40264  11.796   7.716  11.678 -0.3356 -0.0409 -0.3519
22741W        W40265  11.888  17.653  15.042 -0.4158 -0.1202  0.0056
22742W        W40266  14.804  16.545  15.032  0.0808  0.0256 -0.0247
22743W        W40267  14.945   2.927   5.943  0.2263  0.0946  0.0488
22744W        W40268  12.062  12.715   4.679 -0.0421 -0.1356 -0.0568
22745W        W40269  16.235   7.189   3.441  0.1307 -0.0410  0.0092
22746W        W40270  12.717   9.759   3.676  0.0625  0.2161  0.0227
22747W        W40271   1.179   5.996  13.182 -0.0348  0.2554 -0.0869
22748W        W40272   5.502   1.204  12.904 -0.0930 -0.3211  0.0842
22749W        W40273   3.467   9.379  11.740  0.0619 -0.3717  0.0490
22750W        W40274   2.657  14.981  11.953 -0.0388 -0.2153  0.0364
22751W        W40275   0.225   2.269   2.507 -0.0779  0.2293  0.0241
22752W        W40276   1.634  11.205   0.988 -0.0327 -0.0849 -0.0687
22753W        W40277   6.812   6.434   2.576  0.0180  0.0893  0.3003
22754W        W40278   6.909  16.780  14.732 -0.0369  0.1143  0.0413
22755W        W40279  16.606   9.454  11.181 -0.0386  0.2689  0.0633
22756W        W40280   6.235  14.742   1.592 -0.1854  0.1203 -0.1236
22757W        W40281  12.162   8.531   0.295 -0.0171  0.0582 -0.0378
22758W        W40282  12.230   4.143  15.477  0.4068 -0.1761  0.2696
22759W        W40283  14.288   4.597   4.453 -0.0314  0.1248  0.1294
22760W        W40284   8.595  12.373  15.275  0.0776 -0.0632  0.0637
22761W        W40285   4.243  10.437  15.481  0.2451  0.0842  0.0136
22762W        W40286   1.211  10.624  11.265 -0.3281  0.1061  0.0832
22763W        W40287  13.720   9.884  15.316 -0.0067  0.1556  0.1026
22764W        W40288   0.406   3.274  11.325 -0.0088 -0.0038  0.0006
22765W        W40289  15.870  13.996  13.166 -0.1595  0.1177 -0.1434
22766W        W40290   4.247   5.745   6.025  0.0433 -0.2752  0.1092
22767W        W40291   6.969   0.205   4.192 -0.2725 -0.0281  0.2016
22768W        W40292  17.034   3.967  12.513  0.0373 -0.0010 -0.3544
22769W        W40293  15.439   4.953   0.698  0.1401  0.0796  0.0190
22770W        W40294   5.144  13.084   0.476  0.2684  0.3479  0.1443
22771W        W40295   2.601   4.736  11.448 -0.1583 -0.4944 -0.1746
22772W        W40296  13.550   7.492   2.544 -0.0268 -0.0072  0.1729
22773W        W40297   3.604   5.496   0.680  0.0502 -0.0018 -0.3737
22774W        W40298   1.064   8.579   2.969  0.2751  0.1306  0.2747
22775W        W40299  13.430   9.948   2.335  0.2112 -0.1106 -0.2406
22776W        W40300  11.103  11.928  14.188  0.1313  0.4150  0.0408
22777W        W40301  17.501   7.356  11.986  0.0038 -0.0091 -0.1866
22778W        W40302   0.073  11.267  16.079  0.3108  0.1325 -0.0619
22779W        W40303  17.392  16.729  15.624  0.2445 -0.0573 -0.1375
22780W        W40304   2.442   0.330  15.237 -0.2050  0.3605 -0.1871
22781W        W40305  14.363  11.783  13.998  0.1824 -0.1842  0.0705
22782W        W40306  13.557  11.854  14.679  0.2148 -0.0716  0.1281
22783W        W40307  10.172  16.039  12.574  0.2880  0.1694 -0.1214
22784W        W40308  14.567  15.634  13.960 -0.1211 -0.1547  0.0706
22785W        W40309  17.219   6.510  13.309  0.2327  0.2012 -0.0906
22786W        W40310   4.761   6.598   4.553 -0.2937 -0.2137 -0.1914
22787W        W40311  11.170  17.038   1.145 -0.1343 -0.2268 -0.3814
22788W        W40312   3.610  10.714  11.441 -0.0092 -0.0731  0.0138
22789W        W40313   6.974   3.794  14.993  0.1882 -0.1994  0.0297
22790W        W40314   8.567   6.138   2.824 -0.0990  0.2077 -0.0819
22791W        W40315   1.681   6.048  15.609  0.1538 -0.0721  0.1491
22792W        W40316  13.745  12.818   1.607 -0.2519  0.1102 -0.1998
22793W        W40317  14.420   6.302  15.434  0.0487 -0.0064 -0.0018
22794W        W40318   1.857  15.129  15.546  0.3863 -0.0833 -0.2878
22795W        W40319   4.946   3.176   2.514  0.3012  0.0813  0.1777
22796W        W40320   6.635  13.892  12.721 -0.0636 -0.0177  0.2334
22797W        W40321   6.297  17.412   1.666  0.1745  0.2522  0.1810
22798W        W40322   9.375   2.764   3.847 -0.1515  0.2189  0.1347
22799W        W40323  10.161   8.963   4.682  0.1904  0.3046  0.2351
22800W        W40324   5.413  17.740  14.839 -0.1491  0.2146  0.0901
22801W        W40325  16.795   2.427   0.903 -0.2035  0.1716 -0.0081
22802W        W40326  17.928  14.408   2.618  0.0659  0.1155  0.0025
22803W        W40327  15.839   0.958   4.731 -0.0136 -0.0006 -0.1982
22804W        W40328   7.188   6.572   4.475  0.1399  0.1921  0.0488
22805W        W40329   7.652  11.815  11.622 -0.2243 -0.2253 -0.0411
22806W        W40330   5.992   3.181  12.989 -0.1385  0.1140  0.1082
22807W        W40331   4.867   5.252  15.478 -0.1843  0.1826  0.2253
22808W        W40332   5.025  10.052  14.627  0.0826 -0.0563 -0.0773
22809W        W40333   9.731   9.460   2.686 -0.0369  0.2537 -0.1621
22810W        W40334  10.684  12.910   5.422 -0.4959  0.1459  0.1484
22811W        W40335   2.255   4.845   1.515 -0.0836 -0.0119  0.0278
22812W        W40336   7.302  14.664  12.034 -0.0032  0.2134  0.0532
22813W        W40337   2.429   2.539   6.248 -0.2305 -0.2536 -0.0417
22814W        W40338  12.465  10.462   2.872  0.0016  0.0735  0.1278
22815W        W40339   3.524   2.943  14.605  0.2091 -0.1446  0.1237
22816W        W40340   2.142   1.969  13.636 -0.0591  0.1008  0.0164
22817W        W40341  16.568  16.254   4.221 -0.0427 -0.2694  0.2183
22818W        W40342  10.519   8.816   3.544 -0.1480 -0.1865  0.0401
22819W        W40343  15.975   9.464  15.179 -0.2082  0.0322 -0.0760
22820W        W40344  14.685  16.040  15.910 -0.0142 -0.1328 -0.0255
22821W        W40345   5.591   3.836  14.820 -0.0377 -0.0634 -0.2529
22822W        W40346   0.359   7.497   5.116  0.2449  0.4242 -0.2212
22823W        W40347   9.591  13.084  12.852  0.0348  0.2072 -0.1094
22824W        W40348   6.448  16.136   0.412 -0.0295 -0.0148 -0.0329
22825W        W40349  15.144  13.397  13.586  0.2564 -0.2149 -0.0172
22826W        W40350   6.689  15.120  12.634 -0.2517  0.1366  0.1254
22827W        W40351  11.442   9.177  11.295  0.6302 -0.3105 -0.2945
22828W        W40352  16.986   9.847  14.786  0.1809  0.1381 -0.0845
22829W        W40353   9.087   9.663   0.979  0.1504 -0.3172  0.0503
22830W        W40354   1.060   5.614  14.933 -0.0523  0.0364  0.3087
22831W        W40355   7.206   7.767  15.717 -0.1072  0.1640 -0.1018
22832W        W40356   8.531   2.448  11.291  0.2344  0.0344  0.1030
22833W        W40357  13.902  15.691   2.563 -0.4319  0.1816 -0.0695
22834W        W40358  13.753   6.564   0.390 -0.1088  0.0211 -0.2294
22835W        W40359   8.578   7.990   1.867 -0.1094 -0.0093 -0.3891
22836W        W40360  10.726  15.252  11.800  0.0886 -0.1407  0.0889
22837W        W40361  17.888  16.266   3.547  0.0777 -0.0807  0.1643
22838W        W40362  17.173  14.670   0.073  0.1352  0.0104 -0.0850
22839W        W40363   2.486   4.300   2.467  0.0573  0.0627  0.0594
22840W        W40364   8.964   7.065  16.214 -0.2299 -0.2239  0.0781
22841W        W40365   3.417   4.494   0.940 -0.0084 -0.0906  0.0089
22842W        W40366  12.263   0.782   4.627 -0.0746  0.0386  0.0486
22843W        W40367   4.647  14.354  13.373  0.1030  0.1710 -0.3709
22844W        W40368   9.432   0.051  11.771  0.0125 -0.1591 -0.2263
22845W        W40369  13.649   6.187   3.634 -0.0392 -0.0464 -0.0171
22846W        W40370   1.556   8.366   5.111  0.1092  0.0064 -0.1911
22847W        W40371  11.639  14.736  11.748 -0.4325 -0.0558  0.0043
22848W        W40372   4.954   5.368   1.361  0.2593 -0.2140 -0.0079
22849W        W40373  12.861  14.430  14.374  0.2296  0.0565  0.1641
22850W        W40374   5.363   7.165   1.279  0.3476 -0.1960  0.2393
22851W        W40375  10.830   9.005   2.549  0.1571 -0.1477 -0.3056
22852W        W40376   4.987  13.581  14.894  0.3739 -0.0063 -0.4388
22853W        W40377   2.748  10.547   1.266  0.2499  0.0637  0.0122
22854W        W40378   4.500   9.061  13.407 -0.4205 -0.3599  0.0619
22855W        W40379  10.651   6.821   2.440 -0.0713  0.0625 -0.1084
22856W        W40380   6.341   2.953  15.929 -0.2990 -0.2314  0.1269
22857W        W40381   7.887   0.623   1.428  0.1338  0.0720 -0.1609
22858W        W40382  12.401   7.707   1.130  0.1787 -0.0153  0.0790
22859W        W40383  15.172   6.467  11.064  0.1672 -0.2870 -0.0904
22860W        W40384  13.650  17.726   4.073  0.1989 -0.1716  0.0055
22861W        W40385  11.637   6.133  10.608 -0.0310 -0.0971  0.1900
22862W        W40386  14.765   3.546   3.125 -0.2171 -0.0942 -0.3879
22863W        W40387   7.093   1.831  11.204  0.0563  0.7187 -0.0760
22864W        W40388  10.070   9.143  11.914 -0.0805 -0.1067  0.1311
22865W        W40389  11.003  11.093   5.451  0.0664 -0.2798 -0.2298
22866W        W40390   5.044   1.128   2.041 -0.1108 -0.2679  0.2318
22867W        W40391  14.265   7.943  11.231 -0.2147 -0.0375 -0.1940
22868W        W40392   8.051   5.837  15.962  0.3914 -0.0442 -0.3587
22869W        W40393  17.669   4.199  16.063 -0.0547 -0.1269  0.0192
22870W        W40394  16.052  11.448   3.629 -0.1299 -0.1106  0.3156
22871W        W40395   7.139  12.077   3.711  0.0444 -0.0079  0.0874
22872W        W40396   8.346   5.020   2.177 -0.2732  0.3103 -0.0556
22873W        W40397  11.705  13.721  14.394  0.1762 -0.1816 -0.0689
22874W        W40398   0.161  11.526   1.324 -0.0342  0.1465 -0.3693
22875W        W40399  12.525   4.166   0.365 -0.0498 -0.1792 -0.1140
22876W        W40400   4.284  16.300  12.390 -0.0866  0.0548  0.2395
22877W        W40401   5.416   3.349  14.266  0.2143 -0.1163  0.1939
22878W        W40402  10.265   6.591  12.868  0.0975  0.1862 -0.0750
22879W        W40403   5.650  17.703  12.596 -0.0662 -0.1097 -0.0116
22880W        W40404   9.681  15.501  12.323  0.1857 -0.2628  0.0493
22881W        W40405  16.090  16.237  10.956  0.0629  0.0107 -0.0424
22882W        W40406   0.247   2.007  12.566 -0.0388  0.0979  0.1007
22883W        W40407   1.399  16.743   4.234 -0.0189 -0.0736 -0.0237
22884W        W40408  10.052  11.849  12.765  0.1589  0.0165  0.2480
22885W        W40409   5.645   5.224  14.218  0.0118  0.0103 -0.2537
22886W        W40410  17.163   8.205  15.418 -0.2267 -0.4566 -0.2646
22887W        W40411  14.038   0.787  12.786 -0.1053 -0.1775 -0.0162
22888W        W40412   9.721   2.138   4.880  0.1917  0.0703  0.0964
22889W        W40413  12.310   5.935  13.161 -0.2659 -0.0912 -0.1954
22890W        W40414   6.858  15.506   0.063  0.2441 -0.4121  0.0204
22891W        W40415   1.024   1.760   2.592 -0.3507 -0.4840  0.0428
22892W        W40416   7.250   6.012  11.172  0.2766  0.1958 -0.1938
22893W        W40417  15.848   0.429  16.237 -0.0506 -0.2722 -0.0446
22894W        W40418   3.851   9.873   4.696  0.1060  0.2249 -0.1013
22895W        W40419   3.165   6.932   0.639 -0.2585 -0.0142 -0.0852
22896W        W40420  15.658  12.462  14.590  0.1874  0.3979  0.0752
22897W        W40421  12.282  12.422   1.214  0.0780 -0.1069  0.0012
22898W        W40422   0.425   7.009   5.214 -0.1499  0.2241 -0.3827
22899W        W40423   0.701   2.254  11.275  0.0584  0.1647  0.0108
22900W        W40424   1.398   3.829   1.107  0.0572 -0.4401 -0.3619
22901W        W40425   5.278  14.403   1.400 -0.1252 -0.1032 -0.0767
22902W        W40426   9.075   1.517   4.204 -0.2466 -0.0053  0.3982
22903W        W40427  15.145  13.262   0.292  0.1978 -0.2880  0.0623
22904W        W40428   3.571  10.611  13.072  0.1081 -0.1304 -0.2983
22905W        W40429   9.764   3.280   2.173 -0.1997 -0.2469  0.0189
22906W        W40430   9.917  17.957   4.362 -0.4394  0.1437 -0.2775
22907W        W40431  16.030   4.765  12.214  0.0969  0.1111 -0.1940
22908W        W40432  16.910   9.912  11.696 -0.0724 -0.3289  0.2800
22909W        W40433  13.607  12.258  11.119  0.0772 -0.5090 -0.2608
22910W        W40434   9.117   2.358   2.758  0.3057 -0.0918 -0.1293
22911W        W40435   1.405   3.256   1.757 -0.2668  0.2277 -0.0477
22912W        W40436   5.026  12.984  15.797 -0.2247 -0.0176 -0.0567
22913W        W40437   2.274   4.216  13.865  0.1618  0.0295  0.2890
22914W        W40438   0.027   1.614   1.826 -0.2203  0.1606 -0.3376
22915W        W40439  12.506   5.512   3.223 -0.1035  0.0857  0.0375
22916W        W40440  14.516   8.745  13.376  0.1377 -0.4650 -0.0542
22917W        W40441   1.912  11.184   0.482  0.3134  0.2299 -0.0861
22918W        W40442  12.577  10.571  11.769 -0.1017 -0.1133  0.3929
22919W        W40443  15.093   3.173   2.839 -0.0018 -0.0785  0.0398
22920W        W40444  13.061   7.712  13.555  0.1618 -0.0339 -0.0975
22921W        W40445   4.328   9.775  13.520 -0.0381  0.1804  0.0246
22922W        W40446  16.125   5.967  14.246 -0.2062  0.3917 -0.0720
22923W        W40447  16.741  12.110  12.570 -0.0533 -0.0713 -0.0487
22924W        W40448   9.554  10.700   3.816 -0.0649  0.1417  0.1551
22925W        W40449  15.880  13.008  12.344 -0.4885  0.0418  0.0222
22926W        W40450  12.633  14.322   0.195 -0.0187  0.0752  0.2727
22927W        W40451   3.092  15.511  14.396 -0.0612  0.3246  0.0680
22928W        W40452   0.278  14.824  13.022  0.0285 -0.4333  0.4873
22929W        W40453  16.503  17.765   4.210 -0.0571 -0.1703  0.0113
22930W        W40454   8.312  13.604   3.496  0.0434 -0.0886 -0.0788
22931W        W40455  12.154   7.665   0.243 -0.1082  0.0339 -0.1152
22932W        W40456   7.391  11.738  12.606  0.3198  0.1200  0.2470
22933W        W40457   0.275   0.916  13.750  0.1891 -0.2042 -0.1064
22934W        W40458  13.436  15.041   3.409 -0.1848  0.0681  0.0530
22935W        W40459  12.219  11.769   3.349  0.2582 -0.0486 -0.2215
22936W        W40460  15.329   2.652  11.023  0.3659 -0.0234 -0.1029
22937W        W40461   5.306  15.259   2.011 -0.0108 -0.0172  0.4136
22938W        W40462  17.130  10.436   0.679  0.1942  0.0661  0.0910
22939W        W40463  17.422   5.574   4.271 -0.0554 -0.1110  0.2921
22940W        W40464   7.028  11.502   2.362  0.0659  0.0077 -0.3903
22941W        W40465   0.386  12.307  14.864  0.2326  0.0859 -0.1871
22942W        W40466   6.886   3.817  13.881 -0.2543 -0.1153  0.0160
22943W        W40467   6.092  12.865   3.068 -0.1834  0.4650  0.1683
22944W        W40468   4.746  14.642  11.543  0.2149 -0.1493  0.0333
22945W        W40469  10.078   1.255  13.220  0.0657 -0.0679  0.3409
22946W        W40470  10.553   0.808   2.565 -0.2688 -0.1634  0.0237
22947W        W40471  17.537  14.065  10.955 -0.3074  0.0161 -0.0958
22948W        W40472  17.554  10.270   1.012  0.3536 -0.2534  0.0332
22949W        W40473  11.631   9.697   3.789  0.2265  0.0983 -0.2121
22950W        W40474  12.717  16.083   4.111 -0.2546  0.1954 -0.0104
22951W        W40475  15.424  15.661   3.487 -0.0930 -0.0244  0.1379
22952W        W40476  11.432   3.585   1.078  0.1723 -0.2171 -0.5325
22953W        W40477  13.615   5.128   4.546  0.4686  0.0780  0.5144
22954W        W40478   2.528   1.642  13.583  0.0140  0.3890  0.0326
22955W        W40479   0.184   5.631   3.037  0.2164 -0.0145 -0.0134
22956W        W40480   3.388  11.792   1.615 -0.0714  0.1081 -0.2942
22957W        W40481   5.298  16.306   2.711  0.0663 -0.0416  0.2017
22958W        W40482  14.994   0.261   1.180  0.0312  0.0863 -0.1643
22959W        W40483  15.427   8.288   4.122 -0.1030  0.0570 -0.2492
22960W        W40484   6.722   0.457   0.135 -0.0389  0.1621  0.0017
22961W        W40485  12.726   5.363  14.341 -0.1199  0.0069  0.1640
22962W        W40486   5.956   4.226  15.936 -0.0877  0.1338 -0.1483
22963W        W40487  16.051  12.766   3.902 -0.0596 -0.2462 -0.2893
22964W        W40488  17.252   8.313   4.824  0.0439  0.0618 -0.2251
22965W        W40489   0.685  12.019  15.161 -0.0560  0.0147  0.0581
22966W        W40490   9.326  16.170  14.348 -0.0554 -0.0123 -0.1045
22967W        W40491   0.346  16.076  12.746 -0.1600 -0.1173  0.1325
22968W        W40492   1.647   8.511  10.775  0.2461  0.1720  0.3516
22969W        W40493   3.904   5.037  14.161 -0.0369  0.0402 -0.2727
22970W        W40494   6.605   3.362   1.481  0.0950 -0.1357  0.1386
22971W        W40495   1.749   2.747  13.987  0.0848  0.1059 -0.0157
22972W        W40496  13.878   5.160   0.425  0.1773  0.1510 -0.2034
22973W        W40497  17.795   2.481  13.052  0.0394 -0.2591 -0.2790
22974W        W40498  11.206   5.433  12.791  0.2377  0.0924  0.1346
22975W        W40499  11.913  10.879  14.050 -0.4070 -0.1758  0.0335
22976W        W40500   5.347   9.451  12.186 -0.0829  0.1598  0.2438
22977W        W40501   1.164   2.284   0.644 -0.0250 -0.0069  0.1110
22978W        W40502   3.858   1.885   4.923 -0.1486 -0.0012  0.0682
22979W        W40503  12.955  10.005  12.919  0.2200 -0.2058  0.3311
22980W        W40504  17.270  17.167   0.021 -0.0925  0.0374  0.1896
22981W        W40505   1.993   9.383   4.615 -0.0346 -0.0859  0.4783
22982W        W40506   9.157  13.228   0.858 -0.0984  0.2774  0.2093
22983W        W40507   4.461  17.231   0.177 -0.4193  0.2470 -0.0633
22984W        W40508  17.361  11.057   1.907  0.2076  0.3263 -0.1502
22985W        W40509   8.638   6.750  15.910 -0.1553  0.1226  0.0701
22986W        W40510  17.640   0.314  12.548  0.3341 -0.0262  0.2550
22987W        W40511   9.938   7.423  13.358  0.0047 -0.0548 -0.1309
22988W        W40512  10.215   5.806   1.672 -0.3848  0.0617  0.1611
22989W        W40513   8.095  16.918   1.418 -0.3145 -0.0035  0.0348
22990W        W40514   3.848   3.410  12.399 -0.0944 -0.0697  0.0377
22991W        W40515   8.452  13.156  15.888  0.2656 -0.2968  0.0667
22992W        W40516  17.506  14.565  15.718  0.2274  0.2146 -0.1275
22993W        W40517  12.232  10.089  12.584 -0.1346 -0.3817  0.1803
22994W        W40518   1.516  17.664  16.158 -0.0659  0.3170  0.0124
22995W        W40519  11.943   6.612   4.599  0.0104 -0.1833  0.0768
22996W        W40520  13.879  11.425  10.398 -0.0849 -0.2024  0.1376
22997W        W40521  17.107   5.538  12.445 -0.1376  0.2261  0.1460
22998W        W40522   2.317   5.350  15.926 -0.1019 -0.1209  0.1299
22999W        W40523   2.594   5.565   3.844  0.0705  0.0571  0.0933
23000W        W40524   9.535  16.809  15.036  0.3680 -0.1223 -0.0210
23001W        W40525   9.409   8.929   5.181 -0.0666 -0.1521 -0.0290
23002W        W40526   3.871   2.595  14.021  0.0143 -0.0794  0.0903
23003W        W40527  17.377   3.353  11.300  0.1117  0.0006  0.1555
23004W        W40528   9.436   0.609  13.596 -0.0428 -0.1031  0.1261
23005W        W40529   9.494   2.387  11.253 -0.0177 -0.0596 -0.0355
23006W        W40530  15.895  16.883  14.786 -0.1658 -0.1875 -0.1666
23007W        W40531   0.419  10.396  13.273  0.2428 -0.2226  0.0627
23008W        W40532  12.232  12.790   3.241 -0.1063 -0.1446 -0.2322
23009W        W40533   9.394   0.862  16.144 -0.1231  0.0913 -0.2173
23010W        W40534   0.054   8.689  15.531 -0.0708 -0.2251  0.0123
23011W        W40535  10.748   9.650   3.564  0.1467 -0.1244  0.2046
23012W        W40536  11.508   5.325  14.161 -0.0380  0.1348 -0.0186
23013W        W40537   9.423   6.329  12.499 -0.1247 -0.0815  0.3580
23014W        W40538   9.709  16.273   1.601  0.0870  0.1411 -0.0971
23015W        W40539  11.267  16.627   1.634 -0.0606  0.0000  0.2165
23016W        W40540   8.002  15.472  12.019  0.1399  0.0766 -0.0436
23017W        W40541   1.100   8.115  12.528 -0.0216 -0.1430  0.1874
23018W        W40542  16.476  10.882   1.911 -0.0698 -0.1816  0.1171
23019W        W40543  10.965   3.369   0.633  0.1162 -0.0776 -0.3592
23020W        W40544   1.452   3.584   2.691  0.2609  0.2012  0.0006
23021W        W40545  11.912   9.424   2.749  0.0154 -0.1054  0.1675
23022W        W40546   6.213   2.530  10.784  0.3265  0.0834  0.1496
23023W        W40547   2.380   6.745   3.134  0.1123 -0.1801  0.1666
23024W        W40548   7.799  14.675  12.795  0.1197  0.0735 -0.0366
23025W        W40549  17.553  15.796   5.791  0.0686  0.0049 -0.0500
23026W        W40550  10.123  17.375   2.148  0.0094 -0.0052  0.1529
23027W        W40551   5.213  14.752  16.013 -0.3147 -0.1841  0.2232
23028W        W40552   3.399   3.012   1.780  0.0066 -0.1413 -0.2094
23029W        W40553  17.213   7.104  13.464  0.1380  0.1669 -0.2109
23030W        W40554  10.469  14.927  15.901  0.2234 -0.1024  0.5562
23031W        W40555  15.006   7.011   0.393  0.0550  0.0793 -0.0387
23032W        W40556  14.726   8.794   2.268  0.2272 -0.1175 -0.1133
23033W        W40557   2.414  14.359   4.949 -0.0706  0.0500 -0.0726
23034W        W40558   6.864   4.192   2.987 -0.0450 -0.1614 -0.1283
23035W        W40559   8.767   3.304   0.565 -0.1787 -0.2545 -0.1067
23036W        W40560  16.675  17.509  14.400  0.3657 -0.1983  0.3661
23037W        W40561  16.962   7.831  15.104 -0.1288  0.2115 -0.0889
23038W        W40562  12.832  11.209  11.235  0.2745  0.2692  0.0185
23039W        W40563  16.967  15.738   2.883  0.0481 -0.0375  0.2030
23040W        W40564   8.496   2.473   4.174  0.0334  0.0405  0.0164
23041W        W40565  13.035  17.092   3.631 -0.3114 -0.0515  0.1645
23042W        W40566   3.151   9.014  11.575  0.0319 -0.0202 -0.2870
23043W        W40567  11.794   3.409  16.014 -0.0213 -0.0897  0.0889
23044W        W40568   1.583  13.344  13.054  0.2591  0.3611 -0.0579
23045W        W40569  14.719  10.180   9.993  0.0338 -0.1532  0.0878
23046W        W40570   3.455  13.249   0.764  0.0210 -0.2613  0.1398
23047W        W40571  14.230   9.468   0.301  0.0715 -0.1600  0.1582
23048W        W40572  16.281   7.927   1.829 -0.3402  0.0274  0.0548
23049W        W40573  11.030   8.940  12.611 -0.0409  0.1239  0.0013
23050W        W40574   4.369   3.473  12.401 -0.0260  0.1677 -0.0742
23051W        W40575   6.542  13.512   0.246  0.1345  0.1136 -0.2814
23052W        W40576   5.256  10.912  13.987 -0.0040 -0.3701  0.0964
23053W        W40577   3.391  17.647   0.314  0.1488 -0.0789 -0.0077
23054W        W40578  15.418   1.618   1.420 -0.2423  0.0934  0.0336
23055W        W40579  15.317   4.503   0.773 -0.0277  0.0791 -0.1066
23056W        W40580   7.637   2.606  14.796  0.0972 -0.2394 -0.0250
23057W        W40581   0.608  15.035  12.004  0.2325  0.1988 -0.2102
23058W        W40582   6.456  16.982   0.645  0.0999 -0.2235  0.0406
23059W        W40583  11.547   0.377   3.434 -0.0025  0.2205 -0.1194
23060W        W40584   1.290  15.043   2.039 -0.1038  0.1617  0.1361
23061W        W40585   8.960   2.420   0.151 -0.0152  0.2849  0.2106
23062W        W40586   1.580   0.871   1.793  0.2089  0.0401 -0.0598
23063W        W40587   8.593  11.908  10.511  0.1243  0.2656  0.0185
23064W        W40588  10.189   9.639   2.590  0.2114  0.2398  0.1359
23065W        W40589   3.912   6.002  12.883 -0.0266  0.0908  0.0102
23066W        W40590   3.473  15.250  11.817 -0.2983 -0.3371  0.0615
23067W        W40591   7.716   8.332   0.056  0.2172  0.3097 -0.0194
23068W        W40592   9.509   6.978   0.597 -0.0705  0.2806  0.0353
23069W        W40593  14.327   3.736  13.934  0.2366 -0.0770 -0.1995
23070W        W40594   4.392   5.047  13.351 -0.1385  0.1941 -0.1702
23071W        W40595  14.517   8.015   1.338 -0.1903 -0.0947 -0.1741
23072W        W40596  17.447   6.791   4.944 -0.1588  0.0735  0.0178
23073W        W40597   2.738   7.746   0.264  0.1106 -0.2044 -0.1304
23074W        W40598  15.138  17.410  14.292  0.2617  0.2398 -0.0979
23075W        W40599   3.331   9.460  12.724 -0.2966 -0.0785  0.0225
23076W        W40600   9.892   3.787  15.021  0.1301 -0.0481 -0.0204
23077W        W40601   1.144   4.401   0.712  0.0152 -0.1733  0.2265
23078W        W40602   9.459  17.870   4.613  0.3563  0.2175  0.2349
23079W        W40603   1.165   5.348  14.426  0.2553  0.0130 -0.1545
23080W        W40604   3.078   1.774   2.303 -0.0868  0.2593  0.0133
23081W        W40605   0.745   5.345   3.878  0.1781  0.1506 -0.0898
23082W        W40606   2.348   7.158   4.794 -0.0165  0.2119  0.0958
23083W        W40607   8.110  11.333   2.834 -0.0452 -0.1534 -0.1140
23084W        W40608  16.986   2.212  12.779  0.1169  0.3235  0.0599
23085W        W40609   9.415   3.186  15.199 -0.1784 -0.0395 -0.0496
23086W        W40610  17.753  17.650  14.372 -0.2997 -0.0322  0.1215
23087W        W40611   9.880  11.694   6.152 -0.1066  0.2351  0.2327
23088W        W40612   7.624  12.405   4.636 -0.0986 -0.3244 -0.3846
23089W        W40613   3.012   6.368  14.169 -0.0713  0.0052 -0.2067
23090W        W40614   1.085  12.040  12.909 -0.0626  0.2000  0.0501
23091W        W40615   2.313  13.683  16.194 -0.1779  0.0944  0.0154
23092W        W40616   9.313   5.590  11.450  0.1331  0.0008  0.0872
23093W        W40617  14.878   4.768   1.840 -0.2123 -0.0586  0.1396
23094W        W40618   3.382   4.271  14.252  0.0166 -0.0380 -0.1627
23095W        W40619  16.012  15.120   4.217 -0.1961  0.2791 -0.1285
23096W        W40620  13.000   8.516   3.906 -0.0781 -0.0210  0.2696
23097W        W40621   5.074  15.624   2.300  0.1588  0.0767 -0.0817
23098W        W40622  11.151  11.632   3.591  0.3721  0.1517 -0.0261
23099W        W40623   3.396   0.507  16.237  0.1321  0.0143  0.1954
23100W        W40624   1.883   2.012  14.605 -0.0711  0.2258 -0.0551
23101W        W40625   9.188   4.833   1.698 -0.0199 -0.0301 -0.1774
23102W        W40626  10.491   5.061   2.214 -0.1728  0.0033 -0.1355
23103W        W40627  12.709  16.467   3.797  0.0866 -0.1689 -0.1776
23104W        W40628   4.328   8.245  15.287 -0.0118 -0.0181 -0.0800
23105W        W40629  13.021  16.395   1.966 -0.1888  0.0166 -0.1540
23106W        W40630   7.980   5.471   3.584 -0.1085 -0.0744  0.0410
23107W        W40631   1.936   5.959   5.179  0.1639 -0.1061 -0.2735
23108W        W40632  15.854   1.562   3.050 -0.3235  0.2713 -0.1369
23109W        W40633  11.099   9.608   3.931 -0.0884  0.1056 -0.1040
23110W        W40634   8.621   4.231  11.293 -0.1907 -0.2280 -0.0497
23111W        W40635   1.300   2.215   2.563  0.1353  0.1554 -0.0345
23112W        W40636  13.884  10.065   2.129  0.0886 -0.1141 -0.2871
23113W        W40637   9.108   3.350  13.516  0.2086  0.1222  0.1454
23114W        W40638   1.007  16.763   1.467 -0.0682 -0.1684 -0.0495
23115W        W40639   8.406  14.635  12.102  0.0715  0.0232  0.0220
23116W        W40640  12.308  12.657   0.780  0.1342  0.4253 -0.0446
23117W        W40641  12.936  16.449   4.374  0.0149 -0.1304 -0.2473
23118W        W40642   0.791   9.919   5.027  0.2179  0.0872 -0.3128
23119W        W40643  17.518   4.502  14.692  0.2555 -0.0856  0.1231
23120W        W40644  12.675   4.494  14.746  0.0346  0.0996 -0.1744
23121W        W40645   5.160   6.292  16.250 -0.2692  0.1912  0.0259
23122W        W40646  17.245  10.718  15.189 -0.1150  0.1176  0.1247
23123W        W40647  15.078   2.725  11.442 -0.1409  0.0429  0.2898
23124W        W40648  13.340  17.178  11.511  0.0525  0.0396 -0.1265
23125W        W40649   6.234  14.114   4.692 -0.3103 -0.0202  0.1709
23126W        W40650   2.183   9.484   5.143  0.0610  0.0864 -0.1251
23127W        W40651   7.547   0.351  14.536 -0.2066 -0.3012  0.1774
23128W        W40652   5.278   3.939   3.365 -0.3247  0.1220  0.1257
23129W        W40653  10.990  13.820   0.101  0.2272  0.0002  0.1802
23130W        W40654  12.721   2.095  15.044  0.1736  0.2099 -0.3026
23131W        W40655   9.815  12.357  12.187  0.1438  0.3872 -0.1540
23132W        W40656   3.622   3.673  14.068 -0.0826 -0.1183  0.0027
23133W        W40657  17.535  13.716  13.952  0.1418 -0.4178  0.0952
23134W        W40658  16.185   0.920  13.838  0.0105 -0.1265  0.0278
23135W        W40659   2.583   5.895   4.400 -0.1323  0.2404  0.2696
23136W        W40660   5.961   6.343  15.696  0.0304 -0.1120 -0.4580
23137W        W40661  17.720  10.701  15.874 -0.3410 -0.0212 -0.0021
23138W        W40662  14.680  17.725   0.047 -0.1394 -0.1248  0.0642
23139W        W40663   1.288   5.224   0.470 -0.4443 -0.0201  0.0127
23140W        W40664  15.795   4.301  10.296  0.2204  0.1257 -0.0723
23141W        W40665   8.972   9.430  11.356  0.2675 -0.1426  0.0306
23142W        W40666  17.649  14.862   1.512  0.1838 -0.0413 -0.0537
23143W        W40667   6.143  14.475  14.752 -0.0972 -0.2017 -0.2278
23144W        W40668  13.103  10.243   1.419 -0.1028 -0.1455  0.1449
23145W        W40669   9.620  12.670  15.765  0.1382 -0.0720  0.0968
23146W        W40670  12.185   2.429   4.944  0.1131 -0.0690 -0.0625
23147W        W40671   8.947   1.130   3.784  0.0041 -0.2735  0.0163
23148W        W40672   7.361  13.630  11.016 -0.0978 -0.0026  0.0615
23149W        W40673   4.939  14.458   0.120 -0.1292 -0.0338  0.0129
23150W        W40674   8.955   2.401  13.366  0.0975 -0.3147  0.0165
23151W        W40675  14.445   9.914  11.876  0.4235 -0.1881 -0.1646
23152W        W40676   7.444   8.071  13.361  0.1066  0.1438  0.0984
23153W        W40677   0.844  10.125  15.260 -0.0009  0.3570 -0.1709
23154W        W40678  10.777  13.746  14.663 -0.1464 -0.0459  0.1666
23155W        W40679   8.383   0.059   3.629 -0.0935 -0.0865  0.1190
23156W        W40680  17.554   7.605   3.707 -0.1617  0.1248 -0.1142
23157W        W40681  17.065  17.572  13.369  0.0441 -0.2302  0.0461
23158W        W40682   0.443  16.573  12.815  0.2771 -0.0819 -0.2556
23159W        W40683   6.298   0.616  13.614  0.1862 -0.1056 -0.1355
23160W        W40684   7.731   9.880  15.983 -0.1018 -0.0528 -0.1672
23161W        W40685   9.166   3.280   1.352  0.1887 -0.1980 -0.0165
23162W        W40686  16.269   4.422   2.166  0.3023 -0.0700  0.0887
23163W        W40687  16.216   1.696   1.030 -0.5344 -0.4253  0.0375
23164W        W40688  13.944   1.945   3.709 -0.4331 -0.1732 -0.2940
23165W        W40689  13.424   0.743  13.910  0.0617 -0.0020 -0.1415
23166W        W40690  12.900   9.635  11.060 -0.0708  0.1247  0.3804
23167W        W40691  13.416   1.136   3.721  0.1818  0.1064  0.1440
23168W        W40692   2.474  14.789   5.974  0.1290 -0.0803  0.0769
23169W        W40693   1.389   6.926   2.243 -0.0399 -0.0636  0.1405
23170W        W40694  10.034   3.172   4.898 -0.0812 -0.1656 -0.2551
23171W        W40695   6.063  10.890   0.852  0.1284 -0.0003  0.1728
23172W        W40696   5.962  16.429   1.316 -0.0981 -0.0590 -0.0509
23173W        W40697   6.856  17.113  10.839  0.0469 -0.2050 -0.0381
23174W        W40698   0.499   0.361   2.008 -0.0886  0.0067 -0.0154
23175W        W40699  10.089  16.184  11.637  0.0648  0.0105 -0.1512
23176W        W40700   8.504  16.670  14.885  0.3985 -0.2413  0.1838
23177W        W40701  10.200   4.122  15.282 -0.1749  0.2854 -0.0383
23178W        W40702  15.407   7.287  15.799 -0.2452  0.0176 -0.1031
23179W        W40703  16.353  13.898   4.690 -0.0884 -0.2219  0.1962
23180W        W40704   2.558  11.764  11.530  0.1727 -0.1235  0.0287
23181W        W40705   2.045   0.914   1.770 -0.0479  0.0456  0.0711
23182W        W40706   5.580  15.943   2.433  0.0097  0.1584 -0.0278
23183W        W40707   6.509  12.127  12.646 -0.0293 -0.2060  0.0075
23184W        W40708   6.979   5.261   3.324  0.1585 -0.0844 -0.0077
23185W        W40709  16.612  12.468   1.997 -0.2184 -0.0377 -0.0827
23186W        W40710  12.336  14.641   5.037  0.0324 -0.0777 -0.2826
23187W        W40711   4.470   9.008   5.548  0.0404  0.1781 -0.0105
23188W        W40712  12.694   8.142   0.124  0.2011 -0.1032 -0.2452
23189W        W40713   0.386   7.264   0.737 -0.0724 -0.0634  0.1409
23190W        W40714   3.863   6.494  12.956 -0.0888 -0.1397 -0.0231
23191W        W40715   0.986  15.303   2.428  0.0058 -0.1694  0.1449
23192W        W40716   6.856   6.658  12.074  0.2262  0.1617  0.0931
23193W        W40717   4.850  11.320   3.685  0.3189 -0.0431  0.1331
23194W        W40718   9.567   3.282   1.045 -0.2258 -0.0638 -0.0085
23195W        W40719  17.670  12.673  13.178  0.1514 -0.2420  0.2515
23196W        W40720   8.974  15.810  13.509  0.1152 -0.2091  0.3539
23197W        W40721   7.518  17.766   5.916  0.0217  0.0650  0.0519
23198W        W40722   6.558   8.086  13.889  0.0152  0.0370 -0.0205
23199W        W40723  14.593  16.654   1.233  0.0836  0.1112  0.1063
23200W        W40724   3.838  17.882  14.393 -0.1908 -0.0828 -0.0708
23201W        W40725   5.152  17.653  15.706 -0.3081  0.1908 -0.1214
23202W        W40726  11.436   0.801  11.914  0.0302 -0.0827 -0.2046
23203W        W40727  15.861  10.742   2.681 -0.2398  0.3955  0.2046
23204W        W40728  10.917   3.826  11.663  0.1720 -0.1721 -0.2777
23205W        W40729  11.800   3.167  13.433  0.1663 -0.0583  0.0091
23206W        W40730  14.144  11.360   0.464 -0.2193  0.3284 -0.0276
23207W        W40731  15.489  12.009   1.065 -0.1311  0.0295 -0.0548
23208W        W40732   4.134  15.558  16.104  0.1321 -0.0056 -0.1351
23209W        W40733   9.000   1.792  11.774  0.4683  0.0801  0.1868
23210W        W40734   8.795  15.121   5.701  0.3996  0.1010  0.0409
23211W        W40735  17.039  13.891  12.570  0.0505 -0.0394 -0.3873
23212W        W40736  11.077   1.872  13.660  0.0124  0.0647  0.0560
23213W        W40737   0.026   7.952  13.694 -0.1101 -0.1122 -0.3224
23214W        W40738   4.964  10.211   1.244  0.0235  0.0123 -0.0404
23215W        W40739   9.110  13.855   5.238 -0.0159  0.2109  0.1753
23216W        W40740   5.208  11.218   0.991  0.0698  0.0809  0.2268
23217W        W40741  13.026   1.500   2.358  0.1060 -0.3172 -0.1119
23218W        W40742   2.850   0.584   3.395  0.0624  0.2121 -0.1249
23219W        W40743  14.215   5.121   2.945  0.3052 -0.1432  0.1485
23220W        W40744  12.162  16.312  12.596 -0.4330  0.0414  0.0960
23221W        W40745  15.553   5.001  14.950 -0.0308  0.2720  0.0553
23222W        W40746   3.825  14.709  11.266  0.1264 -0.0894 -0.1239
23223W        W40747   8.847  16.983  12.958 -0.1141 -0.0533 -0.1973
23224W        W40748   9.893   3.387   3.152 -0.0204 -0.1215  0.1405
23225W        W40749  15.666   9.104   4.301  0.0449  0.2444  0.3916
23226W        W40750  16.565  17.962   2.394  0.0515 -0.3342  0.0590
23227W        W40751  12.788   6.519   1.844  0.0134  0.1420 -0.1296
23228W        W40752  14.396   8.407  15.137  0.3803  0.0890  0.0589
23229W        W40753  14.101  12.264  14.076  0.1262 -0.1352 -0.0787
23230W        W40754  16.795   7.066   1.920 -0.1063 -0.0155 -0.1286
23231W        W40755  17.079  10.134  15.612  0.0449  0.0024  0.1340
23232W        W40756  11.756   4.670  13.576 -0.0860  0.2596  0.0745
23233W        W40757   5.076  10.968  15.822  0.1612  0.1031  0.0532
23234W        W40758   5.471  15.689  16.106 -0.0412 -0.1837  0.0840
23235W        W40759   0.935  15.794  13.226 -0.2190  0.0894 -0.0955
23236W        W40760   9.261   4.525  15.111 -0.3047 -0.4047  0.1389
23237W        W40761   9.077  11.901   3.663 -0.0666 -0.2883  0.0077
23238W        W40762  12.137  11.679  16.065 -0.3593  0.0441 -0.3564
23239W        W40763   5.598  16.006  14.074  0.4476 -0.3139 -0.0670
23240W        W40764  16.756  11.629   0.611 -0.0682 -0.3815  0.3502
23241W        W40765   5.390   1.697   4.153  0.0764  0.1377 -0.0326
23242W        W40766   1.811  14.838  13.752  0.1178  0.1209  0.0027
23243W        W40767  17.783   5.794   3.370 -0.0135  0.1581  0.2537
23244W        W40768  14.963   6.473   0.317 -0.0234  0.2094  0.0824
23245W        W40769   4.596  16.265  14.096 -0.2421  0.0011 -0.1282
23246W        W40770   2.360  10.289  13.297 -0.3126  0.1507  0.4122
23247W        W40771  15.004   0.964  14.298 -0.0903  0.0355 -0.0674
23248W        W40772   2.816   2.548  13.158  0.3183  0.1244 -0.0534
23249W        W40773   2.126   6.057  14.322 -0.2009  0.1784 -0.3807
23250W        W40774   5.399   8.824  16.173 -0.0582  0.1455 -0.2135
23251W        W40775   6.160  14.465   0.282  0.2580  0.0771  0.0130
23252W        W40776  12.483   4.588   1.603 -0.1224 -0.3862  0.2391
23253W        W40777  10.769   3.265  15.035  0.3136 -0.1092  0.1579
23254W        W40778   3.872   5.939   3.209  0.3067 -0.0798  0.1944
23255W        W40779   5.951   3.379   0.573 -0.2112  0.0423  0.0523
23256W        W40780  11.479   7.094   5.011 -0.3747  0.0870  0.1650
23257W        W40781  10.990  10.488   4.588  0.0633  0.1996  0.0229
23258W        W40782   1.192   7.150   4.145 -0.2631  0.0297 -0.0294
23259W        W40783  15.546   9.979  14.654  0.3407  0.2279 -0.2720
23260W        W40784  17.469  13.864   5.644 -0.0758  0.0760  0.0796
23261W        W40785  13.665  14.703   4.778  0.1806 -0.0457 -0.2402
23262W        W40786  15.609   7.103  12.601  0.2987 -0.1591 -0.0765
23263W        W40787   4.523   7.642  15.837 -0.0975 -0.2887  0.0216
23264W        W40788   7.282  14.238   1.278  0.1031  0.1493 -0.2231
23265W        W40789   1.349  15.321   3.975  0.1544 -0.2223 -0.2548
23266W        W40790  13.471  11.909   5.535  0.0271 -0.1684  0.1349
23267W        W40791   7.038   7.629   2.514  0.1271  0.0884 -0.2228
23268W        W40792  13.876   0.086   4.350 -0.3352 -0.4331  0.2222
23269W        W40793  15.219   6.843   9.747 -0.0582  0.0171  0.1800
23270W        W40794   4.480   5.318   3.177  0.2828  0.1831 -0.3114
23271W        W40795  12.350  12.874   3.785  0.3198  0.2021 -0.5319
23272W        W40796   0.438  16.670  15.603 -0.0985  0.2641  0.0536
23273W        W40797  11.039  15.492   0.203 -0.0723 -0.0559 -0.1657
23274W        W40798   4.962  10.079   3.208  0.1525 -0.0688 -0.0062
23275W        W40799   6.096   8.603   1.530  0.1885 -0.1031  0.1102
23276W        W40800  14.419   5.658  12.545  0.1607 -0.1815 -0.2258
23277W        W40801  17.081  11.153   5.160  0.1177 -0.0474  0.0693
23278W        W40802   9.073  16.949  11.040  0.1504 -0.1948  0.0794
23279W        W40803   7.568   3.459   0.150 -0.3504 -0.2495 -0.2722
23280W        W40804  11.860  17.506   2.581 -0.2983  0.0304 -0.0416
23281W        W40805  14.514   6.233   0.172  0.2408  0.0398  0.1636
23282W        W40806   1.877  12.959  13.838  0.0415  0.0409 -0.0032
23283W        W40807  17.597   5.032   1.385 -0.2287  0.0125  0.1696
23284W        W40808   3.675  11.630  14.038  0.0142 -0.1297  0.1964
23285W        W40809   8.658   5.370   2.602 -0.0509  0.2408 -0.0189
23286W        W40810   8.407   0.374  14.880 -0.0456 -0.0314  0.3423
23287W        W40811   9.987  11.624   0.624  0.1042  0.1017  0.1419
23288W        W40812  17.627   3.392  15.440  0.1458 -0.0089  0.0905
23289W        W40813   5.238   1.074   4.699  0.4765 -0.1627 -0.0195
23290W        W40814   8.311   7.107   3.019 -0.1455 -0.1652 -0.0305
23291W        W40815   9.725  16.941  11.640 -0.0841  0.0715  0.1042
23292W        W40816   1.127   1.271   3.005 -0.2417 -0.0438 -0.1656
23293W        W40817  16.647   3.586   1.871 -0.1013 -0.1216  0.0655
23294W        W40818  15.356   2.000  13.737  0.0868 -0.1790 -0.2155
23295W        W40819   2.765  16.382   4.579  0.2054  0.2545  0.0427
23296W        W40820  10.547   5.806   0.290  0.2431  0.3788 -0.3783
23297W        W40821   0.998   8.751   0.274  0.2121  0.2084 -0.3105
23298W        W40822  11.609   4.882  11.850 -0.1580 -0.0106  0.0788
23299W        W40823   7.482   4.912   1.793  0.0975 -0.0232  0.1652
23300W        W40824  13.739  13.408   2.324  0.1218 -0.0023 -0.0244
23301W        W40825   8.870   4.656  13.743  0.2448 -0.0170 -0.2684
23302W        W40826   4.159   7.636   0.540 -0.0245  0.1605 -0.1031
23303W        W40827   5.972  14.877   1.040 -0.0427 -0.3081  0.0460
23304W        W40828   5.931   0.741   1.395  0.0989  0.0369  0.0837
23305W        W40829   9.095  14.539   0.370  0.1999  0.0181  0.0007
23306W        W40830  17.379   9.912  11.492 -0.0278 -0.1986  0.0428
23307W        W40831   2.790  10.943  12.881 -0.0437 -0.3501  0.2235
23308W        W40832   2.338   5.341  11.995 -0.0676  0.0935  0.0026
23309W        W40833   1.510   3.425   0.716 -0.1468 -0.0224  0.1853
23310W        W40834  11.286   5.282   4.439  0.0698 -0.0538  0.2639
23311W        W40835  16.340   9.145   2.089 -0.0248  0.0980  0.4242
23312W        W40836   3.252  14.508   4.347  0.0777  0.0442  0.1990
23313W        W40837  13.028   7.303   2.646 -0.1981 -0.3356  0.2999
23314W        W40838   7.286  10.636  14.913  0.3153 -0.1643  0.1565
23315W        W40839  10.963  17.824   5.445 -0.0470  0.0940 -0.0386
23316W        W40840   0.048   0.637   5.611 -0.0452 -0.0114 -0.3506
23317W        W40841  16.296  10.335  10.393  0.0888  0.0697  0.0912
23318W        W40842   5.803  12.292   2.212  0.0797  0.0091 -0.0740
23319W        W40843  15.860  16.950  10.529 -0.0421 -0.2275 -0.1372
23320W        W40844  15.307   9.384   2.026  0.2325 -0.0505 -0.2504
23321W        W40845   6.467   4.927   4.755  0.2375  0.0156  0.2100
23322W        W40846  14.926   7.412  15.554 -0.0331 -0.4854 -0.0614
23323W        W40847  12.718   1.897  11.841  0.0035  0.1258  0.1749
23324W        W40848   8.682   9.139  15.990  0.1572  0.0605 -0.4116
23325W        W40849   7.424  11.418   4.567  0.1855 -0.3654  0.0076
23326W        W40850  14.287  16.382  14.774 -0.0595  0.4168  0.1437
23327W        W40851  13.313   2.988   2.234  0.2507  0.0285 -0.0144
23328W        W40852   4.243  15.258   3.762 -0.0831  0.0342  0.1695
23329W        W40853  12.328  13.822   0.160 -0.1791 -0.1720 -0.1335
23330W        W40854  13.931  13.986  14.858 -0.2125 -0.0130  0.1253
23331W        W40855   0.348  17.614  14.333 -0.1664  0.1712 -0.0648
23332W        W40856  15.383   0.395  11.367 -0.0718 -0.0787  0.0432
23333W        W40857  10.278   8.624  11.981  0.0289  0.1366  0.1074
23334W        W40858   9.612  11.530  12.613 -0.1610  0.1287  0.1420
23335W        W40859  14.773   6.205  11.866  0.0814  0.1590  0.0956
23336W        W40860  13.375   8.019  11.427  0.2213  0.1379  0.0541
23337W        W40861   4.730  16.484  12.330  0.1939  0.0707 -0.3107
23338W        W40862   5.110  13.871   3.278  0.0299  0.2738  0.1647
23339W        W40863   0.508   0.352   4.922  0.1948  0.0103 -0.3043
23340W        W40864   7.091   6.880  15.970 -0.0995  0.0348 -0.0771
23341W        W40865  10.651   3.163   3.650 -0.0503  0.1884  0.0350
23342W        W40866   7.765   4.834   2.477  0.2183  0.3791  0.3494
23343W        W40867   5.725  13.130  11.424 -0.0952 -0.0860 -0.1239
23344W        W40868   1.533   7.606  13.997 -0.0340  0.0725  0.1511
23345W        W40869   2.491  10.859  14.152 -0.2427  0.0689 -0.0408
23346W        W40870  10.428   1.429  11.047 -0.2630 -0.0049 -0.0684
23347W        W40871  11.199  14.054  12.100 -0.0218  0.1858  0.1003
23348W        W40872   8.135  10.506   1.571 -0.1223 -0.0491  0.1521
23349W        W40873   7.075   8.937   3.972 -0.1964  0.2604 -0.2366
23350W        W40874  12.309   9.973  14.334  0.2030  0.1652  0.0251
23351W        W40875  15.839  10.500   4.530 -0.1505  0.0032 -0.0998
23352W        W40876  16.187  16.026   4.964 -0.0543 -0.0954 -0.0590
23353W        W40877   3.386   9.131   2.485 -0.0515  0.1453 -0.2179
23354W        W40878  11.970  14.771   2.626 -0.3946 -0.1120 -0.0202
23355W        W40879  17.903   8.725   2.204  0.2971 -0.2856 -0.2620
23356W        W40880   4.102   2.230  12.755  0.0133  0.0062  0.2290
23357W        W40881  15.943  11.125  12.879  0.0694  0.0391 -0.0822
23358W        W40882   2.846  12.295   1.835  0.3186  0.2921  0.2642
23359W        W40883   6.193  11.960  14.567  0.2259 -0.1006 -0.2202
23360W        W40884   3.078   2.027   3.190 -0.2551 -0.0314 -0.3106
23361W        W40885  10.904   0.207  14.491 -0.3826  0.2502  0.0045
23362W        W40886  16.216  16.038   0.138 -0.1683  0.1486 -0.2931
23363W        W40887  16.266   0.701   0.115 -0.3369  0.0762 -0.2685
23364W        W40888   7.542   0.831   0.126  0.0651  0.1578  0.0006
23365W        W40889  15.775  17.750  13.730  0.0185 -0.0551  0.1579
23366W        W40890   9.594   7.895  11.585  0.1130  0.0946  0.0800
23367W        W40891   8.991  17.266  13.402  0.0981  0.0899 -0.0778
23368W        W40892   7.631  12.736   2.129  0.1116  0.0448 -0.1315
23369W        W40893   1.748  17.884   3.706  0.0009  0.2263  0.0706
23370W        W40894   4.544   0.240  12.510 -0.0323 -0.1363 -0.2780
23371W        W40895  10.272  11.045  14.071 -0.2271 -0.1073 -0.0882
23372W        W40896  14.634   7.617  11.289 -0.0598 -0.1538  0.3866
23373W        W40897   1.620  14.873  15.991  0.0047 -0.0424  0.1452
23374W        W40898  13.835  17.616  13.218 -0.0039  0.0924 -0.4693
23375W        W40899  11.586  11.467  11.791  0.0209 -0.0140 -0.2157
23376W        W40900  11.022   3.526   3.831  0.0222  0.1477  0.0549
23377W        W40901   0.748   2.002   2.148 -0.2089 -0.0431 -0.2300
23378W        W40902   9.591   2.147   2.776 -0.0360 -0.0340  0.0602
23379W        W40903  17.295  11.632  15.549 -0.1609 -0.0843 -0.0878
23380W        W40904   6.602  14.660  15.951  0.1514  0.0280 -0.1044
23381W        W40905  17.263   7.989  15.958  0.0377  0.0692 -0.3634
23382W        W40906  11.328  13.989   3.797 -0.0099 -0.0906 -0.2585
23383W        W40907  14.061  17.762   1.051 -0.2042  0.1407 -0.0335
23384W        W40908   9.788  17.637  14.025  0.1667  0.2252 -0.3791
23385W        W40909  14.078  17.509   4.384 -0.1315 -0.1350  0.3876
23386W        W40910   2.954   6.901   1.224 -0.2018  0.2520 -0.0705
23387W        W40911   3.523   9.243  13.970  0.0074  0.3537 -0.0059
23388W        W40912  12.046   3.792  12.829 -0.2908  0.2743 -0.1845
23389W        W40913   8.417  14.019  12.627 -0.0687  0.0144  0.1421
23390W        W40914   5.347  10.583   0.413 -0.0011 -0.1619  0.0716
23391W        W40915  14.575   9.051  14.890 -0.0225  0.0639 -0.2495
23392W        W40916   8.531   3.862  10.017  0.0652 -0.0989 -0.0278
23393W        W40917   7.830   2.263   5.796  0.0075  0.1804 -0.0200
23394W        W40918  15.760   3.156  13.662 -0.1941 -0.2601 -0.1854
23395W        W40919   3.952   0.930   0.006  0.0319 -0.2434 -0.5668
23396W        W40920   8.014  16.513   5.210 -0.0527 -0.1103 -0.1740
23397W        W40921  12.098   3.109   2.214  0.0794 -0.0751 -0.2282
23398W        W40922   2.330  17.808  14.665 -0.1655  0.2173  0.0109
23399W        W40923  10.231   7.627  16.113  0.1833  0.0499 -0.0482
23400W        W40924   6.994  13.191  14.914 -0.2854 -0.2253 -0.3596
23401W        W40925   6.644  16.050   2.126 -0.0260 -0.1032  0.0502
23402W        W40926   0.514   6.250   3.581 -0.1680  0.1647  0.0495
23403W        W40927  10.252  12.692   4.911  0.2201 -0.1828  0.2286
23404W        W40928   3.754   7.789   2.982 -0.1183  0.2703  0.1555
23405W        W40929   1.109   0.731   3.912 -0.1692  0.1181  0.0395
23406W        W40930  12.207  11.708  12.375 -0.2478 -0.0481 -0.0125
23407W        W40931   3.192   0.792  12.596  0.2912 -0.0270  0.1711
23408W        W40932   7.835  12.655   0.715  0.0872 -0.0200  0.0680
23409W        W40933   0.851  13.037  12.189  0.2495 -0.2471  0.2183
23410W        W40934  15.388   7.875   2.242 -0.3829 -0.3659  0.1243
23411W        W40935   5.424   0.047   4.772  0.0484 -0.2906 -0.0426
23412W        W40936   9.610   9.512   2.205 -0.0888  0.0851 -0.0487
23413W        W40937  17.638   1.020  16.113 -0.2181  0.0612 -0.0905
23414W        W40938  12.991   1.262  10.675 -0.3470  0.0175  0.0184
23415W        W40939  14.341   9.854   3.584 -0.1932 -0.0186 -0.1185
23416W        W40940   8.529   9.503  15.523  0.1632 -0.0392 -0.1477
23417W        W40941   7.177  17.874   1.742 -0.1304  0.0833 -0.0307
23418W        W40942   7.963   5.768   0.822 -0.1650  0.7282  0.2613
23419W        W40943  12.549   4.156  13.517  0.2093 -0.1544 -0.0812
23420W        W40944  12.603   6.128  10.093 -0.0812  0.0242  0.0906
23421W        W40945  17.793   3.201  14.301 -0.1166  0.2399 -0.2119
23422W        W40946   1.554   4.368   3.161  0.0030 -0.0354  0.4143
23423W        W40947  15.952   2.597  14.860  0.1103  0.0899 -0.1880
23424W        W40948   2.528   6.935  14.334  0.1031  0.0765 -0.2547
23425W        W40949   7.083   0.781  10.756 -0.1589 -0.2850 -0.1290
23426W        W40950  16.513   2.771  14.031 -0.0517  0.1215  0.1147
23427W        W40951   0.025  13.580   2.295 -0.0934  0.0653 -0.1134
23428W        W40952  16.424   3.236  14.214 -0.0906  0.1905  0.3996
23429W        W40953  14.703  11.337  14.076  0.1275  0.1653  0.2193
23430W        W40954   9.814   5.260  14.885  0.2557 -0.1492  0.1769
23431W        W40955   0.784   2.433   0.347  0.1128  0.2512  0.1127
23432W        W40956   3.257   4.184  11.606  0.2204 -0.1427 -0.2835
23433W        W40957   8.180   8.398   0.899 -0.2668  0.1243 -0.0431
23434W        W40958  12.688  10.233   0.076 -0.1188  0.5747  0.2260
23435W        W40959   5.931  10.001   2.826  0.1094 -0.0890 -0.3219
23436W        W40960  15.271   9.228   4.653  0.4050  0.1177  0.0437
23437W        W40961   5.202  14.528   4.059 -0.1955  0.2078  0.1003
23438W        W40962   3.712  17.713   1.601 -0.0894  0.2175  0.0049
23439W        W40963  17.329   0.712  15.446  0.2482  0.2758  0.0443
23440W        W40964  15.216  11.706   4.588  0.0781 -0.1436 -0.3138
23441W        W40965  15.160   5.133   2.783 -0.3962  0.0759  0.0321
23442W        W40966  17.527   4.195   2.040  0.1318 -0.6725 -0.0443
23443W        W40967   2.219   6.786  15.947  0.0410  0.2735 -0.1555
23444W        W40968   7.045  17.076   1.194 -0.0358  0.2347  0.0166
23445W        W40969   3.893   4.246  15.992 -0.0436  0.0289  0.0294
23446W        W40970   6.143  16.180   2.286 -0.0200  0.1197  0.1342
23447W        W40971   0.504  10.104  12.900 -0.2083  0.0729 -0.0006
23448W        W40972  13.815  15.525  13.291 -0.0413  0.0391  0.1943
23449W        W40973  16.855   5.583  16.017  0.0397  0.1219 -0.0009
23450W        W40974  14.326   4.870   3.439  0.0398  0.0345  0.1109
23451W        W40975   8.700  14.604  15.727 -0.0115  0.1117 -0.4003
23452W        W40976  10.652  16.830  15.173  0.0046  0.0061 -0.0884
23453W        W40977  16.623   7.368  12.657  0.0737 -0.4308 -0.1244
23454W        W40978  11.653   2.058  15.490  0.0350 -0.4689 -0.1733
23455W        W40979   3.553   8.107   2.631  0.5337 -0.1091 -0.0951
23456W        W40980   5.662  11.750  14.064 -0.0234  0.0727  0.0957
23457W        W40981   7.359   9.585  11.860 -0.0084 -0.0328 -0.0097
23458W        W40982   0.369  15.139  15.345  0.2267  0.2806  0.1474
23459W        W40983  10.610   9.932   2.656  0.4452  0.1510  0.0793
23460W        W40984   0.079   9.220   2.029 -0.1905  0.0449 -0.1016
23461W        W40985   0.473   9.039  12.723  0.0069 -0.1165 -0.0654
23462W        W40986   8.491   4.203   0.527  0.0090  0.0375 -0.2744
23463W        W40987  15.290  14.887   0.633 -0.1019  0.1285  0.1367
23464W        W40988   2.252   5.144   3.586  0.0692 -0.0310  0.1712
23465W        W40989   3.531  16.614  15.696 -0.0381  0.3931 -0.2671
23466W        W40990  16.646   1.628  15.618 -0.3357 -0.1428 -0.3850
23467W        W40991  14.988  14.688  11.981 -0.4632 -0.2294 -0.1711
23468W        W40992   3.371   8.407   1.781  0.1117  0.1872  0.0731
23469W        W40993   9.043  11.621  11.837 -0.0978  0.2734 -0.1589
23470W        W40994  17.293  11.315  11.210  0.0125  0.0947 -0.2231
23471W        W40995   2.645   3.629  15.631  0.0465 -0.2487  0.1656
23472W        W40996  17.787  12.994  11.342  0.1324 -0.1309 -0.0425
23473W        W40997  14.849   7.762   0.554  0.1363  0.0170  0.0040
23474W        W40998  13.927  10.544   1.674  0.0971  0.2846 -0.2873
23475W        W40999   7.449  11.340  11.751 -0.0844  0.1368  0.1383
23476W        W41000  12.534   0.343   0.338 -0.2644 -0.0716 -0.0862
23477W        W41001   2.689  17.201   0.860  0.0729  0.1998  0.1674
23478W        W41002   8.422  17.454  10.147 -0.0562  0.1268  0.2785
23479W        W41003   4.225   5.043  12.740 -0.2371 -0.0951 -0.2512
23480W        W41004  11.818  16.232   2.706  0.3064  0.1281  0.2975
23481W        W41005   2.993   0.611   0.268 -0.1241 -0.1682  0.0827
23482W        W41006  15.011  13.734   3.237  0.2228  0.0538 -0.1201
23483W        W41007   3.037   5.271   0.980  0.2483  0.1421 -0.0571
23484W        W41008   6.980  10.484  14.543 -0.1206  0.0429 -0.0713
23485W        W41009  10.666   5.685   5.199 -0.1068 -0.1303  0.1248
23486W        W41010   3.539  14.888   0.654 -0.1706  0.1662 -0.2501
23487W        W41011  15.895  12.157  12.678 -0.0281  0.5064  0.2162
23488W        W41012   3.741  12.752   2.592 -0.0097  0.0529 -0.1314
23489W        W41013   0.598   7.127   4.136  0.1309  0.3409  0.1170
23490W        W41014  13.325   6.567   0.655  0.1731  0.1151  0.0012
23491W        W41015   5.763  16.652  15.270  0.1000 -0.1938 -0.0460
23492W        W41016  13.389  13.380  15.935  0.0406  0.1673  0.0791
23493W        W41017  13.072   9.157  15.088 -0.0294 -0.0831  0.2412
23494W        W41018  12.369   8.985   3.445 -0.3567 -0.1125 -0.0224
23495W        W41019   9.810  12.967   1.500 -0.2915 -0.0189  0.0924
23496W        W41020   7.142   4.519   1.631 -0.0622 -0.0629  0.0683
23497W        W41021   3.676  13.217  15.426 -0.0813  0.0473  0.2174
23498W        W41022  12.384   0.639   2.457 -0.2162 -0.0634 -0.1441
23499W        W41023   4.238   6.619   2.855 -0.1478  0.0498  0.1257
23500W        W41024  17.670   9.576   4.072  0.0053  0.0514  0.0868
23501W        W41025   8.967   4.150   1.623 -0.1265  0.2742  0.1549
23502W        W41026  16.294   2.442   1.778 -0.1211 -0.0126 -0.1657
23503W        W41027   8.262  15.716   0.877  0.1399  0.0172 -0.0141
23504W        W41028   1.557  12.098   0.611 -0.1022 -0.1651  0.2257
23505W        W41029   4.535  13.871  16.158  0.0372  0.0893  0.0182
23506W        W41030  17.116   3.451  15.485 -0.0913  0.0844  0.2283
23507W        W41031   6.648   9.941   4.967  0.0907  0.0135  0.1197
23508W        W41032   9.612  10.193   4.160 -0.1087 -0.3169  0.0578
23509W        W41033   9.404   9.133  13.552  0.0879  0.2012 -0.0322
23510W        W41034   4.014   2.949  13.733  0.0852  0.1853  0.0549
23511W        W41035   5.539  15.160   1.123  0.0316 -0.0512  0.0082
23512W        W41036  14.756   5.358   2.175  0.0304 -0.2317 -0.2208
23513W        W41037  10.635   4.976  14.217 -0.1653 -0.0264  0.0991
23514W        W41038   6.274   6.454  11.352 -0.0948  0.0086  0.0844
23515W        W41039  16.623   9.692  12.061  0.1552  0.0663 -0.1390
23516W        W41040   0.662   4.062  12.423  0.0442  0.0084 -0.4084
23517W        W41041   0.177   0.257  15.914  0.1594  0.0614  0.2036
23518W        W41042  10.678   8.530   0.998 -0.0167 -0.2328 -0.0439
23519W        W41043   1.496  10.734   0.684 -0.1402 -0.0003 -0.1092
23520W        W41044  16.178  15.253  12.749 -0.2243 -0.0931 -0.3877
23521W        W41045   1.512   2.667  12.408  0.1625  0.1113  0.0948
23522W        W41046   8.104  10.015   2.696 -0.0457 -0.0839 -0.1221
23523W        W41047  16.066  10.718   2.205  0.1385  0.0401  0.3248
23524W        W41048  17.841  14.314  14.208  0.0002 -0.1507 -0.1165
23525W        W41049   8.743  15.730  14.834  0.2517 -0.0526  0.0959
23526W        W41050   1.186   5.441  12.671 -0.0076  0.2041  0.0012
23527W        W41051  14.560   4.734   1.292  0.1270  0.0439 -0.1730
23528W        W41052  13.524  10.924  14.527  0.1011  0.1249 -0.1419
23529W        W41053   5.151  11.661  13.005  0.0699  0.1923  0.1313
23530W        W41054  12.873  13.501  12.347  0.0789  0.1126 -0.2071
23531W        W41055   9.484   5.443  13.333  0.2563 -0.1859  0.2747
23532W        W41056   1.765   7.886  12.495 -0.1228 -0.1133 -0.2297
23533W        W41057  16.363   9.117   0.537  0.3088 -0.2065 -0.0389
23534W        W41058  14.325   0.202  11.124  0.0098  0.3742  0.2471
23535W        W41059   6.474  15.239   0.365 -0.1966  0.1025  0.0212
23536W        W41060   5.725   4.661  12.966  0.0703 -0.3785  0.2737
23537W        W41061  16.373  11.622  14.134 -0.2067 -0.0386 -0.1199
23538W        W41062   7.304   8.093  15.326 -0.1724 -0.0293 -0.0163
23539W        W41063   6.456  10.989   3.946 -0.0978  0.2691  0.0382
23540W        W41064  16.405  13.695   2.873 -0.1419 -0.0374  0.2067
23541W        W41065   6.064  16.612  14.604  0.2944  0.0348  0.0316
23542W        W41066   2.488   1.434   0.038 -0.3084  0.0901 -0.1492
23543W        W41067  13.053   8.283  14.996 -0.0633 -0.1569  0.1508
23544W        W41068  14.888   0.570   3.755 -0.0216 -0.0734 -0.1351
23545W        W41069   6.310  11.018  16.254  0.1161  0.1775  0.2068
23546W        W41070   6.008   2.197  12.676 -0.5758  0.0420  0.0418
23547W        W41071   5.085  13.345   2.492 -0.0656  0.1982  0.0259
23548W        W41072  15.482   4.927   2.081 -0.0266 -0.1855  0.0315
23549W        W41073   3.319  12.811  12.080  0.0263 -0.0796  0.0361
23550W        W41074  15.603  12.447  13.986 -0.2641  0.0676 -0.3245
23551W        W41075  16.716   8.050  13.584  0.1925 -0.2000  0.1894
23552W        W41076   5.282   5.782  16.191  0.5350 -0.3773  0.2048
23553W        W41077   9.207  12.715  15.949  0.1007  0.0852 -0.0943
23554W        W41078  15.963  11.017  16.037  0.4023 -0.1844  0.2952
23555W        W41079   4.732  11.342  14.127  0.0751 -0.0324 -0.1032
23556W        W41080   7.504   2.250   1.853  0.0094  0.1072 -0.1689
23557W        W41081  10.013   6.319   4.577 -0.0121  0.0493  0.1153
23558W        W41082  17.629  12.641   0.607  0.0983  0.0941  0.0486
23559W        W41083  13.431   1.496   3.321 -0.0010 -0.1684 -0.0751
23560W        W41084  16.513  13.201   2.615  0.0154 -0.0294  0.0166
23561W        W41085   7.600  15.517   3.053  0.1081 -0.0552  0.2803
23562W        W41086   6.032   2.871  13.525  0.0694 -0.1989 -0.1372
23563W        W41087   9.805   6.097   0.788 -0.2544  0.1856 -0.0652
23564W        W41088  15.819   3.172   1.706 -0.0096 -0.2149  0.0791
23565W        W41089  15.360   1.386   2.826 -0.1636 -0.0421  0.1573
23566W        W41090   8.829   2.969  10.663 -0.0175  0.2082 -0.0526
23567W        W41091   4.376   3.983   0.662  0.0325  0.2178  0.1444
23568W        W41092  10.138  12.052   1.446  0.0593  0.0347  0.1520
23569W        W41093  10.946  13.769  13.641  0.3208  0.0612 -0.3333
23570W        W41094   5.824  16.338   5.111 -0.1704  0.1495 -0.0315
23571W        W41095  16.122   9.517  13.523  0.0219 -0.0717 -0.0735
23572W        W41096  14.180  14.950  13.903 -0.2420 -0.1868 -0.0708
23573W        W41097   7.866  12.795  14.777 -0.1838  0.0255 -0.0472
23574W        W41098  12.824  13.896  12.018 -0.0525  0.1972 -0.0876
23575W        W41099  10.425   7.328   3.078  0.2975  0.1245 -0.0609
23576W        W41100   3.774   6.270   0.722 -0.1190 -0.0715  0.2609
23577W        W41101   7.875   5.474  13.332 -0.1180 -0.0672  0.0104
23578W        W41102   5.430  10.140   3.371 -0.1042  0.0337 -0.0917
23579W        W41103   9.063  17.645  11.705  0.2110  0.1421  0.4583
23580W        W41104   9.425  11.950  15.210 -0.1604  0.1232  0.0137
23581W        W41105   8.359   7.386  14.355 -0.0102  0.1643 -0.2154
23582W        W41106   5.935  15.369  13.774 -0.0371  0.0666  0.1253
23583W        W41107  14.762  13.423  12.099  0.0003  0.0615 -0.0391
23584W        W41108  12.499   5.174  15.487 -0.0822 -0.1252 -0.1256
23585W        W41109   4.085   5.169  15.978 -0.1074  0.0992 -0.1164
23586W        W41110   4.101  15.804   3.861 -0.1908 -0.0032  0.1261
23587W        W41111  10.161   0.392   4.743 -0.1851  0.1884 -0.0762
23588W        W41112   0.463   1.902  13.006  0.0340 -0.0051 -0.0473
23589W        W41113   9.370   2.693  11.651  0.2306 -0.1828 -0.1157
23590W        W41114  16.233   4.861   0.123 -0.0231  0.0441 -0.2147
23591W        W41115  17.563   5.430  13.171 -0.1880  0.0430 -0.2767
23592W        W41116  14.953   9.843  15.161 -0.0943  0.0704  0.1530
23593W        W41117  15.588   4.278   2.795  0.1882  0.1673  0.0693
23594W        W41118  10.438   0.650   1.529 -0.0046  0.0657 -0.1461
23595W        W41119  17.446  10.770   0.422  0.1880 -0.0578  0.1764
23596W        W41120   0.321   4.488  11.472  0.3148  0.0965  0.2641
23597W        W41121   2.748  15.956  11.945  0.0335 -0.0374  0.0196
23598W        W41122  11.657  14.889   0.628 -0.1689 -0.1401 -0.0842
23599W        W41123   2.377   8.703   1.962  0.2157 -0.2190  0.0559
23600W        W41124   4.883   0.551   2.810 -0.1585  0.3609  0.2682
23601W        W41125  14.190   7.193  15.526  0.0388  0.0197  0.0994
23602W        W41126   0.383   2.801   3.400  0.0432  0.2838 -0.2035
23603W        W41127  13.299  10.607  14.115 -0.3435  0.0027 -0.0647
23604W        W41128   8.156  12.761   3.874  0.0675  0.1225 -0.2418
23605W        W41129   2.875  16.688  12.271  0.1360 -0.0726  0.2562
23606W        W41130  14.090  15.245  14.769 -0.0703 -0.3101 -0.0089
23607W        W41131   0.517  13.800   3.794 -0.0751  0.3425  0.0333
23608W        W41132   4.994  17.686  13.151 -0.2001 -0.2500 -0.0849
23609W        W41133  17.082   4.896   1.562  0.1305 -0.1788  0.1055
23610W        W41134   2.436  15.557   1.134 -0.0376 -0.0127 -0.2304
23611W        W41135   6.065  17.257   3.062 -0.3146 -0.1723  0.0380
23612W        W41136   0.840   8.152   4.199 -0.1246  0.1911 -0.0006
23613W        W41137   4.201  15.983  11.664 -0.1405  0.1335  0.5265
23614W        W41138  11.503   8.555   0.178 -0.2596  0.0377  0.2668
23615W        W41139   0.755   7.084   3.336  0.0332  0.0644  0.1677
23616W        W41140  10.562   8.031  11.210  0.1181  0.0372  0.0341
23617W        W41141   8.980  17.272   0.079 -0.0105 -0.0501 -0.1359
23618W        W41142  14.985   4.258  13.362  0.2829 -0.1010  0.4216
23619W        W41143   5.990   6.056   5.061 -0.3061 -0.4166  0.0755
23620W        W41144  11.781   7.590   2.898  0.1380 -0.0685 -0.0657
23621W        W41145   8.460  17.264  15.982  0.0226  0.2807 -0.0224
23622W        W41146   8.703   0.511  12.360  0.2127  0.1389  0.3004
23623W        W41147   3.023  10.612  10.608  0.0172 -0.0264  0.1720
23624W        W41148  12.648  13.857  12.859 -0.0443  0.2194  0.0675
23625W        W41149   4.725   8.671   1.742 -0.0449  0.0698  0.0141
23626W        W41150  11.050  12.634   4.465  0.0980  0.2600 -0.0503
23627W        W41151   3.358  13.518   4.554  0.0295 -0.1036  0.1878
23628W        W41152  16.928   6.199  10.544  0.0366  0.1878  0.3563
23629W        W41153  10.207  15.507   1.295  0.0880  0.1795 -0.0180
23630W        W41154   9.991   8.167   3.223 -0.0457  0.1019  0.0860
23631W        W41155   0.151  13.801  11.589  0.0334 -0.0371 -0.1576
23632W        W41156  12.256  12.345   5.009  0.0400  0.0900  0.0399
23633W        W41157   5.357   6.748  12.703  0.1917  0.0512 -0.2536
23634W        W41158   2.141   1.336   0.398  0.1382  0.0780  0.2324
23635W        W41159   7.015   0.915   0.101  0.1175  0.0105  0.1178
23636W        W41160   1.446  16.721   0.331 -0.0835  0.0365  0.2707
23637W        W41161   6.499   1.730  15.381  0.0989  0.0740  0.0537
23638W        W41162  11.806  17.815   1.375 -0.0965  0.0909 -0.0804
23639W        W41163   9.951   7.919  15.754 -0.0421 -0.0097 -0.2634
23640W        W41164   9.012  13.809   4.663  0.2849  0.1137  0.5096
23641W        W41165  11.506  16.518  15.879 -0.0477 -0.0873 -0.0615
23642W        W41166   1.233   8.251   2.680 -0.3342 -0.3802 -0.0003
23643W        W41167  15.112  14.681   3.001  0.0625  0.0293 -0.0074
23644W        W41168   7.680  11.428   3.168  0.0363 -0.0823 -0.0537
23645W        W41169  12.965  14.760   0.313  0.0650  0.1636  0.1642
23646W        W41170  11.916   1.424  11.096 -0.0058 -0.1049  0.1009
23647W        W41171   5.291   7.299  14.029 -0.0257 -0.0600 -0.0288
23648W        W41172   7.351   8.509   3.907  0.0916  0.1477  0.1541
23649W        W41173  16.035   2.291  12.585  0.1070  0.0038 -0.2037
23650W        W41174  14.929  11.931   0.248  0.0875 -0.0865 -0.1049
23651W        W41175   4.604   2.024   2.278 -0.2113  0.1742 -0.0231
23652W        W41176   3.984  16.623  14.764 -0.0885  0.0883  0.0460
23653W        W41177  12.862  15.356   1.109 -0.1009 -0.1520 -0.3197
23654W        W41178  12.904  12.675   0.581  0.1024 -0.2030  0.0560
23655W        W41179   2.025   8.207  12.214 -0.3594  0.0026 -0.2105
23656W        W41180  17.071  10.246   2.405  0.2051  0.1916  0.1515
23657W        W41181  13.378   6.530  13.908 -0.1278  0.0779  0.4258
23658W        W41182  17.158   4.470   2.280  0.0219  0.0568  0.1804
23659W        W41183   6.847  11.777   0.350 -0.0836 -0.0999 -0.0273
23660W        W41184  17.670   5.526  11.795  0.2218 -0.1016  0.2361
23661W        W41185   3.490  11.867   2.722  0.0415  0.0578 -0.2078
23662W        W41186  16.696  15.799   4.628  0.0688  0.1959 -0.1415
23663W        W41187  14.375  16.045  13.805 -0.0120  0.0141  0.5349
23664W        W41188   0.673  15.162  11.421  0.3048  0.0588 -0.2097
23665W        W41189   1.446   6.185   5.088 -0.2913  0.1676  0.1405
23666W        W41190   5.991   9.767   0.324  0.1838 -0.0700 -0.1122
23667W        W41191   9.405  12.245  13.348 -0.3546  0.1480 -0.1214
23668W        W41192   9.521  16.560   0.265 -0.2747  0.1480  0.0337
23669W        W41193   1.793   1.898   3.914  0.1852 -0.0072  0.2850
23670W        W41194   0.291  16.267  13.186  0.3320 -0.2489 -0.3607
23671W        W41195   5.297   2.261  11.315  0.1400 -0.2523  0.2954
23672W        W41196   7.191  14.241   3.292 -0.0708  0.0190  0.0124
23673W        W41197   6.253   5.407  11.728  0.0781 -0.0644  0.1904
23674W        W41198  13.087   7.198  12.261  0.0385 -0.2115 -0.0303
23675W        W41199  16.651  16.436  15.531 -0.3929  0.0166  0.2322
23676W        W41200  11.906  14.378  12.983 -0.0119 -0.0682  0.3547
23677W        W41201  11.035   3.973  14.119 -0.1705  0.1591 -0.1799
23678W        W41202  13.644   1.141   1.929 -0.1808 -0.0266 -0.0894
23679W        W41203  12.478   3.586  15.848 -0.1840  0.0459  0.0535
23680W        W41204   3.498   1.656  12.419  0.1176  0.0218 -0.0457
23681W        W41205   9.433   9.999  14.662 -0.1367 -0.1562  0.0970
23682W        W41206   1.209  10.303  12.497  0.1861 -0.4259  0.0261
23683W        W41207   0.903   6.060   4.174 -0.1375 -0.0938  0.1614
23684W        W41208  13.185  15.851   2.003  0.0360 -0.0368  0.1731
23685W        W41209  10.550   2.024  12.756 -0.0829  0.1800  0.2172
23686W        W41210   5.876   1.980   2.242 -0.1015 -0.1103 -0.0264
23687W        W41211   4.517  16.998   0.648  0.0402  0.1147  0.2318
23688W        W41212  11.671   5.113  14.584 -0.0748 -0.1284 -0.0592
23689W        W41213  16.476  11.792  15.985 -0.1168  0.1903 -0.1282
23690W        W41214  12.602  10.245  14.595  0.0499  0.0854  0.1427
23691W        W41215  10.224  13.079   2.128  0.4598 -0.0457 -0.1455
23692W        W41216   0.570   8.946   5.219  0.0671 -0.0067  0.1222
23693W        W41217  10.405  16.530   1.560 -0.0102  0.0956  0.0659
23694W        W41218   3.382  13.772   3.468 -0.0446  0.1859  0.0248
23695W        W41219   0.260   8.635   0.401  0.2433  0.0392  0.0439
23696W        W41220   1.420   7.382  13.079  0.0604  0.2904  0.0198
23697W        W41221   1.513  13.813  14.683 -0.1645  0.3896 -0.2326
23698W        W41222   4.859   0.822   5.042  0.2376  0.2994 -0.3652
23699W        W41223   1.698  17.612  12.847 -0.3693 -0.1464  0.0697
23700W        W41224  11.891  11.332  13.169 -0.0125 -0.2315  0.0237
23701W        W41225  13.830  14.318   0.481  0.0031 -0.3208  0.0271
23702W        W41226   6.936  13.421   1.471  0.1782 -0.0525  0.0343
23703W        W41227  10.457  14.340  14.285  0.2921  0.0302 -0.0748
23704W        W41228  17.296   0.981   1.716 -0.4550 -0.0724 -0.1036
23705W        W41229   8.847  11.816   1.787  0.0257 -0.0743 -0.1702
23706W        W41230   7.855   9.246   0.458  0.2087  0.0492  0.2154
23707W        W41231  17.528   9.009   2.050 -0.3908 -0.0126  0.1291
23708W        W41232  14.484   0.156  16.027 -0.1875 -0.1934  0.5760
23709W        W41233   8.911   7.676  15.544  0.0432 -0.2325 -0.1675
23710W        W41234  10.721   4.433   2.547 -0.0606  0.1686 -0.1083
23711W        W41235  12.457  12.289  11.833  0.1951  0.0861  0.0072
23712W        W41236   7.310   4.567  13.583  0.0881 -0.2463 -0.2059
23713W        W41237   8.709   7.644   3.938 -0.1836  0.0587  0.1275
23714W        W41238   6.481   6.938  14.522 -0.0359 -0.1896 -0.3818
23715W        W41239  16.992   6.134  12.996  0.0920  0.3100 -0.0638
23716W        W41240   6.507  16.210   4.127  0.0985  0.1114 -0.1114
23717W        W41241  15.515  11.919   0.030  0.0283 -0.1230 -0.1198
23718W        W41242   8.218   0.027   2.387 -0.1091 -0.1581  0.3293
23719W        W41243   5.268   5.321   5.922  0.2221  0.2052  0.0421
23720W        W41244   0.116  17.358  11.853 -0.1833  0.0799 -0.0288
23721W        W41245   1.841   8.962  10.824  0.1296  0.3159  0.3293
23722W        W41246  17.656   7.392  15.844 -0.0731  0.2629  0.1695
23723W        W41247  10.022   0.744   2.168  0.5399  0.4112  0.1427
23724W        W41248   2.797  10.503   4.919 -0.4199  0.0613 -0.1546
23725W        W41249   8.032  14.521   0.852 -0.2057  0.0631 -0.1797
23726W        W41250  14.561   5.359  15.140  0.0360 -0.2178  0.0294
23727W        W41251  16.100  15.580  13.675  0.1186 -0.0526  0.2497
23728W        W41252  15.333  13.132   1.425 -0.0259  0.0949 -0.3152
23729W        W41253  13.679   0.579   4.505  0.2190  0.1954 -0.1902
23730W        W41254  17.414  10.782  11.266 -0.2449 -0.2258  0.0582
23731W        W41255   8.113   4.597   0.551  0.1416 -0.0658 -0.1667
23732W        W41256   1.551   1.482   0.024  0.0423 -0.1988 -0.3393
23733W        W41257   4.283   2.791   4.040 -0.0921 -0.0691  0.0321
23734W        W41258  17.903   7.972  11.812 -0.0535 -0.1208 -0.1614
23735W        W41259   9.763   3.823  14.536 -0.0182  0.0360 -0.0578
23736W        W41260   7.346  10.521   4.436  0.1288 -0.0424 -0.0385
23737W        W41261   5.897  11.600  13.660 -0.1293  0.0024 -0.3827
23738W        W41262   2.170  11.244   0.077 -0.2099 -0.0253 -0.2353
23739W        W41263   3.159  10.568  11.650 -0.0136 -0.0490 -0.0204
23740W        W41264   1.728   5.805   0.232 -0.0821  0.1679  0.0169
23741W        W41265   0.481  13.788  14.464 -0.1115  0.0665 -0.0667
23742W        W41266  15.322   6.142   2.165 -0.0227 -0.2682 -0.1399
23743W        W41267  14.369  11.321  15.319 -0.1867 -0.2101 -0.1903
23744W        W41268  17.780   7.243   2.002 -0.1848 -0.0154  0.0438
23745W        W41269   9.302  14.592   0.837 -0.0298 -0.0936  0.2507
23746W        W41270   8.714  15.140   1.169  0.2019 -0.0330 -0.1614
23747W        W41271   8.281   3.635  13.690 -0.2705 -0.0204  0.1222
23748W        W41272  15.396  15.375  14.782  0.1887  0.0142  0.3169
23749W        W41273  10.180  13.827   2.718 -0.0840 -0.0747 -0.0584
23750W        W41274  11.628   5.617   4.631 -0.0192  0.0827 -0.0864
23751W        W41275   7.216  10.179   1.167  0.1006  0.0787  0.0860
23752W        W41276   2.118   5.749  15.254 -0.4688  0.1045  0.4714
23753W        W41277  13.389   4.113  13.068 -0.0510 -0.0266 -0.1142
23754W        W41278  10.880   8.244  14.420 -0.0044 -0.2892  0.0064
23755W        W41279  10.997   1.136  14.838 -0.1984  0.0851 -0.0184
23756W        W41280   5.462   3.510   3.837 -0.0336  0.0539  0.1804
23757W        W41281   1.300   2.884  14.425 -0.0543  0.2569  0.1471
23758W        W41282  16.965   7.646  13.600  0.1655  0.3913 -0.2700
23759W        W41283  15.890  15.374  12.341  0.0566 -0.0021  0.0309
23760W        W41284   8.801   7.520   1.817 -0.0576  0.0282  0.0592
23761W        W41285  11.669   8.036   4.170  0.1185 -0.0519 -0.1635
23762W        W41286   3.713  14.815  15.043  0.2308  0.1606 -0.1470
23763W        W41287   6.000   8.528  12.306 -0.1179 -0.1019  0.3168
23764W        W41288  12.973  12.557   4.476  0.0966 -0.1699 -0.2190
23765W        W41289   4.452  12.379  16.259  0.1058 -0.2127 -0.3673
23766W        W41290   2.827   9.324  11.908 -0.1274  0.2751 -0.0885
23767W        W41291  16.142  12.961  15.672 -0.1315  0.2026  0.0144
23768W        W41292   2.091  15.695  14.789  0.0297 -0.0486  0.2907
23769W        W41293  11.610   1.477  14.175  0.0964  0.0112 -0.0424
23770W        W41294   5.093  10.831   1.928 -0.1386 -0.0138  0.1708
23771W        W41295  16.701   3.030  12.353  0.1252 -0.0035 -0.0294
23772W        W41296  11.222  17.147   0.660  0.0721 -0.0320  0.2058
23773W        W41297  14.035   4.446  11.998  0.1358  0.3040 -0.0083
23774W        W41298   8.731  13.872   6.500  0.4754 -0.0102 -0.0441
23775W        W41299  14.809   3.830  11.473  0.0588 -0.0638 -0.1581
23776W        W41300   0.615   3.566   1.128  0.5264  0.1508 -0.1695
23777W        W41301   9.752   8.036   5.126 -0.1036  0.1189  0.1620
23778W        W41302   1.705   7.222  14.786  0.1019 -0.3031  0.2141
23779W        W41303  15.302   9.952   2.738  0.3735  0.1796  0.0746
23780W        W41304   4.369  17.122  13.603 -0.0798  0.3682 -0.4323
23781W        W41305   4.195   3.697  15.228  0.2794 -0.0980 -0.2690
23782W        W41306  10.446   1.803  14.547 -0.1684 -0.1095  0.1658
23783W        W41307   9.115  11.032  15.600 -0.1950 -0.0214  0.1219
23784W        W41308  11.176   6.270  12.367  0.0484  0.2005 -0.1105
23785W        W41309   5.475   8.966   4.055 -0.2174 -0.0054  0.1803
23786W        W41310   6.346  12.447   3.186  0.0528 -0.0780  0.1870
23787W        W41311   6.476   0.813  14.425  0.1386  0.1017 -0.2585
23788W        W41312  17.444   3.660   5.168  0.3694 -0.2156 -0.0947
23789W        W41313  13.620   2.335  12.618 -0.2068  0.0018  0.0865
23790W        W41314   1.441  14.801  14.650 -0.0753  0.0798 -0.1369
23791W        W41315   3.006   4.275  12.171 -0.2736  0.0891  0.0030
23792W        W41316  16.197   5.199  13.661 -0.1305 -0.1345  0.1192
23793W        W41317  12.423   4.868   2.364  0.1553  0.1494  0.0634
23794W        W41318   3.579   5.463   5.295 -0.1947 -0.1292 -0.3183
23795W        W41319   7.857  10.813  11.043  0.2577 -0.0943  0.2925
23796W        W41320   5.370   5.942  14.869  0.1287 -0.1198  0.0111
23797W        W41321  13.317   1.128   2.443  0.2879 -0.2828 -0.1956
23798W        W41322  17.357   2.771   2.642  0.0982  0.2300 -0.1614
23799W        W41323  17.684  17.067  15.816  0.1061 -0.1336 -0.1203
23800W        W41324   3.111   8.511  13.550  0.2766  0.1119  0.0508
23801W        W41325  11.908   2.835  13.751 -0.2023  0.2765  0.0411
23802W        W41326   0.844   9.722  15.958 -0.2080 -0.2169 -0.1579
23803W        W41327   7.357   3.534   0.641 -0.1165 -0.0823  0.1053
23804W        W41328   0.579   7.637   4.636  0.1957  0.1158 -0.0901
23805W        W41329   0.563   5.848  14.052 -0.0919  0.0867 -0.0911
23806W        W41330   2.423  16.468  12.566  0.4524  0.0642 -0.1280
23807W        W41331   3.886  14.955  11.722  0.1115  0.0986  0.1452
23808W        W41332  17.232   7.238  14.459  0.2090  0.1595 -0.1932
23809W        W41333  12.817   8.838  15.909 -0.2015  0.0737 -0.1519
23810W        W41334   8.666   2.467  11.837 -0.0501 -0.0749 -0.2468
23811W        W41335   5.714  16.035  12.002 -0.2893 -0.0879 -0.1650
23812W        W41336   8.761   4.056   3.580  0.0426 -0.1700  0.0172
23813W        W41337   3.034   9.486  11.407 -0.0703 -0.1173 -0.1154
23814W        W41338   0.798   7.261  13.447  0.1153  0.2290 -0.1421
23815W        W41339   4.176  10.793   2.109  0.0481 -0.1033 -0.2333
23816W        W41340  12.585  16.907  15.409  0.0699 -0.0058 -0.2481
23817W        W41341   6.905  12.580   0.300 -0.0358  0.0196 -0.2310
23818W        W41342   7.622  12.092   2.937 -0.3905  0.1826  0.0268
23819W        W41343   5.424   2.749   0.706  0.1772 -0.0924  0.0544
23820W        W41344  11.531   4.094  14.231  0.0821 -0.0879 -0.2571
23821W        W41345  10.989   6.193  14.623 -0.2335 -0.1452  0.1312
23822W        W41346   8.780  12.989   1.063  0.1469  0.0134 -0.1988
23823W        W41347  13.948  10.025   0.973 -0.2402  0.4336  0.3588
23824W        W41348   4.815  16.892  13.512 -0.1405 -0.0299 -0.1156
23825W        W41349   2.368  16.473  14.192  0.0154  0.2171  0.4175
23826W        W41350   1.183  11.179  12.575 -0.1044  0.3022 -0.0477
23827W        W41351  11.345   8.369  11.245 -0.2381  0.3132 -0.1019
23828W        W41352  14.096   9.593   1.287  0.1355  0.0216 -0.0471
23829W        W41353  16.598   0.545  14.293 -0.0752 -0.0370  0.1753
23830W        W41354  15.949  11.742   0.319  0.0978 -0.0241  0.1381
23831W        W41355  16.904   2.259   2.095 -0.0789 -0.0258  0.1158
23832W        W41356  12.496  11.238  16.238  0.0214  0.0230  0.2990
23833W        W41357   2.393   8.344  11.931 -0.1526  0.2191 -0.3102
23834W        W41358  16.990   8.726   1.366 -0.0288  0.2294 -0.1058
23835W        W41359   1.193  15.257   4.455 -0.0530 -0.0370 -0.0418
23836W        W41360  10.159  11.384  13.670 -0.2901 -0.1847  0.0696
23837W        W41361  13.221  10.471   3.662 -0.3136  0.1610  0.2750
23838W        W41362  16.636   5.737   0.209 -0.1731 -0.0112  0.2128
23839W        W41363  17.562   0.964   1.169  0.0180  0.2270 -0.0537
23840W        W41364  17.651  17.430   2.861 -0.0338  0.2939  0.3064
23841W        W41365  10.071  12.653   1.965 -0.1664 -0.1728  0.3299
23842W        W41366  14.303  13.404   2.164  0.0387 -0.0277  0.0334
23843W        W41367   0.271   8.438   3.623  0.2124  0.1319 -0.0153
23844W        W41368   2.846   1.523  14.580  0.1646  0.0309  0.1276
23845W        W41369   9.580  12.830   0.089 -0.1653  0.0059 -0.1397
23846W        W41370   4.159  12.656   3.812 -0.3507  0.2154  0.2203
23847W        W41371  14.136   2.203  10.295  0.0655 -0.1358  0.2767
23848W        W41372   1.786   1.271   4.960 -0.1040 -0.2208 -0.2041
23849W        W41373  15.147  17.178  14.758 -0.2437  0.0498 -0.1050
23850W        W41374   5.602   8.997  13.163 -0.0419 -0.0687 -0.1966
23851W        W41375   7.674  12.182   2.013  0.1200  0.0423 -0.1191
23852W        W41376  12.031   8.933  12.106  0.2214 -0.0488 -0.1089
23853W        W41377   2.594   2.314   5.334 -0.1511  0.2981  0.0083
23854W        W41378   0.724   1.474  11.276  0.0519 -0.0370  0.1504
23855W        W41379  17.685   7.997  14.452  0.1184  0.1903  0.1890
23856W        W41380  13.261  13.440   0.523 -0.3671 -0.0829  0.2110
23857W        W41381  12.837   2.782  15.594 -0.1143 -0.0126  0.2476
23858W        W41382  14.990   6.896  15.702 -0.0292  0.3353  0.2032
23859W        W41383   9.578  13.134   3.657 -0.3587 -0.1116  0.0422
23860W        W41384   1.801   4.734  15.600 -0.1779 -0.0735  0.0545
23861W        W41385   8.052  11.962   2.259  0.0891 -0.3245 -0.0198
23862W        W41386  17.234  17.174   4.082  0.0806  0.3192 -0.1995
23863W        W41387   6.958  14.800   3.180  0.0081 -0.0328 -0.0175
23864W        W41388   3.032  13.937   2.507 -0.1764  0.2338  0.0662
23865W        W41389   3.929   4.265  11.662 -0.0869  0.0688 -0.2663
23866W        W41390  14.203  16.734  14.330 -0.0479  0.4145 -0.2593
23867W        W41391   4.345   5.183   2.435  0.0530  0.1867 -0.2326
23868W        W41392  17.568  10.045   4.337 -0.1005 -0.0654 -0.2309
23869W        W41393   4.333   8.323   1.994  0.1362 -0.0012 -0.2839
23870W        W41394   8.160   9.628   0.491  0.0457  0.4558  0.0709
23871W        W41395  17.265  11.056   1.276 -0.1876  0.1386 -0.1112
23872W        W41396   0.601   3.741  13.794  0.0036 -0.0093  0.2854
23873W        W41397   9.769  10.807   0.572 -0.0103 -0.1255  0.1720
23874W        W41398   6.517   7.625  14.425 -0.0560 -0.0175  0.0281
23875W        W41399   7.390  14.229   0.278  0.1103  0.0733 -0.1422
23876W        W41400  14.406  16.895  15.932  0.2142 -0.2634 -0.0118
23877W        W41401   0.931   9.586   4.557  0.1996 -0.2882 -0.1158
23878W        W41402   1.336  12.147  13.798 -0.2561 -0.2151  0.1558
23879W        W41403   4.296   6.582   4.749 -0.0632 -0.0600  0.2342
23880W        W41404   5.148  16.183   2.216  0.2593  0.1712 -0.4162
23881W        W41405   3.962  13.779   5.262 -0.2862  0.2936  0.0553
23882W        W41406  15.823  12.863   1.527  0.0109 -0.0588  0.2369
23883W        W41407   6.977  16.315   4.116  0.2450  0.1845  0.1828
23884W        W41408  16.567  15.973   2.687 -0.0999  0.0305 -0.0909
23885W        W41409   4.690   4.555   4.624  0.0404  0.0652  0.0101
23886W        W41410  14.433  14.563   0.589  0.1784 -0.1199 -0.1608
23887W        W41411   5.507   2.968   3.470  0.0273  0.3383 -0.1260
23888W        W41412  13.750   4.840   1.705 -0.2788  0.2544  0.1071
23889W        W41413   5.423   8.052  15.265 -0.0854 -0.1532 -0.0210
23890W        W41414  14.732   5.214  14.402 -0.0231 -0.0862 -0.0295
23891W        W41415   2.127  11.087  14.376 -0.0433 -0.2707  0.0291
23892W        W41416   2.916  10.797  13.847 -0.1287 -0.1896  0.0441
23893W        W41417   8.383   7.303  13.802 -0.0048  0.0201  0.0794
23894W        W41418  14.168  12.629  14.832  0.4332 -0.3965  0.0203
23895W        W41419  16.710   8.788  11.884 -0.1062 -0.1411  0.2012
23896W        W41420   4.645   6.006  13.595 -0.0193 -0.2308 -0.0029
23897W        W41421   2.088  10.144  14.689 -0.0142  0.2047 -0.2693
23898W        W41422   4.884   3.836  12.612  0.0131  0.1288  0.1070
23899W        W41423   3.452   3.704   3.485 -0.2766  0.2768  0.1488
23900W        W41424   0.895   9.922  14.105 -0.4262 -0.3385 -0.2517
23901W        W41425   9.269   4.668   1.214 -0.1368 -0.2416 -0.0740
23902W        W41426  13.915  14.794  14.940  0.0855  0.0207 -0.0120
23903W        W41427   1.341   6.856  15.703 -0.0858  0.1043 -0.0417
23904W        W41428  13.313   0.188  12.870 -0.2082 -0.2150 -0.3168
23905W        W41429  14.305   5.236   0.981 -0.2478 -0.0594  0.2019
23906W        W41430  10.713  13.950   2.786  0.1809  0.2792  0.2446
23907W        W41431  11.387  12.690   1.868 -0.0761 -0.4505 -0.0653
23908W        W41432  11.220   4.272  12.944 -0.0528 -0.1129  0.0291
23909W        W41433   2.133   6.674   3.949 -0.0016 -0.3479 -0.0060
23910W        W41434   1.242   2.397  15.137  0.1131 -0.0553 -0.0100
23911W        W41435   4.793  16.378   1.891 -0.0012  0.1143 -0.1612
23912W        W41436  13.180   9.416  11.441  0.2778 -0.4115  0.1917
23913W        W41437   3.868   0.568   6.075  0.1483  0.0593  0.0927
23914W        W41438  15.394   7.814  13.054 -0.2959 -0.1238  0.1585
23915W        W41439  11.592  16.566  10.556 -0.2063  0.3997  0.2486
23916W        W41440   8.155   5.501  12.325  0.0659  0.1306 -0.2055
23917W        W41441  16.322  11.779   3.383 -0.1929 -0.2319 -0.0867
23918W        W41442  14.629  12.495  15.644 -0.1942  0.4078  0.1188
23919W        W41443   2.532  14.836   3.509  0.1048  0.2255  0.0339
23920W        W41444  12.457  13.084  14.262  0.2268  0.0455  0.0371
23921W        W41445  10.718   2.804   1.236 -0.0075  0.0338  0.0290
23922W        W41446  11.324  12.038   1.476 -0.0776  0.2235 -0.1229
23923W        W41447   4.571   7.003   0.006 -0.1875  0.0681 -0.3058
23924W        W41448   1.813   0.125   4.198 -0.1773 -0.0001 -0.0444
23925W        W41449   9.286  13.242   2.484 -0.0157  0.0008  0.1688
23926W        W41450   8.165   5.787   2.911 -0.1876 -0.1755 -0.1728
23927W        W41451   2.712   7.830  14.113 -0.2430 -0.3415  0.0742
23928W        W41452  10.440   4.193   5.597  0.0896 -0.2911  0.2427
23929W        W41453  15.773  13.054  11.519 -0.0526  0.0828 -0.0710
23930W        W41454   8.178   2.523  11.694 -0.0111 -0.3233  0.3272
23931W        W41455  13.351  11.048  13.882 -0.0225 -0.0359 -0.0879
23932W        W41456  15.686   1.457   4.678  0.0723  0.0034  0.0400
23933W        W41457   0.956   9.395   3.827 -0.0605 -0.2630 -0.2366
23934W        W41458   5.702   0.072   0.132  0.0675  0.0258 -0.1271
23935W        W41459   0.395   1.862  11.466 -0.1231 -0.1554  0.3704
23936W        W41460  10.520  16.960   2.406  0.2839 -0.2410 -0.0835
23937W        W41461   8.806  16.424  13.760  0.1611 -0.0129 -0.1198
23938W        W41462  15.076  12.157   4.863 -0.3531 -0.0215 -0.1943
23939W        W41463   8.165   6.663   4.763 -0.2530  0.0953  0.0107
23940W        W41464  10.500  15.907   1.484 -0.0190 -0.1025  0.2194
23941W        W41465  15.335  11.079  12.093  0.0655  0.0884 -0.2402
23942W        W41466  11.385  17.690  14.960  0.1966 -0.1777 -0.1285
23943W        W41467  14.818   9.841   4.553 -0.0774 -0.1089  0.1121
23944W        W41468  16.923   9.206   0.654  0.0745  0.1037 -0.0407
23945W        W41469   6.881  17.516  11.667 -0.0048 -0.0616 -0.1389
23946W        W41470  10.158  17.565  12.216 -0.0683 -0.3168  0.0687
23947W        W41471  16.424  11.523   2.904  0.0058  0.0405  0.2352
23948W        W41472  12.831   0.497   2.603  0.0119  0.0201  0.0345
23949W        W41473  17.956   7.977  12.638 -0.0822 -0.2815  0.3334
23950W        W41474  13.706  16.132   4.583  0.0487  0.1909 -0.0858
23951W        W41475   6.109  10.649   3.714  0.3031 -0.2329  0.1115
23952W        W41476  10.100  10.176  12.124  0.1819 -0.0930  0.0668
23953W        W41477   5.867   1.279  14.165  0.0182  0.1296 -0.1661
23954W        W41478  12.128   9.736  15.664 -0.0148  0.0753 -0.3666
23955W        W41479   8.265  10.623   0.053  0.1579 -0.0327  0.0865
23956W        W41480   9.016  10.401   3.039  0.2131  0.2395  0.0083
23957W        W41481   8.714   9.763   1.331  0.1365 -0.0815 -0.3017
23958W        W41482   2.168  16.035  12.771 -0.2198 -0.0461  0.4182
23959W        W41483  11.758   7.098   2.828  0.1801 -0.0557  0.0193
23960W        W41484  12.034  10.543  11.738  0.0813  0.1768 -0.1988
23961W        W41485   7.270  12.615   2.430  0.2727 -0.3643 -0.1385
23962W        W41486   6.067   6.691  13.657 -0.1644  0.0772  0.1238
23963W        W41487   9.502   0.188  12.770 -0.0577 -0.0163  0.1053
23964W        W41488  16.208   7.538  12.947  0.1923 -0.0240  0.1456
23965W        W41489   0.042  14.363  12.830  0.2229  0.3515  0.0003
23966W        W41490  16.287  15.013  15.877 -0.0921  0.2568 -0.2848
23967W        W41491   6.303   8.635   5.540 -0.3541 -0.3062  0.2997
23968W        W41492  14.601  14.598   4.560  0.1337  0.0451 -0.0756
23969W        W41493   1.804   4.240  13.214 -0.0997  0.1712  0.1222
23970W        W41494   1.101  17.861  14.022  0.1345  0.0126  0.1172
23971W        W41495  12.042  16.436  11.528  0.0013 -0.0653 -0.1039
23972W        W41496  12.664  16.801   3.380 -0.0081 -0.0658 -0.0257
23973W        W41497  16.688  13.400  16.107  0.2373 -0.0030  0.2023
23974W        W41498  15.123   3.476   3.682 -0.1862 -0.0301 -0.0556
23975W        W41499  15.688   1.488   1.090 -0.0436 -0.0599 -0.0528
23976W        W41500  15.306  16.831  11.241 -0.1476  0.1340  0.0846
23977W        W41501  14.023   8.367   0.599 -0.0873 -0.1148  0.1012
23978W        W41502   9.154   2.696  13.816 -0.0393  0.0274 -0.0281
23979W        W41503   6.932   2.399   3.987  0.1373 -0.0004  0.3244
23980W        W41504  14.883   4.143   0.562  0.3069 -0.2025  0.2042
23981W        W41505   9.066   4.132  12.398 -0.0561  0.5011  0.2713
23982W        W41506  14.292  17.339   5.766 -0.1083  0.1103 -0.1656
23983W        W41507   5.196   6.411  14.685 -0.1304 -0.0399 -0.0186
23984W        W41508  11.389  16.282   3.479 -0.1008  0.0988 -0.1591
23985W        W41509  16.081   7.366   3.917  0.1621 -0.2228  0.0457
23986W        W41510  14.347  17.673   2.496 -0.1160  0.1241  0.0754
23987W        W41511  13.083  10.930   3.443 -0.1852  0.0324  0.1140
23988W        W41512  14.755  17.410   4.560 -0.2056 -0.1519  0.2007
23989W        W41513  10.974  12.427   1.564  0.1213 -0.1180  0.0251
23990W        W41514   9.220   8.546  12.829 -0.0117 -0.0210 -0.1762
23991W        W41515   5.693  14.642   0.279  0.0082 -0.1738  0.1566
23992W        W41516  11.457   8.033  13.150  0.0125 -0.2638  0.0936
23993W        W41517   9.517  11.317   5.113 -0.0370  0.1203 -0.3585
23994W        W41518   1.731  13.041  14.277 -0.0012  0.1811 -0.2600
23995W        W41519   6.498  12.656  11.339 -0.1134  0.1883  0.1647
23996W        W41520  17.524   0.941   3.548 -0.0145 -0.0670  0.0784
23997W        W41521   5.051   6.769   0.313  0.0322  0.0224 -0.1332
23998W        W41522  13.314  12.897  13.884  0.0414  0.2260  0.0095
23999W        W41523   9.078  12.015   0.714  0.2813 -0.2930 -0.4316
24000W        W41524   5.421  17.936  12.037 -0.1484 -0.1592  0.3612
24001W        W41525  16.506  17.081   2.518  0.0534  0.2070 -0.0493
24002W        W41526   4.474  16.650  13.844 -0.1523 -0.0288  0.1621
24003W        W41527  16.792   5.456  15.161 -0.0426 -0.0804 -0.0100
24004W        W41528  15.415  10.516   3.990 -0.0728  0.1655  0.2295
24005W        W41529   3.327  15.464  13.029  0.1391 -0.1712  0.1486
24006W        W41530   2.138   6.560  12.693 -0.1269  0.2090  0.0461
24007W        W41531   9.574   3.216   3.930 -0.2348  0.1169 -0.0809
24008W        W41532   4.344   4.124  14.163 -0.2723 -0.0365  0.3097
24009W        W41533  14.674   1.214   1.230  0.1485 -0.1903  0.1653
24010W        W41534   9.981   1.235  11.074 -0.1097  0.0107 -0.0835
24011W        W41535  11.022  14.828  12.662 -0.2151  0.2376 -0.0505
24012W        W41536  11.052  13.283   0.141 -0.1564 -0.0262  0.0440
24013W        W41537   6.005   0.745   2.755  0.1266 -0.1363  0.1939
24014W        W41538   2.070  17.237  12.521  0.1822 -0.0974  0.0763
24015W        W41539  11.663  13.672   5.290  0.1427  0.2989 -0.0834
24016W        W41540  13.982   0.248  10.730  0.1285  0.0216 -0.1665
24017W        W41541  14.165   4.072  12.317 -0.2843 -0.2305 -0.1751
24018W        W41542   7.586   3.896  14.295 -0.0107  0.2536  0.2156
24019W        W41543   5.843  10.122   1.444  0.2791 -0.3886 -0.2447
24020W        W41544   9.862   4.388  10.497  0.2069  0.1157  0.1633
24021W        W41545  14.088   8.480   3.914  0.0320 -0.1068  0.0468
24022W        W41546   8.674  14.737   4.801 -0.2198 -0.0661 -0.1518
24023W        W41547  14.532  13.750   0.993  0.1608  0.2275 -0.0442
24024W        W41548  16.245  17.320   5.063 -0.2557  0.1939  0.2392
24025W        W41549   5.625   6.060  15.322  0.3854  0.0121 -0.0146
24026W        W41550   9.937  15.084  14.912  0.2840 -0.1655 -0.3272
24027W        W41551   3.295  11.305  13.710 -0.1116  0.1816 -0.0427
24028W        W41552  15.825  11.555  15.531 -0.0438 -0.1923 -0.0610
24029W        W41553  12.517   4.051  16.070 -0.3717 -0.0703 -0.0525
24030W        W41554   1.802   2.185  14.079 -0.1334 -0.2479  0.1285
24031W        W41555  11.871  15.994  12.305  0.1833 -0.0392 -0.0553
24032W        W41556   7.438   9.486  15.960 -0.3362 -0.2350 -0.0817
24033W        W41557  15.643  14.736   4.317  0.0326 -0.0434  0.0364
24034W        W41558  16.867   4.275   0.342  0.1537  0.0525  0.2721
24035W        W41559   5.958  11.655   3.208 -0.0011 -0.0357  0.1764
24036W        W41560  15.746   1.225  13.423 -0.0873 -0.1291 -0.2255
24037W        W41561  13.783   4.223   1.026 -0.1038  0.0639 -0.0557
24038W        W41562  12.352  10.217   2.054 -0.1459  0.2372  0.1578
24039W        W41563  14.702  17.122   3.191  0.0006 -0.3745 -0.3494
24040W        W41564   7.705  14.978   3.199 -0.0950 -0.0214  0.2339
24041W        W41565   6.266  12.472   4.072 -0.2237  0.1515 -0.1199
24042W        W41566   4.167   9.407   2.041  0.0954 -0.2473 -0.1298
24043W        W41567  12.722   0.079  12.170  0.2025  0.2460  0.0856
24044W        W41568  11.486   0.303   2.423  0.1739  0.3050  0.3212
24045W        W41569  14.229   5.050  15.403  0.2073  0.1353  0.2985
24046W        W41570  15.785   8.500   1.638  0.2864  0.1231 -0.1662
24047W        W41571   8.832  15.639  13.009 -0.3121 -0.0865 -0.1305
24048W        W41572   3.383   5.371  12.206 -0.0229  0.5315 -0.3800
24049W        W41573  11.694  15.964  10.227  0.2873  0.0230 -0.2874
24050W        W41574   6.838  11.944  15.347  0.3148  0.0414 -0.1403
24051W        W41575   3.598   8.196  11.208 -0.2023  0.2845  0.0788
24052W        W41576  14.404   4.011  11.853  0.3076  0.1129 -0.3451
24053W        W41577   3.264   2.805   5.161 -0.1399 -0.0617 -0.0537
24054W        W41578   0.660   8.236  12.023 -0.1151  0.0297  0.1539
24055W        W41579  11.935   8.875   0.018 -0.1866  0.0121  0.1322
24056W        W41580   4.999  11.407  11.374 -0.0416 -0.1366 -0.0735
24057W        W41581  17.734   8.837  12.109 -0.0380  0.2537  0.4745
24058W        W41582   9.656  12.130   2.680  0.2712  0.2255 -0.0156
24059W        W41583   7.663   5.044  16.063 -0.0822 -0.0856 -0.0713
24060W        W41584  17.430   8.930   0.610 -0.1392 -0.0535  0.2613
24061W        W41585   9.472   8.533   1.341 -0.2140 -0.2382  0.0412
24062W        W41586   7.434  16.350   2.304  0.1346 -0.1772  0.0358
24063W        W41587  17.920  12.594   3.293  0.0336  0.0220 -0.1392
24064W        W41588  15.878   5.105   0.483  0.2027  0.0671  0.0097
24065W        W41589   4.172   0.239  15.672 -0.0051 -0.0754 -0.0335
24066W        W41590   9.919   0.008  12.500 -0.0572  0.0462 -0.1828
24067W        W41591  14.894  15.687   4.223  0.0677 -0.3024  0.2322
24068W        W41592   5.952  13.363   5.662  0.0793  0.0592 -0.0896
24069W        W41593  11.149  16.959  15.158 -0.1207 -0.1020 -0.0049
24070W        W41594   0.114  17.185   2.653 -0.1603  0.2665  0.2645
24071W        W41595  16.215  15.533   4.894  0.1441 -0.0887  0.1864
24072W        W41596   9.459  11.681  10.323 -0.0300 -0.0825 -0.1479
24073W        W41597   7.638   5.852   0.219  0.1605  0.1828  0.0439
24074W        W41598   5.216  17.157   5.153 -0.0918 -0.2771 -0.1877
24075W        W41599   8.484  17.200   4.600 -0.2324 -0.1400 -0.1021
24076W        W41600   9.222  16.563  14.007  0.0394  0.0885 -0.1349
24077W        W41601   5.596  12.969   3.329  0.0163 -0.1313  0.1725
24078W        W41602  15.665   8.379   1.161  0.0202  0.1020  0.1994
24079W        W41603   2.792  17.482   3.406  0.0452 -0.2537 -0.1956
24080W        W41604  10.448   0.294  14.975 -0.1629  0.0390 -0.0029
24081W        W41605  15.792   6.913   5.199 -0.0357 -0.0748 -0.2828
24082W        W41606   6.976   3.644   6.330  0.2691 -0.1228  0.0088
24083W        W41607  17.495   2.454  13.972 -0.0438 -0.1299  0.1668
24084W        W41608   0.654   9.087  15.388  0.5193  0.1187 -0.1268
24085W        W41609  16.760  14.065  14.151  0.4168  0.2841  0.0253
24086W        W41610   6.879  14.433   2.842 -0.3667  0.1652  0.2407
24087W        W41611  15.072   4.951  16.078 -0.2555  0.1785  0.0806
24088W        W41612   8.174   8.466   4.126  0.1606  0.2112 -0.0090
24089W        W41613  13.798   1.997  14.142  0.0367  0.0140 -0.1191
24090W        W41614  10.353  15.790   2.535 -0.0795 -0.2675 -0.0823
24091W        W41615  16.088  14.808  13.652  0.2273 -0.0286  0.1003
24092W        W41616   2.260   0.644  15.723  0.0365  0.0655 -0.1233
24093W        W41617   6.236   4.416   0.772 -0.4318 -0.1142 -0.3671
24094W        W41618   4.831   7.443  16.221  0.2119  0.1465 -0.0127
24095W        W41619  16.122  14.910  12.168  0.0164 -0.2736  0.0915
24096W        W41620   6.447  16.623  14.918 -0.0545 -0.1369  0.0081
24097W        W41621  11.117  14.574   3.120  0.1497 -0.0190 -0.1666
24098W        W41622   7.208   9.005   4.818  0.1849 -0.0098  0.0100
24099W        W41623  10.607   4.905   2.740 -0.2486 -0.1150 -0.1046
24100W        W41624  11.473  17.933   0.625  0.2372  0.3496 -0.0590
24101W        W41625   1.488  16.382  14.663  0.1237  0.3366 -0.1848
24102W        W41626  16.497   2.692  14.931  0.0373  0.2225  0.1587
24103W        W41627   3.657   9.226   3.853  0.0384 -0.0735 -0.2545
24104W        W41628  12.121   1.398   4.107 -0.0301  0.0267 -0.0378
24105W        W41629   1.672  16.699  15.707 -0.0080 -0.0284 -0.0056
24106W        W41630   0.807  10.893   1.176  0.1843 -0.0300  0.0683
24107W        W41631  15.686  16.436  13.271 -0.1396 -0.1384 -0.1452
24108W        W41632   0.228   9.841   3.052 -0.1185 -0.1168  0.1460
24109W        W41633   5.836   7.343   2.182  0.0126  0.0812 -0.0720
24110W        W41634  16.186  15.319  15.404 -0.0546  0.0211 -0.0148
24111W        W41635  12.590   2.389  13.675  0.2563  0.1320 -0.2373
24112W        W41636  15.222   5.350   3.868 -0.1626 -0.0687  0.1654
24113W        W41637   1.262  14.094   3.405  0.0369 -0.2556 -0.0186
24114W        W41638   9.148  16.644  11.477  0.0265 -0.0048  0.0507
24115W        W41639   3.841  10.993  13.881 -0.0686  0.1052 -0.0715
24116W        W41640   4.833   2.107  15.873  0.1657  0.2063  0.2157
24117W        W41641   0.263  12.122   1.321 -0.0828  0.3667  0.1799
24118W        W41642   9.888   7.068  11.498 -0.0604  0.0784 -0.0963
24119W        W41643  16.507   9.333  14.609  0.3192  0.1425 -0.1564
24120W        W41644  17.726   2.234   3.282 -0.3086 -0.0263 -0.0546
24121W        W41645  14.695  13.768  14.477  0.0521 -0.2889 -0.1219
24122W        W41646  16.358   4.620   3.870  0.1153  0.3448 -0.0096
24123W        W41647   7.434  10.062  13.019 -0.0673 -0.1298  0.2664
24124W        W41648  15.768  15.343   4.661 -0.0632 -0.1408 -0.1508
24125W        W41649  15.956  11.619  14.519 -0.2305  0.1162  0.2978
24126W        W41650   1.565  11.966   2.588  0.0261  0.1856  0.1544
24127W        W41651   3.412   4.917   2.356 -0.2728 -0.0101  0.2087
24128W        W41652  13.776   9.724   2.622 -0.0121  0.0010 -0.0007
24129W        W41653   2.324   3.604   2.270 -0.0140  0.1493 -0.1351
24130W        W41654   8.020   6.331  11.433 -0.0552 -0.0405 -0.2777
24131W        W41655   9.319  11.591   3.405 -0.0186  0.1894  0.1939
24132W        W41656   1.231   7.588   4.818  0.1078 -0.0660 -0.0259
24133W        W41657  10.666  10.603   1.125 -0.1559 -0.1987  0.1245
24134W        W41658  12.052  17.741  12.858 -0.0090  0.1468  0.1490
24135W        W41659  16.809  12.504   3.033  0.3072  0.2407  0.2155
24136W        W41660   9.693  14.484   2.045 -0.4037  0.0190 -0.3346
24137W        W41661   1.447   9.477   1.993  0.1047 -0.0295 -0.0495
24138W        W41662   0.248   0.009   0.649  0.0815 -0.1615  0.0249
24139W        W41663  11.458  10.040  14.013 -0.0070  0.3741 -0.0730
24140W        W41664   6.451  15.914  12.468  0.0127 -0.0114  0.0068
24141W        W41665   4.711  10.225   2.395 -0.1094 -0.1873  0.0089
24142W        W41666   6.576  11.923   4.970 -0.0331  0.3190  0.3433
24143W        W41667   0.641   2.019   0.531 -0.1383  0.2677 -0.1163
24144W        W41668   2.825  10.220   3.434  0.0343 -0.0682  0.0143
24145W        W41669  16.725  13.510  12.824  0.2015  0.3295 -0.1021
24146W        W41670  12.983   6.751   4.137  0.1392 -0.2791  0.1713
24147W        W41671   0.606  12.066  10.207  0.2551 -0.0928 -0.1148
24148W        W41672   7.325   6.864   2.858 -0.2967  0.2019 -0.0483
24149W        W41673  10.685  10.112   4.524  0.1849  0.1079  0.4814
24150W        W41674  12.503  11.988   3.027 -0.1996  0.1913 -0.3760
24151W        W41675   4.687   5.329   0.668  0.0342  0.1962  0.1436
24152W        W41676  15.660   1.720  15.967  0.1762 -0.1846  0.2372
24153W        W41677  12.090   6.138  11.354 -0.0425  0.3737  0.4023
24154W        W41678   9.393  17.280  12.966  0.1862 -0.1978  0.1900
24155W        W41679   8.323   5.009  12.862  0.1395 -0.3312  0.3027
24156W        W41680   3.660   0.139  13.040 -0.1014  0.2056  0.2192
24157W        W41681   3.789   6.051  13.764 -0.2534  0.2164  0.0553
24158W        W41682  17.809   8.114   0.478  0.1095  0.3253 -0.1208
24159W        W41683  17.539   9.526  13.332  0.0970 -0.2174  0.2012
24160W        W41684  12.162   0.346   2.748  0.0633  0.1386  0.2575
24161W        W41685  16.614   9.987   1.360 -0.0096 -0.0583 -0.0336
24162W        W41686   3.071  15.017   2.092 -0.2608  0.1138  0.2872
24163W        W41687   4.154   7.270   5.695  0.0293 -0.1574  0.5977
24164W        W41688   7.392   2.766  12.155  0.1822  0.0282  0.1908
24165W        W41689  10.201   7.645  14.183 -0.0729  0.0249 -0.0193
24166W        W41690   7.631  10.086   4.584 -0.0120  0.1426  0.1943
24167W        W41691  13.818   5.316   5.922  0.0664  0.0232 -0.1247
24168W        W41692   9.962   2.474   5.956 -0.1323 -0.0186 -0.0786
24169W        W41693   0.521  16.932   0.577 -0.2187  0.0296  0.5029
24170W        W41694   2.979   4.787   0.749 -0.0054  0.3243 -0.0011
24171W        W41695   6.183   2.069   4.072  0.2119 -0.3015  0.1744
24172W        W41696  13.892   6.762   3.111  0.0961 -0.1692 -0.0646
24173W        W41697  16.223   0.424  13.938 -0.3202 -0.1305  0.1162
24174W        W41698   2.584  12.646   2.899  0.1059  0.2136  0.0768
24175W        W41699   0.960  15.252   1.056 -0.0306  0.1091 -0.0402
24176W        W41700   2.861  14.697  15.663  0.0731  0.2309  0.1819
24177W        W41701  11.531   6.106  16.061  0.0101 -0.0424 -0.0860
24178W        W41702   8.866   5.480  14.861  0.2193 -0.0777  0.0992
24179W        W41703  14.192   6.584   0.045  0.0227  0.0408  0.2410
24180W        W41704   6.161  17.859   1.421  0.0579 -0.3212 -0.0070
24181W        W41705  10.097   9.908   4.897  0.0826 -0.0945  0.5995
24182W        W41706  13.783  11.138  14.105  0.1420 -0.2949  0.1676
24183W        W41707   9.798   0.287  13.877  0.0643 -0.0286 -0.1732
24184W        W41708   4.969   5.665  15.793 -0.1951 -0.0481 -0.2486
24185W        W41709  14.985   2.265   3.848 -0.1627 -0.0548  0.1399
24186W        W41710  14.903  10.923   4.825 -0.1155 -0.2688 -0.1662
24187W        W41711  11.502  12.482  15.031 -0.0502  0.0956  0.1587
24188W        W41712   1.509  12.611   0.347 -0.0929 -0.0594 -0.2350
24189W        W41713  17.008   2.803   1.144  0.0729  0.1992  0.0520
24190W        W41714   7.805   3.321   3.386 -0.2560 -0.1930 -0.0616
24191W        W41715   1.700   4.383  12.341 -0.0096  0.1634 -0.1220
24192W        W41716  14.716  13.861  11.376  0.2816  0.4390 -0.3666
24193W        W41717  17.862  14.675  13.714  0.2582 -0.0134  0.1110
24194W        W41718   4.873   4.967   2.692  0.1235 -0.1679 -0.0933
24195W        W41719  14.375  12.299   2.982 -0.0215  0.2177  0.0862
24196W        W41720  15.877   8.612   4.392  0.0962  0.0709 -0.1546
24197W        W41721  13.359  12.341   3.711 -0.0578  0.0319 -0.0094
24198W        W41722   7.512  10.770   1.776 -0.0442  0.2840  0.1785
24199W        W41723   4.945   1.010  16.085  0.1026 -0.0542  0.0387
24200W        W41724   4.831  12.252  13.660 -0.0985  0.0411  0.1413
24201W        W41725   3.853   5.452   4.312 -0.1787  0.0072  0.0738
24202W        W41726  10.895   5.746   4.771  0.0039  0.2811  0.0210
24203W        W41727  14.402  12.246  13.667 -0.1235  0.0321 -0.2566
24204W        W41728  14.965  17.650   3.741  0.0022  0.0237  0.1093
24205W        W41729   9.905  14.250   2.391 -0.1087 -0.0423 -0.0302
24206W        W41730  11.022  13.945   2.405 -0.0165  0.1297  0.0990
24207W        W41731  14.094  12.109   2.021 -0.0501 -0.2112 -0.0395
24208W        W41732  10.765  16.557   5.108  0.1619 -0.0071  0.0780
24209W        W41733  11.592  15.099   2.577  0.6357  0.2614  0.0379
24210W        W41734  11.164  11.516  15.644 -0.0450  0.0413 -0.0357
24211W        W41735   2.145   0.903  14.654  0.4190 -0.3782 -0.1420
24212W        W41736   1.638   1.712  14.929  0.2472  0.1092 -0.1804
24213W        W41737  11.232   7.325   2.855 -0.1605 -0.2104  0.2418
24214W        W41738   5.366  17.821  13.432  0.0166  0.3206 -0.0008
24215W        W41739   2.110  16.320   1.518 -0.1153 -0.1215  0.0199
24216W        W41740  13.925  17.643  11.643 -0.1152  0.2677 -0.0999
24217W        W41741   9.349  13.618   2.870 -0.0899 -0.3363  0.1555
24218W        W41742   3.609   7.638   2.340 -0.0460 -0.4199  0.0340
24219W        W41743  17.742  11.001   1.601  0.1437 -0.3060  0.2853
24220W        W41744   1.715   8.795  12.924  0.1411 -0.1316  0.0394
24221W        W41745   0.095  17.005  15.478 -0.0088 -0.3325  0.0373
24222W        W41746   5.182   7.023   0.770 -0.0740  0.3153  0.1753
24223W        W41747  13.776   8.307   3.613 -0.1679  0.2222  0.3344
24224W        W41748   6.541   4.066   4.389 -0.0584 -0.2545  0.2291
24225W        W41749   9.929   5.740  12.050  0.0521  0.0711  0.0603
24226W        W41750   2.771  16.576  13.286  0.0142 -0.0825 -0.1725
24227W        W41751   9.193  16.337   2.683 -0.0572 -0.0178  0.1348
24228W        W41752  13.341   8.484  13.626 -0.1331  0.1316 -0.0933
24229W        W41753  12.867  17.519  11.595  0.0959 -0.1003  0.0583
24230W        W41754   6.532   0.268   1.909  0.2169  0.1936 -0.0812
24231W        W41755  11.709  16.969   1.686  0.1688  0.0420 -0.3936
24232W        W41756   6.360  11.701   2.702 -0.2591 -0.1163  0.1147
24233W        W41757   1.541   4.168   4.988  0.2710 -0.0432  0.0594
24234W        W41758   3.139   7.439   4.989 -0.2068 -0.1917 -0.1026
24235W        W41759  14.235   1.969  15.106 -0.0513  0.0744 -0.1963
24236W        W41760   7.669  11.227   2.601  0.1095  0.4217 -0.2615
24237W        W41761   6.925  16.140   0.801  0.0013  0.1035 -0.4234
24238W        W41762   5.376   2.592   1.584  0.2022 -0.1467  0.0954
24239W        W41763  17.560  13.143  11.719  0.2737  0.0744  0.1229
24240W        W41764  14.204  14.621   1.444  0.1818 -0.0615  0.0269
24241W        W41765  12.991  11.311  12.728  0.2267  0.1497 -0.0364
24242W        W41766   8.481   1.659   2.362  0.1133  0.0101 -0.0380
24243W        W41767   8.934  17.020  15.753 -0.1745 -0.0324  0.1163
24244W        W41768   9.577   0.383   4.529 -0.0909 -0.0075  0.0833
24245W        W41769  16.294  15.072   0.970 -0.1198  0.1774  0.1051
24246W        W41770  15.234  16.991   4.411 -0.2410  0.1885 -0.0533
24247W        W41771   7.191  13.097   5.132 -0.2597 -0.0644 -0.2165
24248W        W41772   6.023   7.641   2.531  0.1825 -0.0008  0.0452
24249W        W41773  11.384   8.840   3.341  0.0403  0.2622  0.0767
24250W        W41774   9.281   4.457   4.833 -0.0857 -0.1384 -0.3008
24251W        W41775  16.295   8.588  13.107 -0.0023  0.0162 -0.0146
24252W        W41776   2.759   4.674  12.460  0.0122 -0.3366  0.0367
24253W        W41777   3.739  17.723  11.913 -0.0827  0.1124  0.2326
24254W        W41778   1.321   6.483   2.840 -0.1584  0.2022 -0.3142
24255W        W41779  15.957  11.201  14.944 -0.0160  0.1291  0.1742
24256W        W41780   6.073   7.782   1.240 -0.1250  0.0121 -0.0005
24257W        W41781   3.573   9.305   3.042 -0.2037 -0.0448 -0.1678
24258W        W41782  17.487  13.352  12.183  0.2857  0.2200 -0.3046
24259W        W41783  13.224   9.038  15.644  0.1222  0.1900  0.0621
24260W        W41784   6.100   5.988  12.327  0.1355 -0.0818  0.0881
24261W        W41785   3.793  11.659   0.026  0.0475  0.2042 -0.1423
24262W        W41786  13.780   6.895  13.602 -0.2173 -0.2344 -0.5006
24263W        W41787  12.457   9.971   3.288  0.2250  0.1494 -0.2406
24264W        W41788  14.335   7.696   2.343 -0.2569  0.0982  0.3266
24265W        W41789  14.867   8.971   1.282 -0.2170  0.0949 -0.0736
24266W        W41790   7.540  17.301  14.950 -0.1756 -0.1129 -0.0445
24267W        W41791   6.976   8.464  12.121 -0.0361 -0.2373  0.2522
24268W        W41792  12.010   4.795  12.714  0.1180  0.0482  0.1277
24269W        W41793  14.384  15.545   1.237 -0.1108 -0.1225  0.0492
24270W        W41794   4.939   1.858  12.504  0.1760  0.0243 -0.3086
24271W        W41795   6.088   2.822  12.224 -0.2067 -0.0304 -0.1518
24272W        W41796  16.991  11.225   1.629 -0.2034 -0.1904 -0.2839
24273W        W41797  11.262   6.404  11.828  0.0825  0.1211  0.1297
24274W        W41798   6.671  17.917   0.161 -0.1474 -0.1736 -0.3383
24275W        W41799  12.277   0.970  11.823 -0.1975 -0.1809 -0.3831
24276W        W41800   7.723   8.150   0.883  0.1688  0.0278  0.1604
24277W        W41801   7.535   3.192  15.938 -0.0571 -0.2887  0.3175
24278W        W41802  16.904   9.232  12.152  0.3571 -0.1509 -0.0833
24279W        W41803  16.048   9.973  11.146 -0.2216  0.1967 -0.0838
24280W        W41804  13.970  14.971   5.068 -0.1565 -0.1634  0.2498
24281W        W41805   2.123  11.772   4.804 -0.3685  0.1573  0.1229
24282W        W41806  11.792   1.040   1.363 -0.2690 -0.1850 -0.1474
24283W        W41807  17.294   1.900   2.329  0.3021  0.3147  0.0795
24284W        W41808   7.888   6.715   1.342  0.0576 -0.3195  0.0286
24285W        W41809   5.889   3.735  16.057 -0.0897  0.1436  0.1364
24286W        W41810  15.681  17.861   4.559 -0.3437  0.1751  0.0684
24287W        W41811   2.471  16.949  12.295  0.3491 -0.3045 -0.1694
24288W        W41812  17.542   3.345  13.765  0.2033 -0.0247  0.0880
24289W        W41813   7.843  14.429   3.856 -0.1236  0.2260  0.1096
24290W        W41814  11.503   0.959   0.925 -0.0006 -0.5043 -0.4951
24291W        W41815   2.049  11.895   2.372 -0.1121 -0.0790  0.0921
24292W        W41816  13.815   4.185   3.715  0.2679 -0.0427  0.0106
24293W        W41817   9.974  15.118  11.543 -0.4783  0.0396  0.0167
24294W        W41818  15.390  12.191   1.614  0.0012  0.0835 -0.0556
24295W        W41819   7.976   0.284  11.685  0.1102  0.0017 -0.2132
24296W        W41820   5.657   2.775  13.141  0.1209  0.1615  0.1505
24297W        W41821  12.772   0.495  14.388  0.1271 -0.0960  0.0242
24298W        W41822   9.251   6.267   2.263  0.1059  0.2675 -0.0242
24299W        W41823   1.822   6.223   1.187  0.1202  0.4632  0.0062
24300W        W41824   7.250  17.217   0.239 -0.3434 -0.0784  0.1159
24301W        W41825   2.420   4.997  12.365 -0.0077  0.2394 -0.2081
24302W        W41826   4.423  17.687  13.543  0.1583 -0.3522  0.4884
24303W        W41827   5.267  11.709   0.847 -0.1094 -0.0126  0.2979
24304W        W41828   3.078   2.101   3.741  0.0874 -0.3099  0.0523
24305W        W41829   7.252   8.340  12.988 -0.1813 -0.0547  0.1164
24306W        W41830   9.768  11.126  12.352  0.0646 -0.0503  0.0923
24307W        W41831   5.190  12.048   0.411 -0.0840  0.1245  0.0444
24308W        W41832   6.277  14.163   2.337  0.0878  0.2516  0.2271
24309W        W41833   2.643  12.690  12.309 -0.2069  0.0729  0.1723
24310W        W41834  13.930  17.660   3.442 -0.1415  0.0694  0.2980
24311W        W41835   2.147  13.732   5.005  0.0231  0.3157  0.1058
24312W        W41836  11.909   0.353   4.195  0.0333 -0.0041  0.0100
24313W        W41837  12.979  15.171  15.850 -0.0268 -0.1086 -0.1028
24314W        W41838  13.331  13.183   1.059  0.1698 -0.0315  0.4898
24315W        W41839   5.898  14.492  11.700  0.0003 -0.1154 -0.2408
24316W        W41840   5.109   5.936   0.413 -0.0074  0.0031  0.0370
24317W        W41841   2.729   2.425   3.931 -0.1511 -0.4290 -0.1867
24318W        W41842   6.140   2.722  15.283  0.1967 -0.0286  0.0251
24319W        W41843   7.057  16.060  12.137  0.3114 -0.2137 -0.2423
24320W        W41844   1.541   5.282   5.597  0.1847  0.0660 -0.2089
24321W        W41845  14.385   8.387  11.449 -0.0875 -0.1646  0.0670
24322W        W41846  17.205  11.019   2.744 -0.1442  0.1220 -0.2719
24323W        W41847  10.514  16.046   0.349 -0.1350 -0.1181  0.2102
24324W        W41848  12.262  11.092  12.876  0.1675 -0.1896 -0.1030
24325W        W41849   4.143   6.125   2.742  0.2041 -0.0870  0.1673
24326W        W41850  15.502  10.807  15.868  0.0424  0.1788 -0.0443
24327W        W41851   3.616   8.989   0.088 -0.2663 -0.0406 -0.0625
24328W        W41852  12.844  17.375   4.028  0.1065 -0.0861  0.3759
24329W        W41853   0.437   5.711   2.211 -0.1044 -0.2220 -0.1288
24330W        W41854  16.374  12.391   2.847 -0.0181  0.0933 -0.2744
24331W        W41855  14.015   7.487  11.289 -0.0085  0.4610 -0.2269
24332W        W41856  10.812   3.097   3.133 -0.0489 -0.0950 -0.1596
24333W        W41857   4.478  10.169  11.590 -0.0595  0.1140  0.0443
24334W        W41858  14.858   0.101  13.791 -0.2181  0.0570  0.1354
24335W        W41859   0.503   9.308   3.941  0.1935  0.3205 -0.0049
24336W        W41860  11.734  14.370  16.103 -0.0356 -0.0271  0.2175
24337W        W41861  13.622   6.032  15.923  0.1081 -0.0572  0.0489
24338W        W41862   2.080  14.143   3.266  0.0807  0.2372 -0.1485
24339W        W41863  11.053   5.256  15.156 -0.1744 -0.3001 -0.1077
24340W        W41864  14.851   7.819  11.831  0.2421 -0.0380  0.1138
24341W        W41865  14.836   5.004  13.109 -0.0750 -0.2836 -0.0769
24342W        W41866   9.419   8.921  12.543  0.2532  0.4121 -0.0248
24343W        W41867  13.115   0.370   2.194  0.0922 -0.0067 -0.0797
24344W        W41868  15.706   7.432   0.667  0.0494 -0.1417 -0.1798
24345W        W41869   9.013   4.052  13.305  0.3853 -0.0466 -0.0434
24346W        W41870   7.732  12.815   3.565  0.2648  0.2120  0.0405
24347W        W41871  13.263   1.806  15.092 -0.1311 -0.0654 -0.0332
24348W        W41872  15.746  13.717  12.750  0.0944 -0.1243  0.2353
24349W        W41873   2.407  15.554   2.533  0.1403  0.0752  0.0966
24350W        W41874   6.208   3.691   2.737 -0.0751 -0.1015  0.0151
24351W        W41875  13.502   5.544  13.164  0.1259  0.2089  0.0792
24352W        W41876  16.433  10.259  12.472  0.1029  0.1265 -0.2828
24353W        W41877   9.250   9.194  11.804  0.1177  0.0112  0.0062
24354W        W41878   0.905  12.850   3.750 -0.0586  0.1226 -0.1718
24355W        W41879  14.587   1.963   1.456  0.0141 -0.0331 -0.0640
24356W        W41880   9.014  11.632  14.915  0.2196  0.1480 -0.1060
24357W        W41881  12.196  10.580  13.285  0.0312  0.2093 -0.1799
24358W        W41882   8.914   1.102   4.389 -0.0889 -0.0256  0.1278
24359W        W41883  10.802   7.568   2.129  0.2794 -0.1886  0.3339
24360W        W41884  17.581  12.223   4.136 -0.0658 -0.3699 -0.0407
24361W        W41885   1.076   3.409   1.455  0.0830 -0.3704 -0.1951
24362W        W41886  17.843  15.726   4.241  0.0994  0.1946  0.3221
24363W        W41887  17.450   5.953   2.469  0.0733  0.0419  0.2125
24364W        W41888  14.560  13.555   3.495  0.2022 -0.2328 -0.1318
24365W        W41889   4.637   8.023  14.864  0.1522 -0.3401 -0.0083
24366W        W41890   6.641   6.141  13.199  0.0478 -0.0537  0.0138
24367W        W41891  12.576  15.207   1.487  0.1359 -0.0329  0.1239
24368W        W41892   7.052  16.768  13.677 -0.0805  0.1988  0.0188
24369W        W41893  16.354  14.812  14.806 -0.0751  0.2591  0.2611
24370W        W41894  13.222  13.549   4.435  0.0279  0.0651 -0.0709
24371W        W41895   5.117  15.836   4.192  0.3240 -0.2753  0.0696
24372W        W41896  12.406   2.143   5.309  0.3397  0.2153  0.2146
24373W        W41897   5.430  17.287  13.504  0.1520  0.1681  0.0566
24374W        W41898  10.019  12.050  16.045 -0.3594  0.1896 -0.0425
24375W        W41899   5.338   7.117   3.168 -0.4170 -0.0920  0.1316
24376W        W41900  14.343   5.460   5.170  0.1353 -0.2353  0.2030
24377W        W41901   4.268   8.167  14.372 -0.0753 -0.1763  0.0394
24378W        W41902  17.354   3.844  11.813  0.3319 -0.2581 -0.1972
24379W        W41903   9.112  15.801   2.654  0.1102  0.1835 -0.0266
24380W        W41904   2.032   3.780  13.192 -0.2371 -0.2692 -0.0822
24381W        W41905  11.768   3.776  14.590  0.2190  0.1599  0.1037
24382W        W41906  11.939   7.513  10.626 -0.0598  0.0315 -0.0213
24383W        W41907  16.767   3.652   4.557 -0.1375 -0.0142 -0.2034
24384W        W41908  13.990   4.966   2.141  0.3082  0.0759  0.0555
24385W        W41909  17.461  16.415  12.217 -0.0286  0.0134  0.2855
24386W        W41910   2.481   2.430  15.753  0.2289  0.0334  0.2494
24387W        W41911   1.574   2.177  10.445 -0.1147 -0.2864 -0.1402
24388W        W41912   5.437   5.727   4.572  0.3093  0.0238 -0.2781
24389W        W41913   4.379   8.094   0.768  0.3203 -0.0757  0.1405
24390W        W41914  10.204  12.076  12.278 -0.1126 -0.1066 -0.2186
24391W        W41915   6.686   1.143   3.555 -0.1358 -0.1565  0.0274
24392W        W41916   4.268  14.877   5.644 -0.0055 -0.1121  0.0738
24393W        W41917   9.295  17.497  14.071  0.0544 -0.1111  0.1179
24394W        W41918  12.103  13.318   2.973  0.1087 -0.0734  0.1316
24395W        W41919   5.178  16.925   1.224  0.1623  0.0172  0.0777
24396W        W41920   2.498   3.259   4.382  0.1911  0.3230 -0.1459
24397W        W41921   5.079  10.072   2.035  0.1712 -0.2759  0.0808
24398W        W41922   6.063  13.206   2.610 -0.0880  0.0137  0.1312
24399W        W41923  15.811   3.840  12.910 -0.2377  0.0819 -0.0463
24400W        W41924   7.944   3.029  15.694 -0.1631  0.2989  0.0805
24401W        W41925   5.147  10.453  16.052  0.0881  0.1128  0.1124
24402W        W41926  10.985  15.034  15.960 -0.3165 -0.2560 -0.1617
24403W        W41927  17.885   6.372  13.325 -0.1041 -0.4065  0.0161
24404W        W41928   1.930   9.366  13.610  0.1691 -0.1807 -0.0170
24405W        W41929   8.681  10.993   4.542 -0.0689  0.2459  0.0281
24406W        W41930   0.829  11.023  11.774  0.1718 -0.2867  0.0062
24407W        W41931   5.693   9.915  16.199  0.2190  0.0436  0.0580
24408W        W41932  14.358  10.870   2.897  0.2195  0.1578  0.3456
24409W        W41933   0.975  15.281  12.272  0.0839 -0.1502 -0.0368
24410W        W41934   6.424   8.616   1.947 -0.2439 -0.2362  0.2861
24411W        W41935   0.868  14.821   0.861 -0.1996 -0.1262 -0.1282
24412W        W41936  16.294  16.437   4.612 -0.2807 -0.0880  0.2481
24413W        W41937  13.711   3.317   4.655 -0.2018 -0.0445  0.2291
24414W        W41938  16.108   5.750   1.810  0.1364  0.0665  0.0474
24415W        W41939   1.683  12.099   3.731  0.0588  0.0788 -0.3765
24416W        W41940   1.239   4.555  12.058 -0.0127  0.1287  0.1701
24417W        W41941   7.657   3.311  11.291 -0.0178  0.3896 -0.0395
24418W        W41942   1.903  17.245   0.976 -0.0205 -0.0739  0.1006
24419W        W41943  15.972   0.003   0.774 -0.0433  0.0753 -0.2781
24420W        W41944  16.743   7.836   4.752  0.2198  0.0665  0.0628
24421W        W41945   8.508  17.175  12.432  0.1585  0.1521  0.2515
24422W        W41946  12.736  16.089  14.859 -0.0644 -0.0058  0.2647
24423W        W41947  10.084   3.326  11.825  0.2719  0.2643  0.0017
24424W        W41948  13.879   2.392   1.313 -0.0316  0.0730 -0.1669
24425W        W41949  10.319   0.993  11.290  0.2126 -0.2705  0.3289
24426W        W41950   3.721   1.569   4.455 -0.1015  0.3070 -0.1486
24427W        W41951  15.318   8.032   3.665 -0.4761  0.1092 -0.1778
24428W        W41952   7.823  10.419   2.542  0.0104  0.0531 -0.1374
24429W        W41953  15.936  12.188   4.734  0.0843  0.0756 -0.0308
24430W        W41954   4.182  14.508  13.499  0.0020  0.0642 -0.3643
24431W        W41955  14.041  13.551  15.098  0.0189 -0.1755  0.1446
24432W        W41956   0.126  17.828   1.128 -0.0913  0.2413 -0.0609
24433W        W41957  13.712  11.064  13.140 -0.1966 -0.1437 -0.1171
24434W        W41958   7.732   0.795   5.233 -0.1529  0.0938  0.0333
24435W        W41959   6.457   4.868  10.877 -0.0638 -0.0948  0.0005
24436W        W41960   5.244  12.357   1.603 -0.0876 -0.0113  0.1432
24437W        W41961   5.937  10.751  15.139  0.1265 -0.1186 -0.1506
24438W        W41962   2.151   0.129  15.625  0.1836  0.0511  0.0150
24439W        W41963   7.912   7.461  14.065 -0.1538  0.0072  0.2268
24440W        W41964   5.142   6.486  14.158  0.2033  0.0634 -0.1951
24441W        W41965   5.976   2.716  12.723  0.2747  0.1702  0.2021
24442W        W41966  15.992  14.255   2.701  0.0531 -0.3240  0.1328
24443W        W41967   9.519  15.744   3.006 -0.0289 -0.1957 -0.2060
24444W        W41968   9.322   8.375   4.373 -0.0190 -0.0230  0.0071
24445W        W41969   9.080   7.133   3.877  0.1833  0.1225 -0.0103
24446W        W41970  17.408  16.425  11.717  0.0081  0.1079  0.0359
24447W        W41971  13.826   8.250  12.292  0.1142 -0.0264 -0.0007
24448W        W41972   3.668   0.658   1.737  0.0505 -0.0885  0.0053
24449W        W41973   2.337   5.879   2.373 -0.1943 -0.4769  0.0050
24450W        W41974  10.946   7.375   1.539 -0.3799  0.1177  0.1447
24451W        W41975   6.972   8.487  14.613  0.1704 -0.1340  0.0586
24452W        W41976  15.047   4.967   2.307  0.4070 -0.1471 -0.1562
24453W        W41977  10.225   9.430   4.063  0.1902 -0.0032 -0.0607
24454W        W41978   3.684  10.144   2.565 -0.1691 -0.0606 -0.2199
24455W        W41979   8.016   4.398  14.099 -0.1592  0.0086  0.3501
24456W        W41980   9.526   8.807  13.053  0.3353  0.0640 -0.0220
24457W        W41981  16.975  12.979   2.982  0.0380  0.1533  0.0805
24458W        W41982   9.401   3.643  16.237  0.3282 -0.2685  0.1419
24459W        W41983  10.010   3.654   2.319 -0.1032 -0.1911 -0.1247
24460W        W41984   9.788  12.453   4.057 -0.0795  0.0796  0.1756
24461W        W41985   9.426  10.466   1.453  0.0455  0.0796  0.0836
24462W        W41986  13.877  16.666   3.265 -0.1779  0.1990  0.0044
24463W        W41987  13.503   2.009   1.179 -0.1388 -0.1730 -0.1028
24464W        W41988  11.025   1.322   1.965  0.0148  0.0623 -0.0321
24465W        W41989   3.723  16.848   0.770 -0.2264  0.3542 -0.1037
24466W        W41990   2.104   9.418   2.802 -0.1034 -0.2509 -0.1733
24467W        W41991   0.955  13.371   3.701 -0.3210 -0.0585  0.2883
24468W        W41992   5.304  12.608  13.029 -0.0754 -0.0913  0.0067
24469W        W41993   4.452  17.915  15.169  0.2162  0.2162  0.1139
24470W        W41994  11.620   9.925  15.739 -0.1114 -0.0391 -0.0395
24471W        W41995   4.691   7.882   3.616 -0.0497 -0.3919  0.0874
24472W        W41996  13.762   7.941   1.674  0.0430 -0.2011  0.0806
24473W        W41997  12.406   0.442  12.205  0.1939  0.3703  0.2515
24474W        W41998   0.111  10.843  13.531  0.1954  0.2315 -0.1055
24475W        W41999  14.523   5.905   3.240  0.1330 -0.0453 -0.0188
24476W        W42000  13.027   9.037   4.782 -0.1989  0.0242  0.1379
24477W        W42001  15.547   1.937   4.557  0.1588 -0.0006  0.1092
24478W        W42002   9.622  17.514   3.123  0.3829 -0.1073  0.1560
24479W        W42003   1.231  17.533  14.827 -0.2718  0.1450  0.0920
24480W        W42004   4.470  11.830   0.639  0.3670  0.0464  0.0133
24481W        W42005   7.031  10.970   0.672  0.0860 -0.0589 -0.1758
24482W        W42006  12.113   0.360  15.150  0.1764  0.2681 -0.1860
24483W        W42007  10.581   5.618   3.941  0.1027 -0.3257  0.2164
24484W        W42008  13.059   1.105   1.175 -0.3448  0.0954 -0.4962
24485W        W42009   4.512  15.897   2.583 -0.0610  0.0368  0.1901
24486W        W42010  10.088   7.872  11.788  0.2960  0.1919  0.1784
24487W        W42011  16.963   3.709  12.105  0.0519 -0.1785 -0.0389
24488W        W42012   0.340  16.132   1.896 -0.2922 -0.0947 -0.1374
24489W        W42013   0.757   0.640  14.759 -0.2866  0.3878  0.1032
24490W        W42014  16.307   8.056   3.207  0.0022 -0.0059 -0.1740
24491W        W42015   7.646   2.801  13.502 -0.1425 -0.1132  0.0004
24492W        W42016  14.125  11.714  12.567  0.3485 -0.1953 -0.0586
24493W        W42017  10.261   9.192  12.957  0.0398 -0.2548 -0.0258
24494W        W42018  11.686  16.371   4.030  0.0485  0.1561 -0.0425
24495W        W42019   8.329   3.432   4.105  0.1136 -0.0623  0.0408
24496W        W42020  10.661  14.304   3.241 -0.2607 -0.0298  0.1121
24497W        W42021   3.181  14.822  13.622  0.0920 -0.2695 -0.2803
24498W        W42022   9.831   6.214  15.505  0.2948 -0.0312  0.0193
24499W        W42023   8.548  13.781  13.102  0.1186  0.0815 -0.0939
24500W        W42024   0.775   8.373   5.066 -0.0928  0.4237  0.2472
24501W        W42025   5.474  15.416   2.476 -0.0912 -0.0386  0.2702
24502W        W42026  16.705  13.075  15.102 -0.1685 -0.2727  0.0760
24503W        W42027   0.758  16.650  12.358 -0.2276 -0.0578 -0.2623
24504W        W42028  15.910  13.415  11.881  0.1011  0.4219  0.0221
24505W        W42029   5.105  16.952  14.385  0.2501  0.0783 -0.3713
24506W        W42030  15.751   7.656   2.571  0.0640 -0.0304  0.0089
24507W        W42031  15.050  16.191   2.134 -0.1828  0.0210  0.0703
24508W        W42032   2.303  11.650   2.779  0.1841  0.1404 -0.1174
24509W        W42033   8.375   6.804  14.479  0.0423 -0.2215  0.4224
24510W        W42034  17.796  14.598   0.999 -0.4943 -0.2315  0.0092
24511W        W42035   5.152  12.147  15.162 -0.1340  0.1129 -0.1202
24512W        W42036   7.263   0.451  13.092  0.0035 -0.1015 -0.1990
24513W        W42037   6.366   1.993  14.458 -0.2486 -0.4759 -0.0389
24514W        W42038   6.516   8.066   4.911  0.0489  0.2206 -0.0058
24515W        W42039   4.135   6.830   3.724  0.0197 -0.1307  0.0133
24516W        W42040   4.537  14.578   2.980  0.3070 -0.2443 -0.1600
24517W        W42041  16.264  11.801  15.468  0.0027  0.1481  0.1145
24518W        W42042   0.246   2.283  14.943  0.0183  0.0333  0.2819
24519W        W42043   1.397  13.741   0.213 -0.0216  0.0612 -0.1441
24520W        W42044  16.617  12.327  16.110  0.1494 -0.2581 -0.1715
24521W        W42045   3.154  16.196  15.660 -0.2011 -0.1537  0.4592
24522W        W42046   6.882   9.878   0.343  0.1945  0.0595 -0.0960
24523W        W42047  15.396   7.397   2.282 -0.1023  0.2631  0.2363
24524W        W42048  11.674  14.497   3.978 -0.0266 -0.1023 -0.0506
24525W        W42049   2.656   7.998   4.456 -0.0417  0.2499  0.1885
24526W        W42050   1.325   8.223  13.010 -0.0193 -0.0557 -0.1217
24527W        W42051  15.553  14.951   3.013 -0.1192  0.0949 -0.0272
24528W        W42052   0.496  12.532  15.362  0.0034 -0.0976  0.2507
24529W        W42053   7.477  13.435   2.992 -0.2012 -0.0222  0.0735
24530W        W42054   2.983   6.837  13.067 -0.0562  0.0019  0.1809
24531W        W42055   7.405  10.423   4.944  0.2520 -0.1367 -0.0384
24532W        W42056  11.285   2.561  13.000  0.1066  0.2884  0.0838
24533W        W42057   1.640   5.765  14.594  0.1821 -0.0304  0.0597
24534W        W42058   5.391   3.729   1.604  0.1668 -0.0738  0.0583
24535W        W42059   3.706  10.458   1.410  0.1581 -0.1625 -0.0921
24536W        W42060   4.363   6.892  15.164 -0.0397 -0.5865 -0.0601
24537W        W42061   6.004   3.932   0.885 -0.0520 -0.0785 -0.0166
24538W        W42062  15.798  12.442  13.169  0.0534 -0.0932  0.0745
24539W        W42063   6.881   2.512  14.123 -0.0610  0.0281  0.1459
24540W        W42064  17.300  10.246   0.248  0.0442 -0.1285 -0.0338
24541W        W42065  15.908  13.502  13.205 -0.3029 -0.0234 -0.1147
24542W        W42066   7.813   2.615  12.879 -0.0892  0.1684  0.0011
24543W        W42067   9.107   6.841   3.003  0.2532  0.2986  0.1548
24544W        W42068  14.247   6.252   2.293 -0.0512 -0.3993 -0.2421
24545W        W42069  10.462   2.780   0.123  0.3422 -0.3770  0.1819
24546W        W42070  12.237  12.968  13.843  0.1388  0.0588  0.1319
24547W        W42071   6.061   8.764   1.005  0.0222 -0.0975  0.2444
24548W        W42072   9.993   0.945  12.305  0.0270  0.0097 -0.3392
24549W        W42073   9.992   0.880  11.653 -0.0576 -0.1140  0.0846
24550W        W42074  10.174  17.093  10.962 -0.1237 -0.0224  0.1912
24551W        W42075   6.965   2.202  12.800 -0.0309  0.0542 -0.0571
24552W        W42076  16.213  16.447  15.167  0.1351 -0.0167 -0.0676
24553W        W42077   5.027   1.960   3.205 -0.2062  0.0772 -0.2377
24554W        W42078   1.900   1.191   0.841 -0.0373 -0.1572  0.0309
24555W        W42079   8.704   3.474   1.183  0.0856 -0.0436 -0.0013
24556W        W42080  14.551   9.121  13.992  0.1347  0.0096  0.0416
24557W        W42081   5.830  10.949  12.920 -0.0754  0.0291  0.0878
24558W        W42082   9.644  14.119   3.455 -0.1646  0.1458 -0.2389
24559W        W42083  11.774   7.014  10.748  0.2087 -0.2823  0.0604
24560W        W42084   7.744   1.085  14.619 -0.2247 -0.1246  0.1392
24561W        W42085   7.016   9.601  11.421 -0.1672  0.1258  0.2268
24562W        W42086  14.790   1.376  15.665 -0.0715 -0.1473  0.4527
24563W        W42087   9.662  16.567  14.272  0.0378 -0.0050 -0.0259
24564W        W42088   6.922  16.145   0.260  0.3917 -0.2627  0.1662
24565W        W42089  10.436  14.631  15.468 -0.2140 -0.0681 -0.1903
24566W        W42090  13.368   1.269  12.834  0.3452  0.3197 -0.0612
24567W        W42091  12.754   6.873   4.561  0.1222 -0.1131  0.3630
24568W        W42092  13.316  14.681  12.012  0.0726 -0.2070 -0.1488
24569W        W42093   7.699   9.017  15.454  0.1397 -0.0230 -0.2699
24570W        W42094  15.860   8.097   4.425  0.0297 -0.4737  0.0450
24571W        W42095  12.705  11.645  13.592 -0.1008 -0.1065  0.2146
24572W        W42096   7.200  15.541   4.313 -0.1670 -0.1360 -0.2621
24573W        W42097   6.144   4.655   2.029  0.5450  0.2713  0.2571
24574W        W42098  12.782  11.776   3.399  0.3441  0.2740  0.0324
24575W        W42099   9.287  17.253   2.852 -0.2223 -0.0153  0.1730
24576W        W42100  13.503  11.478   1.641 -0.2118 -0.2079 -0.0126
24577W        W42101   0.892   3.050   1.764  0.0814 -0.0570 -0.4138
24578W        W42102   8.520  13.243  15.266 -0.1882 -0.0400 -0.2440
24579W        W42103   4.601  14.092   4.678 -0.1595 -0.2137  0.1952
24580W        W42104   9.183  14.043   4.118 -0.2254  0.0738  0.1450
24581W        W42105   6.628   6.485  12.757  0.0551 -0.0979  0.1458
24582W        W42106   9.393   9.992   2.267 -0.0530  0.0652 -0.0033
24583W        W42107   5.218   6.397   3.745 -0.0175 -0.2211 -0.2458
24584W        W42108  11.399   1.171   2.855  0.0536 -0.1018  0.1253
24585W        W42109   1.175  12.013   1.349  0.1053  0.2562 -0.1076
24586W        W42110   3.200   4.337  14.722 -0.1422 -0.0103  0.1435
24587W        W42111  10.562  16.223  16.091 -0.1438 -0.0490  0.1830
24588W        W42112   4.170   7.768   3.296  0.1433  0.2773 -0.2103
24589W        W42113  15.889  16.144  12.877 -0.0074 -0.1163 -0.2021
24590W        W42114   1.056  15.795  13.698 -0.1050  0.0132 -0.1697
24591W        W42115  11.884   6.109  13.875  0.0385 -0.1957 -0.4503
24592W        W42116  13.217  17.537  14.106  0.0002 -0.1435  0.1287
24593W        W42117   4.723  13.842   1.257  0.2887  0.0588 -0.2775
24594W        W42118  15.491  13.093  10.942 -0.2882 -0.0138 -0.1603
24595W        W42119   4.524   2.019   1.089 -0.1349 -0.0851  0.0767
24596W        W42120   1.753   8.445   4.599 -0.0041 -0.1177  0.2371
24597W        W42121  11.389  16.006  11.191 -0.1168 -0.6184 -0.0084
24598W        W42122   9.053  14.529  13.563 -0.1556 -0.1135  0.0473
24599W        W42123   6.774   9.826  13.481 -0.0183 -0.2604 -0.1555
24600W        W42124  10.702   5.676   3.464 -0.2298  0.3177  0.0422
24601W        W42125  10.307  15.244  15.454  0.0145  0.3767 -0.2026
24602W        W42126  16.090   3.443   2.047 -0.1456 -0.2053 -0.1522
24603W        W42127  16.165   8.789   3.981  0.0006  0.1731 -0.0261
24604W        W42128  13.347  11.273   0.299  0.0591 -0.0569 -0.3326
24605W        W42129   6.689   9.953  11.459 -0.1899 -0.0827  0.1455
24606W        W42130   5.018   1.266  15.540 -0.1190 -0.1080 -0.1002
24607W        W42131   8.702   1.144  14.173 -0.2639  0.1174  0.0208
24608W        W42132   1.059   5.101   2.786  0.2086  0.0144 -0.1661
24609W        W42133  10.050   2.944   1.841  0.1861 -0.0164 -0.0763
24610W        W42134   0.287  16.333  15.960  0.0068  0.5367  0.0129
24611W        W42135   9.584   3.006  13.492 -0.1073 -0.1057  0.0015
24612W        W42136  11.521  11.219  16.005  0.3015  0.2270  0.3633
24613W        W42137   2.988  13.040  12.337 -0.0644 -0.1143 -0.0117
24614W        W42138   5.557   6.788   0.567 -0.1040 -0.0481  0.1219
24615W        W42139  16.544   5.750   3.436 -0.3656 -0.3762 -0.0137
24616W        W42140  16.530   5.239  13.220 -0.1875  0.1346  0.0057
24617W        W42141   5.100  10.192  13.003 -0.0466 -0.0877 -0.0078
24618W        W42142  11.780   1.997  15.007  0.1549 -0.1799 -0.0167
24619W        W42143  15.450  14.135  15.604  0.1945  0.1503 -0.0622
24620W        W42144   2.569   8.796  11.830 -0.1561  0.1849  0.1845
24621W        W42145  15.773  10.921  12.002 -0.2407  0.3092  0.1220
24622W        W42146  13.950  12.609  15.371 -0.3187  0.0201  0.0038
24623W        W42147   0.764   2.875  13.842 -0.1555  0.4180 -0.0875
24624W        W42148  11.948  17.458   1.834  0.4765  0.1295  0.0599
24625W        W42149  10.456   3.096   0.526 -0.1332  0.1033  0.1258
24626W        W42150  17.569   9.445   5.030 -0.0909 -0.1289 -0.0127
24627W        W42151   9.877   3.634  11.116  0.3177  0.0788 -0.3046
24628W        W42152   8.701   6.895   3.436  0.2677  0.0415 -0.0887
24629W        W42153   1.923   4.011  16.132 -0.2342  0.3682  0.2319
24630W        W42154   9.491  17.380   3.666  0.1103 -0.0567  0.1208
24631W        W42155  15.501   7.717  11.857  0.0330  0.0751  0.1482
24632W        W42156   0.322  12.147   1.926  0.2836 -0.0342  0.1201
24633W        W42157  17.672  12.306   4.733 -0.1827 -0.4440  0.2711
24634W        W42158   1.800   9.184  14.283 -0.0485 -0.1773 -0.2115
24635W        W42159  12.590   6.135  14.529 -0.0322  0.0664 -0.1927
24636W        W42160   0.868   2.847   5.159 -0.1116  0.4218  0.0657
24637W        W42161  11.635   7.241  15.742 -0.1800  0.1200 -0.0041
24638W        W42162   7.379  13.967   1.719 -0.2095  0.0236  0.0335
24639W        W42163  10.479  13.285   0.838  0.1627 -0.0567 -0.0394
24640W        W42164  14.324   2.076  16.036 -0.3275  0.0412  0.1688
24641W        W42165  17.784   5.799  13.652  0.0898 -0.3024  0.0846
24642W        W42166   7.544  15.072   2.746  0.2721  0.2582  0.2189
24643W        W42167   2.124  11.256   5.042 -0.1671  0.0820  0.1655
24644W        W42168   0.500   7.951   4.991  0.1630  0.2008 -0.1440
24645W        W42169   8.616   8.232  11.702  0.2188 -0.1234 -0.0771
24646W        W42170  14.915  10.598  11.525  0.0010  0.1803  0.0545
24647W        W42171  12.001   3.900  15.878  0.0796 -0.3154 -0.1597
24648W        W42172   9.330  17.363  10.920 -0.1569 -0.0539  0.1441
24649W        W42173  14.138   4.376  11.468  0.0487 -0.2258  0.1186
24650W        W42174  10.331  13.970  16.254  0.1983 -0.0177 -0.1997
24651W        W42175  14.333  14.298  14.538 -0.0565  0.0855 -0.0121
24652W        W42176  12.639   7.044   0.309 -0.0361  0.0850 -0.0713
24653W        W42177   3.522  12.756  16.101  0.0878 -0.1633  0.1224
24654W        W42178   2.877   5.322  15.208 -0.0133 -0.1162 -0.6045
24655W        W42179   7.559   1.426   2.166  0.1366  0.0581 -0.0960
24656W        W42180   7.394  14.577   3.986  0.0751  0.0330 -0.0858
24657W        W42181  16.240   6.679   5.067 -0.0196 -0.1119  0.1228
24658W        W42182  14.559   8.888  12.423 -0.0755 -0.1868 -0.0952
24659W        W42183   2.754   6.941   1.819 -0.0756 -0.0861  0.2600
24660W        W42184   9.134  14.501  16.072  0.2680 -0.2364 -0.2144
24661W        W42185   9.128   5.420   3.566  0.3745  0.0106 -0.0463
24662W        W42186   5.888   9.875   4.104  0.1058 -0.0757  0.0338
24663W        W42187   2.627  14.934   0.271 -0.2083  0.0997  0.0017
24664W        W42188   1.856  12.483   4.917  0.1681 -0.2840 -0.0050
24665W        W42189  10.954  13.457   0.606 -0.0314  0.0744 -0.1563
24666W        W42190   5.955  15.767   1.920  0.2489 -0.1238  0.1273
24667W        W42191   2.810  14.652  15.162 -0.1539  0.1701  0.3673
24668W        W42192  11.571  11.396   2.800  0.2562 -0.1632 -0.1763
24669W        W42193   9.963   6.710   1.937  0.0824 -0.1652  0.2963
24670W        W42194   0.868  13.560   2.181 -0.0061  0.0923  0.2290
24671W        W42195  17.818   4.682  11.561 -0.1166 -0.1862 -0.1158
24672W        W42196   8.469   9.781   5.587 -0.3205 -0.0255  0.1562
24673W        W42197   2.032   1.186   1.354  0.2923  0.2179 -0.3863
24674W        W42198  12.680  16.511  13.279  0.3204 -0.1624  0.2282
24675W        W42199  13.309  12.972  11.564  0.1004 -0.2221 -0.0034
24676W        W42200   8.496   1.883  15.774  0.0981 -0.0887 -0.2590
24677W        W42201   2.335  13.089  13.547 -0.0397  0.4017  0.0756
24678W        W42202  14.212   1.977   3.200  0.1239 -0.0249 -0.0697
24679W        W42203   5.518  16.929   3.761  0.1524 -0.0537  0.0519
24680W        W42204  17.276  12.211  11.601 -0.0428 -0.3465  0.0642
24681W        W42205   3.437   8.260  13.848 -0.1611  0.2744 -0.0497
24682W        W42206   8.887   1.195   0.688 -0.1193  0.0647 -0.0789
24683W        W42207   9.893   3.900  12.671  0.1301  0.0480 -0.0607
24684W        W42208  14.037   1.307  14.683 -0.3808  0.0017  0.0253
24685W        W42209   8.524   3.717   0.353 -0.1507  0.1001  0.2512
24686W        W42210  10.846  14.577  11.228 -0.2702 -0.3774  0.1710
24687W        W42211   1.018   7.792   2.868 -0.1121 -0.1532  0.1736
24688W        W42212   9.657   1.851   2.249  0.0743 -0.0545  0.2415
24689W        W42213   1.214   3.686  11.917  0.3307 -0.2621 -0.1281
24690W        W42214   3.452   3.997   1.412  0.0213  0.1291 -0.2215
24691W        W42215  17.656  14.031   3.431 -0.0731  0.0027 -0.0648
24692W        W42216  16.888   2.911   5.098 -0.1328 -0.1184 -0.0728
24693W        W42217   0.809  10.723  13.227  0.0379  0.1700  0.1328
24694W        W42218  16.762   0.911  14.582 -0.0892 -0.2861  0.0366
24695W        W42219  17.132  16.001  12.249 -0.2072 -0.2220  0.1306
24696W        W42220   9.273  10.435  13.916 -0.1529 -0.1122  0.0018
24697W        W42221   5.770  11.897  11.975 -0.0296 -0.0315 -0.2274
24698W        W42222   7.149   3.187   0.322 -0.0773 -0.3686  0.4037
24699W        W42223   9.729  10.908   2.183 -0.0081  0.1804  0.0496
24700W        W42224  16.843   9.284   2.054  0.1245  0.0305 -0.1252
24701W        W42225  16.247  11.403   0.572 -0.0514  0.2808 -0.1808
24702W        W42226  11.092   5.697   1.732 -0.3491 -0.4263 -0.1544
24703W        W42227   5.795   7.012  12.614 -0.0506  0.0218  0.3301
24704W        W42228  13.720  17.521   2.073 -0.0978 -0.1237 -0.1083
24705W        W42229   7.000   6.627  13.263 -0.1899  0.1138  0.2275
24706W        W42230   7.191   3.830  16.010 -0.1606 -0.1379 -0.2555
24707W        W42231   1.655  15.338  11.657 -0.0298  0.0414 -0.1599
24708W        W42232   8.884   7.770  11.987 -0.2189 -0.0812  0.0713
24709W        W42233   4.696  13.302  15.557  0.0528  0.1739 -0.0418
24710W        W42234   0.781  14.085   4.231  0.3799  0.4279 -0.2376
24711W        W42235   5.487  10.261  13.418  0.0180 -0.3913 -0.0597
24712W        W42236  16.603   0.125  15.005 -0.0231 -0.2773 -0.2041
24713W        W42237   1.022  16.383   4.343  0.0130 -0.2005 -0.0361
24714W        W42238   6.759  15.887   2.581 -0.0968  0.0788 -0.2651
24715W        W42239  11.789  14.372  11.142  0.0034  0.3445 -0.0451
24716W        W42240   3.854  10.198  12.757  0.0685  0.0080 -0.1770
24717W        W42241   2.767   8.366   4.150  0.0525 -0.0318 -0.3490
24718W        W42242   7.772   9.656  13.091  0.3277  0.1007  0.2096
24719W        W42243   1.456  10.082  10.408 -0.2714 -0.2293  0.2164
24720W        W42244  10.473   8.879   3.015 -0.1128 -0.1986  0.2746
24721W        W42245   7.912   5.657  13.987 -0.3374 -0.1393  0.1585
24722W        W42246  13.226  14.042   1.823  0.0092 -0.1300 -0.4671
24723W        W42247  13.309  12.976   2.411  0.1085 -0.0708  0.1925
24724W        W42248   3.828  10.284   0.240  0.0149  0.0494  0.1169
24725W        W42249   1.042   4.441  15.272  0.1706  0.0436  0.0986
24726W        W42250  10.758   7.519  13.122 -0.1737  0.0605 -0.1039
24727W        W42251  13.201  12.042   3.316  0.2021 -0.1711 -0.0442
24728W        W42252   7.985   4.085  13.086 -0.1529 -0.4009  0.1421
24729W        W42253   3.382   0.898   4.991 -0.0916  0.0928  0.1913
24730W        W42254  16.338  17.039   0.006  0.3340 -0.1488 -0.1798
24731W        W42255   8.705  17.682   0.175  0.0895 -0.0548  0.0176
24732W        W42256  12.641  13.656   0.917  0.2333 -0.0747  0.0753
24733W        W42257   9.627  15.844   6.168 -0.2481 -0.1110 -0.1336
24734W        W42258   5.074   4.690  11.671 -0.0762 -0.0832 -0.3192
24735W        W42259  14.488   4.238   2.654 -0.0592  0.0884 -0.2221
24736W        W42260   9.112   7.233   0.886  0.0434 -0.2283 -0.1809
24737W        W42261  16.721  14.606  13.030  0.1046  0.0145  0.0100
24738W        W42262   6.945   5.633  13.891  0.0925  0.2089 -0.0398
24739W        W42263   2.568   6.944   2.723  0.1141 -0.2377 -0.1985
24740W        W42264  12.097  17.250  14.201 -0.1225  0.1549  0.1026
24741W        W42265  12.344   9.735  15.184  0.1924  0.0017  0.1358
24742W        W42266   0.124  15.271  15.768  0.4642  0.1471  0.0115
24743W        W42267   8.500   0.259  11.704 -0.0455  0.2608 -0.0139
24744W        W42268   9.365  14.976   0.498  0.0543 -0.2237  0.1055
24745W        W42269  11.299   3.380   1.556 -0.3224 -0.0619 -0.1277
24746W        W42270  10.278   7.533  12.103  0.0465  0.2765  0.0642
24747W        W42271   0.893  13.294  15.412 -0.2934  0.2441 -0.0036
24748W        W42272   4.276   8.464  10.717  0.0522 -0.1993  0.0193
24749W        W42273  11.991   1.929   1.653  0.3037 -0.2062 -0.1063
24750W        W42274   5.321   3.764  12.073 -0.2352  0.3890  0.1201
24751W        W42275   3.163   7.328  13.642 -0.1188  0.1770 -0.0360
24752W        W42276  12.031   7.475  14.988  0.1482 -0.1542  0.0942
24753W        W42277   9.792  13.707  12.681  0.1455 -0.2183 -0.0447
24754W        W42278   8.159   9.708   1.601  0.0765  0.1293  0.1119
24755W        W42279   4.552   5.901   1.799 -0.1196 -0.1103  0.0095
24756W        W42280  15.650   8.746   3.966  0.2008 -0.2813 -0.2572
24757W        W42281   0.245   4.055  11.219  0.0773  0.1955  0.3571
24758W        W42282   6.388   8.137   5.733  0.3406 -0.0263  0.1273
24759W        W42283   1.663  10.524  14.174 -0.0423 -0.2172  0.0272
24760W        W42284   1.705   5.384  15.008 -0.1320  0.1212 -0.2131
24761W        W42285  13.236  12.143  13.164  0.0725  0.3024 -0.0774
24762W        W42286   6.464   3.613  14.310 -0.1482  0.0553 -0.3220
24763W        W42287  10.902  13.635  12.134  0.0181 -0.0562 -0.2178
24764W        W42288   2.282   6.754  12.279 -0.0751  0.1542 -0.2660
24765W        W42289  10.289   3.296   5.834  0.0754  0.2224 -0.2786
24766W        W42290   5.844  17.224  13.296 -0.0972  0.2000  0.1387
24767W        W42291  10.239   2.417  12.993  0.3318  0.3139  0.1848
24768W        W42292  13.051  11.749   2.459 -0.1885  0.0258 -0.3109
24769W        W42293   0.317   5.338  12.514 -0.0511 -0.0186 -0.2330
24770W        W42294  13.608   2.411   0.866 -0.0577 -0.0223 -0.0921
24771W        W42295  11.277  13.730   0.864  0.1143 -0.1094 -0.2142
24772W        W42296   4.465   7.244  13.152 -0.2398 -0.0348 -0.0394
24773W        W42297   4.647  15.178   0.676 -0.2436 -0.0744  0.1664
24774W        W42298  13.390  10.092   3.074  0.1193 -0.1437 -0.0889
24775W        W42299   5.281  16.586   3.409 -0.1110  0.2171 -0.2123
24776W        W42300  11.848  11.318   1.993  0.0060 -0.2336 -0.3186
24777W        W42301  17.284   9.607   0.752  0.1875  0.1787  0.0888
24778W        W42302  15.364   4.856   4.898 -0.0276  0.1318  0.0372
24779W        W42303   3.896   7.557  10.731  0.1587  0.2428 -0.2757
24780W        W42304   0.129  14.960  16.258  0.4227 -0.1916 -0.2405
24781W        W42305  16.779   9.479  16.136 -0.2258  0.1773  0.1059
24782W        W42306  14.375  11.276   3.680  0.0563 -0.1055 -0.3536
24783W        W42307   1.351  10.696  14.631  0.1455 -0.1047 -0.0410
24784W        W42308   3.651   8.752  13.812  0.0746  0.3459  0.2801
24785W        W42309   8.970  14.420  11.716 -0.0267  0.0165  0.1262
24786W        W42310   0.574   7.263   5.612 -0.1609  0.1063  0.0666
24787W        W42311   4.317  10.074  12.579  0.2317  0.3761  0.2264
24788W        W42312   9.865   8.946  15.740 -0.1778 -0.0182 -0.0519
24789W        W42313  14.463  12.642   0.513  0.0757  0.0265 -0.1013
24790W        W42314   2.461  12.537  11.776  0.0709 -0.0018  0.1692
24791W        W42315  13.075   4.616  12.766 -0.1854  0.1565  0.0763
24792W        W42316   8.966   1.708  13.946  0.2508  0.1366 -0.0053
24793W        W42317  11.214   6.629  14.754 -0.1676 -0.2202 -0.2157
24794W        W42318  14.252  11.114  15.801 -0.0431 -0.0273 -0.0693
24795W        W42319   6.942  13.865  11.595  0.0610 -0.0000 -0.1004
24796W        W42320   1.670  12.792   2.564  0.0920 -0.3058 -0.1748
24797W        W42321   0.010  16.938   3.117  0.1532  0.0375  0.2238
24798W        W42322   7.147   4.873   5.814  0.1456 -0.1049 -0.1476
24799W        W42323   3.566  17.745  15.306 -0.0142  0.2679 -0.1850
24800W        W42324   8.039  16.350  13.430  0.2714 -0.3088 -0.1494
24801W        W42325   1.798   8.602  16.065 -0.0782 -0.1813 -0.0001
24802W        W42326   2.605  10.993  14.663  0.3082  0.3568  0.2096
24803W        W42327   1.923   8.416  11.655 -0.2321  0.0103  0.3879
24804W        W42328  17.667   7.102   3.800 -0.1834 -0.1045 -0.1993
24805W        W42329   8.935   6.527  12.510 -0.0425 -0.0272  0.0556
24806W        W42330   7.016   7.709  13.318  0.1053  0.0986  0.1566
24807W        W42331  12.780  16.292  12.766 -0.0029 -0.0993  0.2126
24808W        W42332  13.134  16.446   3.406  0.1937 -0.1148 -0.3189
24809W        W42333  10.913  13.930   6.030 -0.0449 -0.0101 -0.1029
24810W        W42334   0.058   1.827   3.077 -0.0635 -0.0327 -0.2382
24811W        W42335  11.675   8.647  14.403  0.1503 -0.1623 -0.0818
24812W        W42336   1.989  15.673  14.281 -0.0122 -0.2018  0.1966
24813W        W42337  12.032  11.177   5.393 -0.0656  0.0543  0.0187
24814W        W42338  15.191   7.067  12.344  0.2154 -0.1350 -0.2233
24815W        W42339   6.610   0.933  13.484 -0.1055  0.0153  0.0442
24816W        W42340  12.280  12.511  15.511 -0.0049  0.1514  0.4869
24817W        W42341  12.226  13.692   4.255  0.0602  0.0478 -0.0645
24818W        W42342  16.092  12.472   1.383  0.1219  0.2823  0.0173
24819W        W42343   5.090  11.014   3.371 -0.0004 -0.0440  0.1301
24820W        W42344   1.117  16.294  12.089 -0.3293 -0.0097 -0.0034
24821W        W42345   8.260  17.468   0.207  0.0925  0.0261  0.1233
24822W        W42346   9.001   1.132  10.944 -0.2348  0.4603 -0.1315
24823W        W42347   5.362  10.992   2.289 -0.1352 -0.0279  0.0544
24824W        W42348  15.553   4.404   4.758  0.0597 -0.1827  0.0965
24825W        W42349  16.753  13.933   1.882  0.2656  0.0019 -0.1723
24826W        W42350   7.254   9.029   3.154 -0.2695  0.0806  0.1235
24827W        W42351  16.310  10.786   4.802  0.1130 -0.0242  0.1297
24828W        W42352  16.701   1.641  14.210 -0.0519  0.4278  0.0894
24829W        W42353  13.249   6.846  10.479  0.1004 -0.0233  0.1327
24830W        W42354   8.811   0.539  11.306 -0.2095  0.1023 -0.0637
24831W        W42355  11.445  13.796  15.668 -0.0441  0.1426  0.1199
24832W        W42356  14.236  13.438  11.285 -0.3209 -0.4003  0.0953
24833W        W42357   5.367   9.236   6.048  0.0893  0.0188  0.1147
24834W        W42358  16.933  13.382  13.344 -0.1777 -0.1975 -0.0689
24835W        W42359   7.999  12.280  13.237  0.1432  0.3779  0.1762
24836W        W42360  13.373   4.865  12.389  0.3069  0.1437 -0.1341
24837W        W42361   6.649  14.673  13.874 -0.0130 -0.0369  0.1716
24838W        W42362   6.024   2.402  13.177  0.0884  0.0276 -0.1863
24839W        W42363   4.574  14.907  15.342  0.1062 -0.2708  0.0293
24840W        W42364   4.012   2.917  14.358 -0.1849 -0.5618  0.0601
24841W        W42365  14.724   7.921   2.657 -0.3451  0.0787 -0.0792
24842W        W42366  15.944   7.063  11.010 -0.1496 -0.0649  0.1832
24843W        W42367   9.384  12.397  12.400 -0.2266  0.1140 -0.1192
24844W        W42368   7.553  11.315   0.077  0.0683 -0.1607 -0.1452
24845W        W42369   0.546   7.070  12.643  0.2960  0.1026  0.0647
24846W        W42370  12.522  16.160  14.413  0.0419  0.4446 -0.0870
24847W        W42371  16.417  10.771  15.222  0.1394  0.1832  0.0850
24848W        W42372  13.685  14.164  16.201  0.2411  0.0821 -0.0078
24849W        W42373   7.770   8.492   0.543 -0.2234  0.0787  0.3385
24850W        W42374  16.155   9.423  11.782 -0.0164 -0.3044 -0.0031
24851W        W42375  12.585   8.324   4.125  0.1720  0.2335 -0.1165
24852W        W42376  15.160   0.624  14.709 -0.0881  0.1301 -0.0822
24853W        W42377  17.540   7.403  12.555  0.3134  0.0930 -0.1864
24854W        W42378  16.469  17.400  13.216 -0.2259  0.4201 -0.0091
24855W        W42379  16.565   6.444   5.377 -0.1382  0.0131  0.3425
24856W        W42380  11.623   2.855  15.232 -0.3530 -0.0799  0.0308
24857W        W42381  15.216   2.296  15.502  0.2834  0.3492  0.1442
24858W        W42382  10.980   4.682  11.063  0.2353 -0.4634  0.1010
24859W        W42383   8.435  10.902  14.391  0.0001 -0.3582 -0.1303
24860W        W42384   1.902   3.825   0.943 -0.0517 -0.1787 -0.0669
24861W        W42385   5.406   3.864  12.587  0.2008 -0.3363 -0.0808
24862W        W42386   4.706   9.643   3.106 -0.0345 -0.1809 -0.1080
24863W        W42387   0.413   4.128   1.939 -0.1856  0.0456  0.3441
24864W        W42388   9.399  14.015   2.015  0.2493  0.0234  0.1745
24865W        W42389   8.729   6.985  14.143  0.1844  0.0432  0.1386
24866W        W42390  16.148   2.946  13.163 -0.2627 -0.0161  0.1190
24867W        W42391   4.388  12.772  14.829  0.1465  0.2952  0.0667
24868W        W42392  15.300   0.467   3.410  0.0543  0.0875 -0.0322
24869W        W42393  12.274   5.370   2.338  0.1702  0.1792 -0.0756
24870W        W42394   6.332  15.326  14.658  0.0356 -0.2429 -0.1659
24871W        W42395   3.514  11.503   2.230  0.0872  0.2542  0.2338
24872W        W42396  13.434   7.855   3.856  0.0598  0.1871 -0.0590
24873W        W42397   7.120   8.263   4.383  0.2605 -0.0775 -0.1176
24874W        W42398   4.580   4.175   1.639 -0.2024  0.1352  0.1777
24875W        W42399   0.155  16.961   4.921  0.2697 -0.5471  0.0660
24876W        W42400  15.091  15.838  15.621 -0.0385 -0.0550  0.0781
24877W        W42401  15.091  11.005  12.587  0.0095  0.0283 -0.0538
24878W        W42402  13.667   3.885   1.486 -0.2427 -0.0953  0.0653
24879W        W42403   6.364   2.433   0.357 -0.0700  0.0312 -0.1385
24880W        W42404  16.200   9.089  12.789 -0.1026  0.1535  0.2192
24881W        W42405   6.129  16.469   2.650 -0.1124 -0.2574 -0.0712
24882W        W42406   0.929   7.868  15.223  0.2879 -0.0208  0.2560
24883W        W42407  14.484  13.990  12.319 -0.0768 -0.2826  0.1603
24884W        W42408   9.781   9.307   1.801  0.0749 -0.1614  0.1208
24885W        W42409   3.781  15.485  13.256 -0.0797 -0.1465  0.1374
24886W        W42410  15.414   9.160  13.669 -0.1178  0.0889 -0.0610
24887W        W42411   6.767  17.324   0.870 -0.2017 -0.2253 -0.0842
24888W        W42412   2.286  17.322   3.354 -0.0020 -0.0570 -0.2240
24889W        W42413  10.723  10.859  15.403  0.0079 -0.0786  0.0099
24890W        W42414   5.102   1.206   2.614 -0.1345  0.2187  0.1704
24891W        W42415   4.741   8.799  12.933  0.0711  0.3419 -0.0590
24892W        W42416  12.937  14.525  12.600  0.1079  0.2548 -0.0962
24893W        W42417  15.946   8.889  15.120 -0.3913  0.2873  0.3952
24894W        W42418   2.369   1.098   3.807  0.0600 -0.0216 -0.1247
24895W        W42419  17.843   2.029  12.904  0.0920 -0.2094 -0.0315
24896W        W42420   8.150   6.334   3.170 -0.1607  0.0824  0.0549
24897W        W42421  16.397   5.006   1.644 -0.1571  0.0866  0.0908
24898W        W42422   1.220  13.920   2.886 -0.0340 -0.0328  0.0580
24899W        W42423   9.485   7.083  16.005 -0.1922 -0.1077 -0.1147
24900W        W42424   3.572  14.041  16.028  0.1757  0.1290  0.1748
24901W        W42425   3.411   4.136  15.862  0.1529 -0.0255 -0.1278
24902W        W42426   9.205   7.083  14.631  0.0114 -0.0015  0.0692
24903W        W42427  17.672   0.865  13.158 -0.1023 -0.2917  0.1372
24904W        W42428   3.923   9.791  14.500 -0.2644  0.1132  0.0462
24905W        W42429  10.197   9.063   2.504 -0.0928 -0.1598  0.0770
24906W        W42430  14.860  16.334  12.363 -0.0440 -0.1017  0.0535
24907W        W42431  17.152   6.129  12.030 -0.0196 -0.0917 -0.2041
24908W        W42432  12.712   8.837   0.997  0.1213  0.1987 -0.1685
24909W        W42433   3.549  11.435  11.842 -0.1873  0.1192  0.1754
24910W        W42434  10.686  17.839   2.103 -0.1204 -0.0464 -0.0632
24911W        W42435   7.073   8.816  13.815  0.0924 -0.0586 -0.2022
24912W        W42436  10.858   4.918  13.628  0.0790  0.0036 -0.2168
24913W        W42437  12.903  10.634  14.457  0.3164 -0.0477 -0.4483
24914W        W42438   7.200   0.444  16.122  0.2054 -0.0030 -0.0730
24915W        W42439   5.429   9.097  14.416 -0.1907 -0.0452 -0.3074
24916W        W42440  15.587   2.879   2.613  0.1713  0.0460  0.1445
24917W        W42441   1.656  13.748  12.666 -0.4008 -0.1748  0.0029
24918W        W42442   8.100   3.101  13.566 -0.0803  0.1415  0.1632
24919W        W42443   8.510   0.514   3.186  0.1043  0.0086  0.3305
24920W        W42444   9.786  17.579  15.861  0.0243  0.3613 -0.2205
24921W        W42445   3.299  17.048  12.142 -0.0872  0.3221 -0.1429
24922W        W42446  10.014   6.506   3.436  0.2222  0.0266 -0.1128
24923W        W42447   7.618   6.356   4.613  0.2992  0.0205  0.1298
24924W        W42448  14.393   5.447  16.028  0.0321 -0.6128 -0.1650
24925W        W42449  16.768  10.991   3.658 -0.0486 -0.1792  0.1482
24926W        W42450   9.128   8.299  13.970  0.0575  0.0585  0.2332
24927W        W42451  13.757   5.536   2.365  0.1392 -0.0259  0.0383
24928W        W42452  12.451   2.562  15.357 -0.1762  0.0949 -0.2810
24929W        W42453  13.655   1.459  11.962  0.1063  0.0079  0.1879
24930W        W42454  13.169  14.769  16.120  0.0741 -0.3341  0.0562
24931W        W42455   1.714  13.137   5.641 -0.0124 -0.0892  0.3384
24932W        W42456  16.726   7.717  11.259 -0.1444 -0.1209  0.0267
24933W        W42457  15.884   7.141  15.243 -0.2506 -0.3435 -0.0896
24934W        W42458  16.442  10.060   2.390  0.1396  0.5996  0.0645
24935W        W42459   0.670   9.285   5.817  0.0072 -0.0729 -0.1734
24936W        W42460   3.776  16.047   3.437 -0.4425  0.3768 -0.3919
24937W        W42461   6.205  17.717   4.599  0.3820  0.2428  0.1018
24938W        W42462  15.275  17.931  12.951 -0.0057  0.0165 -0.0384
24939W        W42463   5.625  14.396   1.749  0.2523  0.1006  0.1890
24940W        W42464   8.408   5.072  14.090 -0.0868 -0.1131 -0.0842
24941W        W42465   2.240   5.282  15.032 -0.2723  0.0186 -0.0192
24942W        W42466   0.123   6.198   3.253  0.0195  0.1995 -0.1375
24943W        W42467   1.086   0.060  15.621 -0.1303  0.0112  0.0172
24944W        W42468  14.322   7.372   4.278  0.1824  0.0063 -0.0318
24945W        W42469   8.787   5.195   0.592 -0.1615  0.0171  0.0971
24946W        W42470   6.967   4.025  11.751 -0.1848 -0.0497 -0.0305
24947W        W42471   4.414   4.286   4.240 -0.2525 -0.1172 -0.3642
24948W        W42472   2.325   7.176  12.483  0.2788  0.0320  0.1773
24949W        W42473  15.501  11.471   0.180 -0.4482  0.5118 -0.2040
24950W        W42474   1.550  14.930   1.564 -0.1188 -0.2814 -0.1160
24951W        W42475  12.081   8.907   3.929  0.0875 -0.4266 -0.0775
24952W        W42476   9.527   6.398  13.748  0.0778  0.2435 -0.1047
24953W        W42477   9.512  10.360   0.632 -0.0611 -0.0413 -0.0247
24954W        W42478   4.980  17.073   2.963 -0.2829  0.1589  0.1343
24955W        W42479   7.572   8.384   4.541  0.0183 -0.4289 -0.4086
24956W        W42480   9.673   9.423  14.814  0.4012 -0.1989  0.4139
24957W        W42481   7.026   6.015  15.020 -0.3201  0.3254 -0.0246
24958W        W42482   5.521   9.156  15.721  0.2429 -0.1766  0.0259
24959W        W42483   1.890   4.793   4.456 -0.0528  0.2324  0.2000
24960W        W42484  17.873  12.783   2.827 -0.0049  0.0366  0.1468
24961W        W42485   1.406   9.758   3.763 -0.1208 -0.1681  0.1491
24962W        W42486  12.023   0.924   4.144  0.1165 -0.0416  0.0317
24963W        W42487  14.954  17.396   2.848  0.0570  0.2770  0.1336
24964W        W42488  15.477  12.929  11.928  0.0907 -0.2668  0.1023
24965W        W42489   1.747  13.794  13.201 -0.1382  0.1729  0.1509
24966W        W42490   3.750   5.091  12.995 -0.1327  0.0122 -0.0309
24967W        W42491   2.928  14.864  14.697 -0.4821  0.0037  0.1763
24968W        W42492  14.548   4.356  15.491  0.0222 -0.0127 -0.0240
24969W        W42493   4.259   0.023   4.649 -0.1902 -0.0806 -0.4146
24970W        W42494   8.728  15.082   4.449 -0.3923 -0.1136  0.1454
24971W        W42495   0.488   3.583  12.462  0.1615  0.0251  0.0639
24972W        W42496  16.164  13.092   0.840 -0.0686  0.0747 -0.1219
24973W        W42497  14.326   8.022  14.559 -0.1388 -0.1099 -0.0737
24974W        W42498  17.371  14.425   4.542  0.1953  0.1768  0.1080
24975W        W42499   8.157   4.221   2.728  0.3310  0.0032  0.0960
24976W        W42500   8.750   8.340   2.609  0.2104 -0.0045  0.1213
24977W        W42501  15.097  15.256   2.129  0.3880 -0.1195 -0.3088
24978W        W42502  12.769  12.572  11.414  0.0978 -0.0061 -0.2480
24979W        W42503   3.044   1.433   0.235  0.0582  0.2702  0.0089
24980W        W42504  14.575   2.911   2.793 -0.1190 -0.3143 -0.1412
24981W        W42505   8.252   3.588  11.695  0.3597 -0.2023  0.0299
24982W        W42506   2.346   2.610  12.236 -0.0643  0.2970  0.3461
24983W        W42507  15.833   6.442  10.965 -0.0553  0.0685  0.3157
24984W        W42508  12.986  16.543  15.999 -0.1680 -0.0760 -0.0932
24985W        W42509   5.816  10.489  11.540  0.2299 -0.0040 -0.1224
24986W        W42510   5.584   4.704   2.064 -0.1677 -0.0522 -0.0781
24987W        W42511   4.355  13.542   3.891  0.0434  0.0669  0.1362
24988W        W42512   4.288  11.721  15.153 -0.0230 -0.1965  0.1245
24989W        W42513  14.825   3.503  15.410  0.1474 -0.1446  0.2023
24990W        W42514   1.460  17.576   4.623  0.0760  0.0472 -0.1283
24991W        W42515   2.489   3.732  14.808  0.0031  0.2944 -0.1964
24992W        W42516  17.861   2.723   5.134  0.1607  0.1863 -0.1733
24993W        W42517  16.494   7.631  14.890 -0.1351  0.2834 -0.0963
24994W        W42518   7.360   5.500   4.399 -0.0224 -0.0997  0.1729
24995W        W42519  11.169   9.348   0.950  0.1815 -0.0168 -0.2014
24996W        W42520  17.484  12.127  15.846  0.2116  0.0045  0.1709
24997W        W42521  13.388  12.340  11.603 -0.0358 -0.1056  0.0949
24998W        W42522   4.292   5.709   2.487 -0.2721 -0.0535 -0.1254
24999W        W42523  10.443   0.081  16.036  0.1240  0.1047  0.2653
25000W        W42524  17.710   3.464   4.759 -0.0101 -0.0204  0.0912
25001W        W42525   5.173   0.318   2.387 -0.1745 -0.0183  0.0824
25002W        W42526   5.720  14.794   3.288  0.0106  0.1331 -0.1562
25003W        W42527  11.341   6.551   1.591 -0.2794  0.0106 -0.2580
25004W        W42528  15.460  13.460  11.623  0.2832  0.1416  0.0507
25005W        W42529  11.310  10.454   2.866  0.3595  0.2964  0.0568
25006W        W42530   2.349  12.193   2.558  0.2224  0.0484 -0.2082
25007W        W42531   4.422   6.031  14.968 -0.3312 -0.0374  0.0662
25008W        W42532   8.108  13.638   2.827 -0.0175 -0.3933 -0.0474
25009W        W42533  13.558   5.886  11.890 -0.0009  0.0078 -0.0266
25010W        W42534  16.837   7.807  15.598 -0.2316  0.0225 -0.1410
25011W        W42535   1.226  14.353  11.444 -0.3003 -0.0727  0.1241
25012W        W42536  17.452   0.293   0.404  0.1714  0.2091  0.0704
25013W        W42537  15.016   1.926   0.749 -0.0057  0.0126 -0.0910
25014W        W42538  17.549   1.812  15.631  0.2635  0.0197 -0.0342
25015W        W42539   3.047  11.119   3.038 -0.0110 -0.0727  0.1417
25016W        W42540   4.526  15.049   4.283  0.1525  0.4436 -0.2575
25017W        W42541   3.949  11.451  14.856 -0.1452 -0.0046 -0.3788
25018W        W42542   3.559   2.855   3.422 -0.3215  0.1390  0.1117
25019W        W42543  11.718  14.441  13.817 -0.2766 -0.0014 -0.2033
25020W        W42544   3.874  16.620   1.667 -0.1385 -0.0399 -0.0548
25021W        W42545   9.051   9.478   1.491 -0.1201  0.1922 -0.1473
25022W        W42546  13.872   7.964  16.090 -0.3465 -0.0856  0.2954
25023W        W42547  16.350   8.355   1.557  0.3125 -0.1952 -0.0851
25024W        W42548  15.351   8.479  15.780  0.1111  0.0546  0.0479
25025W        W42549  15.829   2.285   0.930  0.0618  0.0474 -0.1048
25026W        W42550  10.843   0.971   0.323  0.0207 -0.0838 -0.1069
25027W        W42551   8.833  10.557  15.789  0.1086  0.0543  0.1044
25028W        W42552   5.712   0.248  11.704 -0.1107  0.0634  0.0091
25029W        W42553  10.560   8.896  15.181  0.1598  0.2062 -0.3190
25030W        W42554  12.379   6.737  14.717  0.2339  0.1481  0.0648
25031W        W42555  12.883   8.473  12.533 -0.2411 -0.2769 -0.3135
25032W        W42556  11.654   8.083  15.066 -0.0234  0.1228  0.0189
25033W        W42557   2.186   6.031  10.801 -0.1453  0.0194 -0.0640
25034W        W42558   7.130  14.130   3.878  0.0565 -0.2452  0.1724
25035W        W42559  17.633  15.006  15.828  0.0588 -0.3144  0.0807
25036W        W42560   9.823   1.488  12.388 -0.0632 -0.3738  0.1097
25037W        W42561  11.890  11.069  15.123 -0.0228 -0.1095 -0.1091
25038W        W42562  12.370  11.231  15.261 -0.2132  0.0749  0.0403
25039W        W42563   3.683   1.840   3.577  0.4347 -0.1195 -0.2020
25040W        W42564   1.492   6.369  12.851  0.0866 -0.2633  0.0699
25041W        W42565  13.328   2.069   0.692  0.0041 -0.1478 -0.0383
25042W        W42566  16.485  15.930   0.582 -0.5701  0.0675  0.3634
25043W        W42567   3.167  14.694  12.975  0.0945  0.1277  0.1357
25044W        W42568   4.203   3.963   1.902 -0.1117 -0.0686  0.2071
25045W        W42569   9.548   9.735  15.257 -0.2467  0.1005 -0.0447
25046W        W42570  13.439   0.983  12.034  0.1039  0.1332  0.0258
25047W        W42571  10.232  16.693   4.245  0.0480 -0.1852 -0.0451
25048W        W42572   9.379   3.158  13.934  0.2474 -0.0499 -0.0610
25049W        W42573   9.080   2.219  12.079  0.2120  0.2321 -0.1389
25050W        W42574   8.623   0.872  15.088  0.1921 -0.0200 -0.0136
25051W        W42575  12.793   2.164  10.294 -0.0782  0.1093  0.2458
25052W        W42576  12.501   0.853   0.165  0.3900 -0.1598  0.0377
25053W        W42577  10.331  13.768   0.969  0.1700  0.2869 -0.0926
25054W        W42578  16.275  11.979   2.524 -0.2724  0.0864 -0.1938
25055W        W42579  16.838  11.425  14.251  0.0251 -0.0883  0.0473
25056W        W42580   8.236  17.518   3.661 -0.0198 -0.1552  0.0575
25057W        W42581   2.360  16.802   3.180 -0.0185  0.1326 -0.0209
25058W        W42582  11.455  14.575  12.738  0.0766  0.3148 -0.0561
25059W        W42583   6.070   5.026   2.804 -0.0130 -0.1504  0.0760
25060W        W42584   2.964   1.040  16.214  0.1516 -0.1056  0.0337
25061W        W42585   5.912   4.670  15.679  0.1506 -0.1109  0.0309
25062W        W42586   1.113   8.373  15.018  0.1400  0.1340 -0.0679
25063W        W42587   1.977   1.526  13.595  0.0153  0.1057 -0.0463
25064W        W42588   9.804  16.674   0.718  0.2195 -0.2765  0.1512
25065W        W42589   1.677   7.852  13.019 -0.0676  0.0396 -0.1126
25066W        W42590  14.024  17.841   2.956  0.1655 -0.1104  0.0901
25067W        W42591  11.991   8.397  10.395  0.0916 -0.0235  0.0697
25068W        W42592   9.478   7.224  13.102 -0.1506 -0.0181 -0.0750
25069W        W42593  12.933   2.756  13.215  0.0083 -0.0026 -0.1011
25070W        W42594  14.355   9.416  11.063  0.0015 -0.0038  0.1651
25071W        W42595   5.349   6.458  15.125 -0.0886 -0.1406 -0.3122
25072W        W42596  17.777   6.016  12.574  0.0053  0.1721 -0.0154
25073W        W42597  17.086  14.057   0.728  0.0622  0.0082  0.0978
25074W        W42598  10.195  12.449   0.944 -0.1531  0.2188  0.1316
25075W        W42599   0.607   3.046   3.040 -0.0414  0.1337  0.1201
25076W        W42600  15.459  10.063   4.238  0.1065  0.0029 -0.1219
25077W        W42601   8.987   5.821   0.267 -0.1257  0.0730  0.1459
25078W        W42602  17.945  11.899  14.324  0.2113 -0.0237 -0.3718
25079W        W42603  12.701   7.215   3.909  0.2000 -0.2112  0.0161
25080W        W42604  13.362   4.320   4.641  0.3120  0.2162  0.2180
25081W        W42605  15.351   0.310  15.547 -0.1648 -0.2919  0.1784
25082W        W42606  15.316  11.322   4.086  0.2611  0.1291 -0.1680
25083W        W42607  11.563   0.790  13.453 -0.0113 -0.0334  0.0597
25084W        W42608   8.516   2.372   2.868  0.1772 -0.2930  0.0317
25085W        W42609   1.195  10.457   3.864 -0.0029  0.0175 -0.3096
25086W        W42610   2.208   1.107   2.878 -0.3448 -0.0373 -0.0870
25087W        W42611   1.720   9.743   4.814 -0.1937  0.3121  0.1090
25088W        W42612   0.342   5.030   3.722  0.1926 -0.0335  0.2536
25089W        W42613   2.844  17.402  13.912 -0.0082  0.0589  0.0757
25090W        W42614   1.113   9.790  13.712  0.2289  0.0747 -0.0487
25091W        W42615   6.874  16.410  15.991 -0.0431 -0.3079 -0.0313
25092W        W42616  12.228   1.181   0.451 -0.1321  0.1189 -0.3833
25093W        W42617  16.305  10.769  15.715  0.2203 -0.0181  0.3710
25094W        W42618  11.119  10.951   0.986  0.0204  0.2508  0.1240
25095W        W42619   1.195  12.196   3.421 -0.2371 -0.1173 -0.2913
25096W        W42620   2.294  17.642   0.852 -0.0129  0.0812 -0.1394
25097W        W42621  16.852   0.133   3.240 -0.2216  0.0042 -0.0653
25098W        W42622  16.732  13.619  11.276  0.0072  0.1710  0.2555
25099W        W42623   7.275   4.683   2.857 -0.2218 -0.2089 -0.1828
25100W        W42624   5.955  10.686  16.037 -0.0259 -0.3638  0.0852
25101W        W42625  15.962  15.783  15.514  0.0251  0.2727  0.1146
25102W        W42626   1.637   2.048   4.406 -0.2580 -0.3708  0.4323
25103W        W42627   4.721  14.851  16.010 -0.0242 -0.2934  0.0615
25104W        W42628   7.652   2.509   4.940 -0.0755  0.0237  0.3622
25105W        W42629  10.248   9.681  14.622 -0.0396  0.0518  0.1710
25106W        W42630  17.004   0.163  12.669 -0.1065  0.1210 -0.2454
25107W        W42631   8.900  14.172   2.728  0.1344  0.1212  0.0684
25108W        W42632   5.080  16.594   3.885  0.1641  0.1156 -0.2230
25109W        W42633  10.310  17.694  15.699 -0.1534  0.0658 -0.3251
25110W        W42634  15.337   4.666  11.926 -0.2713 -0.0951 -0.0312
25111W        W42635   2.179   2.837   1.785 -0.1309 -0.0548 -0.0739
25112W        W42636  11.008   9.221  14.105  0.2113 -0.0649 -0.2182
25113W        W42637   9.685   7.817  11.100  0.0617  0.0642  0.0455
25114W        W42638  13.783  12.408  14.470 -0.0444  0.3614 -0.1641
25115W        W42639  16.497   8.344  12.636 -0.2279  0.0027 -0.0237
25116W        W42640  13.299   2.220  14.179  0.2053 -0.0225 -0.1164
25117W        W42641   9.813   5.747  11.476  0.0427 -0.2804 -0.3041
25118W        W42642   9.226   4.397   2.537 -0.0175  0.1970  0.2586
25119W        W42643   4.057   6.031   1.968  0.0232 -0.1846 -0.1661
25120W        W42644  11.416  13.202   1.832 -0.2359 -0.2035 -0.5846
25121W        W42645  17.643  12.601  12.524  0.0898 -0.4371  0.1920
25122W        W42646   0.797   3.629   3.879 -0.3192 -0.1087 -0.0096
25123W        W42647   4.837   2.057  13.518 -0.3851 -0.1902 -0.1423
25124W        W42648  14.749  14.993   0.633 -0.0461 -0.0878  0.1662
25125W        W42649   9.612   5.428  11.829 -0.1544 -0.1786 -0.1676
25126W        W42650  17.071   8.409  11.774  0.2768  0.2706  0.2147
25127W        W42651   5.984   3.385  13.543 -0.1532  0.0574 -0.2253
25128W        W42652   7.458   1.170   3.531  0.0360  0.1817 -0.1513
25129W        W42653   3.699  17.156   3.320  0.1669  0.1427 -0.0741
25130W        W42654   8.180  12.938   2.341  0.1876  0.0292 -0.3893
25131W        W42655   8.596   6.665   0.700 -0.0011 -0.2472  0.0103
25132W        W42656  10.333  10.661  12.316 -0.2243 -0.0379  0.1798
25133W        W42657   4.101  14.999  14.024 -0.1478 -0.2039  0.3630
25134W        W42658  16.579   3.155  14.706  0.1140  0.2060  0.1538
25135W        W42659   8.501   2.842   2.805  0.2845 -0.2245  0.2201
25136W        W42660  13.553   9.814  11.610 -0.0151  0.2083  0.0060
25137W        W42661  14.071   9.592  13.522 -0.1407 -0.0959  0.3339
25138W        W42662  10.718  16.193  12.077  0.0187 -0.3450  0.3179
25139W        W42663   5.619   1.092   0.581  0.2643 -0.1892 -0.2477
25140W        W42664   0.563   7.707   2.495 -0.1400  0.2172  0.1667
25141W        W42665  17.140   0.379   4.760 -0.0511 -0.3143  0.0477
25142W        W42666   1.040   4.511  13.378  0.0776  0.0357  0.0046
25143W        W42667   1.610   2.943   0.527 -0.2093 -0.1445  0.2460
25144W        W42668  14.055   6.123  12.075  0.1921 -0.0051 -0.1989
25145W        W42669  10.466   8.010  14.452  0.3430 -0.1179  0.0430
25146W        W42670   6.003   7.794  14.727  0.0415  0.1263 -0.1221
25147W        W42671  16.101   4.885  15.927  0.1493 -0.0408 -0.2174
25148W        W42672   7.600   8.874  13.868  0.0148  0.1574 -0.1488
25149W        W42673   5.012   5.621   0.866  0.3521 -0.0193  0.2211
25150W        W42674   3.617   4.585   3.937 -0.3542  0.1288 -0.0350
25151W        W42675  13.203   8.743   1.037  0.0350  0.1465 -0.1151
25152W        W42676  16.928   2.748  11.895 -0.0179  0.0221 -0.1867
25153W        W42677   3.511   4.146  12.112  0.0951  0.1977  0.3652
25154W        W42678  16.930   2.952   4.146  0.3401  0.1340 -0.1789
25155W        W42679   4.575   8.191  15.709 -0.2368  0.0351  0.0961
25156W        W42680   8.957   2.152  15.328  0.2418  0.2012  0.0588
25157W        W42681   3.118  13.922   4.315 -0.1605 -0.0656  0.1287
25158W        W42682   7.274  15.889  13.968  0.2879 -0.2082  0.0481
25159W        W42683   6.699   6.727  11.603 -0.0456  0.0148 -0.1884
25160W        W42684   6.918   2.216   0.091  0.0408 -0.0807 -0.0560
25161W        W42685   0.768  10.249   4.141  0.1178 -0.2315  0.0226
25162W        W42686   8.611  17.140   2.662 -0.3362 -0.1249  0.2259
25163W        W42687  16.775  10.965  13.023 -0.2316 -0.3354 -0.0077
25164W        W42688  13.605   6.109  13.650 -0.3167  0.4102  0.1493
25165W        W42689  11.830  12.690  16.221 -0.3037 -0.2694 -0.1065
25166W        W42690  12.351  14.110  13.154 -0.0683  0.1230  0.0880
25167W        W42691  15.216   0.505  14.129  0.0135  0.0429  0.0747
25168W        W42692  12.118  17.102  12.918 -0.0910  0.0424 -0.1332
25169W        W42693  13.791  11.091   0.096 -0.0008  0.1450 -0.1976
25170W        W42694  13.709   4.365   1.584 -0.1991 -0.1824 -0.0815
25171W        W42695  10.016  16.147  13.040 -0.0518 -0.0335 -0.0508
25172W        W42696  12.105   8.960   0.920  0.2701 -0.0252 -0.1820
25173W        W42697   8.010   8.643  15.255 -0.0426  0.1406  0.0958
25174W        W42698  17.423  12.666   3.086 -0.1123  0.1446 -0.2580
25175W        W42699   7.149  15.576   3.838  0.2014  0.4381 -0.0201
25176W        W42700  12.492   6.047   1.143  0.0079  0.0768  0.4595
25177W        W42701  14.931  10.657  13.019  0.1195  0.2630  0.2029
25178W        W42702   5.854  12.177   3.845 -0.0017  0.3561 -0.1255
25179W        W42703   3.384   9.480   0.464 -0.2219 -0.0853  0.0324
25180W        W42704   7.075   3.747   3.176 -0.0410  0.0880  0.1460
25181W        W42705   7.263  11.921   0.598 -0.2929 -0.0899 -0.2368
25182W        W42706  14.342  16.850  14.828  0.2820 -0.0803  0.0116
25183W        W42707   3.458  16.159   4.366 -0.3925  0.1946  0.0459
25184W        W42708   4.468  11.956  13.497  0.0836  0.3315 -0.0231
25185W        W42709   5.679   7.835  13.486 -0.2109 -0.1396 -0.0514
25186W        W42710  10.608  12.630  13.043 -0.0486 -0.3155 -0.1751
25187W        W42711  12.814   1.012   1.625 -0.0990  0.2672  0.1219
25188W        W42712   1.671  13.135  12.620  0.1069  0.3084 -0.2134
25189W        W42713  15.326  14.038   1.558 -0.4754 -0.0972  0.2611
25190W        W42714   3.116  16.888   0.579 -0.1874 -0.1498 -0.1483
25191W        W42715   6.005   8.975   3.912 -0.1876  0.0623  0.2031
25192W        W42716   6.403   2.780  13.147  0.2396  0.0148 -0.3609
25193W        W42717   6.998   2.904   0.780  0.1466  0.1913 -0.1110
25194W        W42718  15.194   4.113   2.563 -0.1899  0.1059 -0.1619
25195W        W42719   8.815  13.647   0.103  0.2173 -0.0811 -0.1723
25196W        W42720   6.168   7.445   3.408 -0.2004 -0.0342  0.0442
25197W        W42721   6.740   4.178   0.300 -0.1301  0.1976 -0.0427
25198W        W42722  16.468  14.149   3.581 -0.0520  0.1276 -0.3518
25199W        W42723   6.347  10.029   1.130  0.1054  0.3246  0.2823
25200W        W42724  10.697  10.013  14.462  0.0972 -0.2580 -0.0720
25201W        W42725  10.889   3.857   0.588 -0.0642 -0.0517  0.4179
25202W        W42726   9.800   0.852  13.895 -0.0247 -0.2230  0.1145
25203W        W42727   9.605  11.360   1.290 -0.2149  0.2089 -0.0679
25204W        W42728   2.646   7.554  12.050 -0.5524 -0.2437 -0.2044
25205W        W42729   1.159   4.889  15.591 -0.0517  0.2373 -0.1092
25206W        W42730   0.038  16.231   5.280  0.1455 -0.1547  0.1181
25207W        W42731  16.247   9.039   1.474  0.1182  0.0916 -0.2110
25208W        W42732   8.123   8.146  14.564  0.0119  0.0180 -0.0744
25209W        W42733  16.809  16.625   3.503 -0.1740  0.1712  0.0781
25210W        W42734   9.743   3.719  11.740  0.2334 -0.2617 -0.0235
25211W        W42735   9.878   1.036  12.816  0.0786 -0.2998  0.0518
25212W        W42736  15.312  13.056   4.509  0.1272  0.3042 -0.1977
25213W        W42737  17.118   3.471   0.845 -0.0814  0.0853 -0.0486
25214W        W42738  10.517  14.085   2.332  0.0921 -0.1082  0.0289
25215W        W42739   5.037  14.083  13.705  0.2542  0.0931 -0.1195
25216W        W42740  17.673  17.227  14.124 -0.1824  0.0923  0.2133
25217W        W42741   6.501  17.274  12.577  0.1824 -0.0955  0.1407
25218W        W42742  13.915   0.367  15.615 -0.2059 -0.0990  0.1269
25219W        W42743   2.386  16.437   0.533  0.0398 -0.1444  0.1800
25220W        W42744  13.125  11.976  15.656 -0.1676  0.0243  0.0628
25221W        W42745  17.109   0.386  14.163  0.4477 -0.2367 -0.0493
25222W        W42746   4.205   9.933   1.887 -0.0257  0.0496 -0.1113
25223W        W42747   8.419  15.830  11.374 -0.0106  0.0260 -0.1428
25224W        W42748   8.509  10.122   3.693 -0.0999  0.0177 -0.0776
25225W        W42749   8.108   6.291   3.742 -0.1069 -0.1037  0.1528
25226W        W42750   8.881  11.975  15.336 -0.0215  0.3104  0.2550
25227W        W42751  14.934   8.415   0.319  0.0807 -0.0388 -0.1174
25228W        W42752  13.684  14.184   1.645  0.0039  0.2610 -0.0996
25229W        W42753  17.633   2.083  15.132 -0.0754  0.1769  0.0237
25230W        W42754  15.359   6.278  12.414 -0.1186  0.0228  0.1460
25231W        W42755  10.972   9.492  12.744  0.1469  0.0310 -0.0869
25232W        W42756   0.727  17.596   0.035  0.0488 -0.1051  0.1882
25233W        W42757  10.273  17.616  11.114 -0.1061  0.0100 -0.2107
25234W        W42758   8.920   1.234  11.835 -0.0459 -0.1573 -0.2441
25235W        W42759  14.918  12.965  16.217  0.2491 -0.1503 -0.0376
25236W        W42760  10.177   4.533   5.321  0.2077 -0.0277 -0.0199
25237W        W42761  17.068   3.924   1.975 -0.0051 -0.1795 -0.0965
25238W        W42762  14.981  14.602   3.581  0.0780  0.1099 -0.0151
25239W        W42763   3.120  15.630   2.963 -0.0262  0.1771  0.0225
25240W        W42764   8.481  15.101  12.346 -0.4205  0.2426  0.1296
25241W        W42765   4.193  13.445  15.402  0.2831 -0.0442  0.1228
25242W        W42766  13.195  14.046   5.351  0.0353  0.0514 -0.0993
25243W        W42767  13.394  14.441   3.390  0.2613  0.0825 -0.1984
25244W        W42768   6.148   5.873   0.265  0.0706  0.0572  0.1742
25245W        W42769   1.986   3.175   4.733  0.1735 -0.1399 -0.3152
25246W        W42770   3.979  13.589  13.930  0.1326 -0.1403  0.0328
25247W        W42771   8.024  10.916  11.932 -0.1186 -0.0208  0.0868
25248W        W42772  16.115   4.291   3.529 -0.2031  0.1667  0.1764
25249W        W42773   6.054   5.087  13.661  0.1332  0.0913 -0.0333
25250W        W42774   6.027   0.862   0.376 -0.1853 -0.4702  0.1759
25251W        W42775  15.238  15.893  12.410 -0.1692 -0.2667 -0.1350
25252W        W42776  17.815   8.097   3.649 -0.0414 -0.0831 -0.0010
25253W        W42777  11.654  12.589   2.360 -0.2014 -0.0807  0.0817
25254W        W42778   8.320  10.935   0.867 -0.3123 -0.0198 -0.2255
25255W        W42779   6.279   1.614   2.385 -0.0659 -0.0511  0.4678
25256W        W42780  11.091  16.431  16.150 -0.0041  0.1137  0.0061
25257W        W42781   6.055  13.572  12.303 -0.1709 -0.0991 -0.1993
25258W        W42782  12.147  13.500  14.595  0.4676 -0.0927 -0.0183
25259W        W42783   1.237  12.453  14.545 -0.3466 -0.0067 -0.2061
25260W        W42784  16.803   7.386   5.083  0.0025 -0.3262  0.0042
25261W        W42785   9.986  11.739  15.125  0.0715 -0.1001  0.0783
25262W        W42786   1.383  16.047   2.026 -0.2801  0.0566 -0.1675
25263W        W42787   0.052   4.504   5.144  0.0263  0.2035 -0.4097
25264W        W42788   1.894  14.293  13.351 -0.1333  0.0300 -0.2578
25265W        W42789   1.118   9.243   0.154  0.0101 -0.1345 -0.0882
25266W        W42790   4.721  10.750   6.276  0.1778  0.0154 -0.1428
25267W        W42791  15.427   3.511   1.884 -0.0655  0.1632  0.0631
25268W        W42792   6.293  13.968   0.431 -0.0841 -0.2059 -0.3296
25269W        W42793  10.638  15.547   0.484  0.0046 -0.1848  0.1089
25270W        W42794   2.691  14.797  13.871 -0.1430 -0.1518  0.0422
25271W        W42795   9.044   8.134   1.102 -0.2003 -0.2095 -0.1304
25272W        W42796  10.554   8.524   0.160  0.0736  0.2234  0.1081
25273W        W42797  12.600   6.474  13.717  0.1421 -0.0021 -0.1672
25274W        W42798  14.406  14.027   4.314  0.3616  0.2276 -0.2604
25275W        W42799   9.262  16.421   3.960  0.0834  0.2116  0.0556
25276W        W42800   2.288  10.760   4.417 -0.0464 -0.0095  0.4510
25277W        W42801   9.412  12.587   4.357  0.1357  0.1165 -0.1086
25278W        W42802  10.875  12.245   4.893 -0.0717 -0.3415 -0.0421
25279W        W42803   2.704  17.823  13.700  0.2607 -0.1841  0.0249
25280W        W42804   8.495  10.562   3.044  0.2597  0.1535  0.0386
25281W        W42805   0.239   5.086   2.856 -0.1301 -0.0866 -0.0060
25282W        W42806   7.452  16.534   5.632  0.1607 -0.1965  0.0893
25283W        W42807   2.486   5.248   5.008 -0.3441 -0.0997  0.1230
25284W        W42808   3.401   6.748  15.021  0.3786  0.0746 -0.3641
25285W        W42809  15.309   5.990  15.835  0.0707 -0.2511 -0.1296
25286W        W42810   6.473   8.257  12.660 -0.0064  0.3100  0.1666
25287W        W42811  16.763  16.282  13.880 -0.0591 -0.0198 -0.0007
25288W        W42812  16.268   6.699  11.862 -0.1243  0.0923 -0.0345
25289W        W42813  16.949   1.081   4.826 -0.0013  0.0117  0.1923
25290W        W42814  14.274  17.448  15.582 -0.1190  0.1877  0.4443
25291W        W42815  10.590  16.449   3.333  0.0620  0.3314  0.1780
25292W        W42816  13.985  12.718  13.676 -0.0087  0.3062 -0.1234
25293W        W42817  13.681   1.647  11.293 -0.1895 -0.1830 -0.0391
25294W        W42818  17.379   4.515  13.707  0.0538 -0.0401  0.2259
25295W        W42819  12.828  14.718   4.662  0.1803  0.0037  0.1183
25296W        W42820  11.190  16.816  14.249  0.0282 -0.1111  0.0093
25297W        W42821   9.043  10.353   2.334 -0.0025  0.0552 -0.1295
25298W        W42822   0.730   2.448  14.817  0.0034  0.0885 -0.1216
25299W        W42823  14.551  16.195   2.029  0.0936 -0.0929 -0.0126
25300W        W42824   5.290  14.447   0.660  0.0959  0.1061 -0.0982
25301W        W42825   0.022   9.657  15.672  0.3120  0.1564  0.0175
25302W        W42826  12.153   4.106   2.245 -0.2070  0.3203  0.3437
25303W        W42827  12.776  13.906   4.482 -0.2075  0.1669 -0.2542
25304W        W42828   4.998   1.655   2.094  0.0038  0.1211 -0.3288
25305W        W42829   6.963   9.285   5.382  0.2040 -0.0562  0.1903
25306W        W42830   1.062  15.775  12.207  0.1477 -0.0489 -0.0972
25307W        W42831   6.334  10.071   1.610 -0.2389 -0.0192  0.0345
25308W        W42832  13.118  17.459   0.030  0.1409  0.1018  0.1733
25309W        W42833   0.773  16.996   4.270 -0.1338  0.1244 -0.0175
25310W        W42834  12.734   2.122  12.712 -0.2270 -0.4472  0.0531
25311W        W42835   8.288  14.227   4.081 -0.0751  0.0373 -0.1952
25312W        W42836   2.837   6.001  13.840  0.1426  0.0232  0.1426
25313W        W42837   6.119   1.413  13.677  0.1527 -0.2410 -0.0987
25314W        W42838   4.778   9.275  12.133  0.0109  0.0327  0.1874
25315W        W42839  15.547  16.797   3.536 -0.1545  0.3068 -0.1186
25316W        W42840  10.228  12.947   1.131 -0.0782 -0.0624  0.4695
25317W        W42841   6.853   9.117  14.677  0.2281 -0.2043 -0.1296
25318W        W42842   1.306   8.629   1.786 -0.1369  0.1966  0.0154
25319W        W42843  14.622  16.106   4.183  0.1930 -0.1301 -0.2886
25320W        W42844   2.370   4.551  14.327 -0.0846 -0.1161  0.0183
25321W        W42845   2.645   3.306   0.442 -0.0164 -0.0631 -0.5201
25322W        W42846   3.715   1.815  15.207  0.0571 -0.1451 -0.2064
25323W        W42847  16.727   8.503  13.775 -0.1009 -0.0306  0.2375
25324W        W42848  12.337  16.358   2.604  0.1419  0.0326 -0.2472
25325W        W42849   7.806   8.430  13.201 -0.0185  0.0285 -0.2595
25326W        W42850  11.635   2.017  11.718  0.0063 -0.2012  0.3278
25327W        W42851   8.671   4.364   2.527  0.0856  0.0012  0.1849
25328W        W42852  10.023   7.235  14.660  0.0558  0.0683  0.1429
25329W        W42853  11.246   6.896  12.756 -0.0053  0.1175 -0.0682
25330W        W42854  15.585   2.027  10.995  0.1757 -0.0430  0.3062
25331W        W42855  12.493  16.056  13.501 -0.1355 -0.0009  0.1403
25332W        W42856  11.585  14.158  11.599 -0.1233  0.0670 -0.0384
25333W        W42857  17.047   9.603  12.552  0.0123 -0.2802  0.2602
25334W        W42858  14.925  12.599   2.134 -0.4167  0.0405  0.0403
25335W        W42859  17.197   7.637  12.240  0.1983  0.0544 -0.1614
25336W        W42860  13.756  14.428  12.007 -0.4683  0.0800 -0.0816
25337W        W42861   3.458   2.799  13.633  0.1513  0.0284  0.0604
25338W        W42862   2.477  17.273   4.283  0.2440 -0.2863  0.0586
25339W        W42863  17.196   5.441   4.684 -0.1245 -0.0438  0.3517
25340W        W42864  16.647  15.683   3.299  0.3754  0.1657  0.0438
25341W        W42865   8.582   2.989  14.175  0.0506 -0.2704 -0.0903
25342W        W42866   9.889  17.084   5.000 -0.1098 -0.1203  0.2311
25343W        W42867  16.020  10.408  13.430  0.4691  0.0953 -0.0379
25344W        W42868   8.521   8.696  11.445  0.1428 -0.0183 -0.3588
25345W        W42869   2.972  14.605  11.893 -0.3887  0.1267 -0.2668
25346W        W42870   5.688   9.874   4.931 -0.2169 -0.1337 -0.2247
25347W        W42871  12.939  10.643   4.582  0.3509 -0.0712 -0.2478
25348W        W42872  14.109  11.999  11.897  0.1885  0.2917 -0.2994
25349W        W42873  13.268   6.878  16.043  0.2188 -0.1436  0.2315
25350W        W42874   9.611  11.537  15.422  0.1790 -0.0928 -0.1184
25351W        W42875  10.494  11.933  14.865 -0.1227 -0.1604  0.2297
25352W        W42876   3.181   3.421  13.875 -0.1752  0.0952  0.1088
25353W        W42877   5.387   8.801   4.589  0.0776  0.2153 -0.1574
25354W        W42878   6.739   3.071  13.785  0.1062 -0.0375 -0.1757
25355W        W42879   5.611   0.582   0.399  0.2116  0.5032 -0.1179
25356W        W42880   3.725  12.023  12.677  0.1401 -0.3224  0.0886
25357W        W42881   3.164   4.901   3.973 -0.1719  0.1243  0.1097
25358W        W42882  15.704   5.094  13.603 -0.1091 -0.0494 -0.2231
25359W        W42883  17.199  10.407   4.314 -0.0977  0.0552  0.3044
25360W        W42884   8.394  12.781   5.799 -0.0531 -0.2272 -0.0073
25361W        W42885   5.455  15.056  15.080  0.0684  0.2123  0.3612
25362W        W42886   2.208  12.310  12.227 -0.0498  0.2256 -0.2431
25363W        W42887  14.239  11.934   1.522  0.2461 -0.0615  0.0628
25364W        W42888  17.482   7.402   4.193 -0.3394 -0.0880  0.0050
25365W        W42889  13.503   3.081   1.819  0.2790  0.1932  0.4481
25366W        W42890   9.717   5.041  13.840  0.0885 -0.0478 -0.1828
25367W        W42891  12.810   8.651  11.656  0.0565 -0.2801  0.0405
25368W        W42892  17.421   5.443  10.537  0.0186  0.2092 -0.0111
25369W        W42893   6.006   2.873   3.498 -0.1608 -0.2390  0.3210
25370W        W42894   5.045   6.196   4.420  0.1381  0.0322 -0.3772
25371W        W42895  11.209   3.753  12.948 -0.1705 -0.0563 -0.1792
25372W        W42896   9.746  12.504   0.566 -0.0548  0.1226  0.0079
25373W        W42897   1.075  15.031  15.993  0.0062  0.1584  0.1988
25374W        W42898  16.245  13.244   0.180 -0.1745 -0.0142  0.1448
25375W        W42899  17.570   6.750  13.063 -0.3767 -0.4159 -0.0173
25376W        W42900  15.434   2.646   2.217  0.0768  0.1460  0.3130
25377W        W42901   1.558   8.682   3.658 -0.0039  0.1367  0.2176
25378W        W42902   7.272  11.707  14.391 -0.0447 -0.0594  0.1216
25379W        W42903   1.907   8.896   3.424 -0.0581  0.2448  0.1395
25380W        W42904  12.280  17.104   3.315  0.2623  0.0530  0.2612
25381W        W42905  12.329  10.618   0.927 -0.2006 -0.0248 -0.0930
25382W        W42906   0.829   5.559   4.302  0.0199  0.5279 -0.2584
25383W        W42907   2.829  15.297   1.206  0.0608  0.0318 -0.0469
25384W        W42908  12.667  14.687  11.204  0.0496 -0.1067  0.4245
25385W        W42909   5.477   7.406  13.570 -0.1756 -0.1407 -0.0861
25386W        W42910   3.078  10.675  15.467  0.0921 -0.0215  0.1800
25387W        W42911  17.144   2.109   5.274  0.0722  0.1961 -0.1363
25388W        W42912   7.416  17.123   4.697 -0.1462 -0.1325  0.0773
25389W        W42913  12.317   6.630  15.209 -0.2293 -0.3527  0.0032
25390W        W42914   9.152  14.393  15.586  0.1475  0.0793 -0.0486
25391W        W42915   0.458  16.839  13.773 -0.1638  0.1000  0.2274
25392W        W42916  11.093  10.140   4.176  0.3090  0.0591 -0.2972
25393W        W42917  12.914   7.515  12.689 -0.3184 -0.3222 -0.3056
25394W        W42918  11.125  16.773   2.497 -0.0860  0.0562 -0.3055
25395W        W42919  12.326   2.395  12.585  0.3081  0.0626 -0.0989
25396W        W42920  11.701   2.546   4.901 -0.2124  0.3029  0.1546
25397W        W42921   8.208  12.788  13.085  0.0478 -0.0293  0.0710
25398W        W42922   7.332  14.815  13.147  0.1342 -0.0637 -0.1446
25399W        W42923  12.776  10.644   3.240 -0.0993 -0.1901  0.2900
25400W        W42924  16.129   7.081  11.528  0.0824 -0.2055  0.0915
25401W        W42925  13.483  17.642   0.439 -0.0961  0.1560  0.0217
25402W        W42926  15.748  12.128   2.239 -0.0747 -0.2053 -0.2700
25403W        W42927   5.026  17.106   2.106  0.0688 -0.3065 -0.0846
25404W        W42928   5.053  15.164  13.580 -0.0124  0.3114 -0.2187
25405W        W42929  12.836  11.361   0.386 -0.1515  0.2901  0.0496
25406W        W42930   2.553   5.841   1.316 -0.2996  0.0941  0.0298
25407W        W42931   6.957   6.282   3.515 -0.1144 -0.2227 -0.0183
25408W        W42932  17.924   3.880   0.881 -0.1590  0.0783  0.2003
25409W        W42933  12.746  13.923  16.148 -0.1845 -0.3042  0.0072
25410W        W42934   2.949  10.201   5.338  0.1773 -0.3163 -0.2080
25411W        W42935   6.958  11.583   6.377  0.2026  0.0685  0.1356
25412W        W42936   7.745  17.140   3.764 -0.1036  0.0456 -0.2115
25413W        W42937   7.658  17.559   4.991 -0.1020  0.2909  0.0957
25414W        W42938  17.284  11.133  12.138 -0.0875 -0.1989  0.2803
25415W        W42939   5.488  12.980  15.331 -0.1546  0.3117 -0.1390
25416W        W42940   2.635  14.596  11.549 -0.0883 -0.2171  0.0023
25417W        W42941   3.501   0.070   2.009  0.1320  0.0394 -0.0703
25418W        W42942   5.782  13.169  11.946 -0.2021  0.0150 -0.0595
25419W        W42943   3.929   7.213   3.999  0.1856  0.0893 -0.0487
25420W        W42944   3.978   0.948   4.584 -0.0200  0.1281  0.0185
25421W        W42945   9.187  11.942  12.565  0.1085 -0.0330 -0.1366
25422W        W42946   4.889  10.309   0.293 -0.0115  0.0724 -0.1321
25423W        W42947   8.241  10.512   3.465  0.0017 -0.0734  0.2745
25424W        W42948  15.552   4.897  12.359  0.4799  0.6239 -0.1988
25425W        W42949  11.394   9.499   3.048 -0.1942  0.1007  0.0043
25426W        W42950   4.619  17.713  11.659 -0.1710 -0.4333  0.0527
25427W        W42951   8.894  11.831  13.393 -0.1041 -0.0111 -0.1753
25428W        W42952   9.311   1.958  14.533  0.0187  0.3297  0.1358
25429W        W42953  12.256  12.787   1.813 -0.1351  0.0258  0.2989
25430W        W42954   0.611  15.300   1.907 -0.2737 -0.1015 -0.0064
25431W        W42955  10.311   9.560  13.472  0.0021 -0.1713  0.0971
25432W        W42956  14.555  17.857   1.232  0.4133  0.0605  0.2386
25433W        W42957  10.161   4.008  11.477 -0.3739  0.1876 -0.0335
25434W        W42958   6.989  14.932   3.671  0.2177 -0.0725  0.1817
25435W        W42959   5.819  10.218   3.719 -0.0818  0.2522 -0.0630
25436W        W42960  16.488  16.964  12.973  0.1144  0.2079 -0.0321
25437W        W42961  11.750   8.620  14.997  0.1802 -0.2229 -0.1710
25438W        W42962   8.305   9.435  15.998  0.0991 -0.0347 -0.0429
25439W        W42963  10.270  14.519   5.665 -0.0682 -0.1430  0.1608
25440W        W42964   7.066   1.438  12.597 -0.0584  0.2331 -0.2827
25441W        W42965  16.856  13.794   1.421 -0.1716  0.0981  0.0825
25442W        W42966  11.522   0.481  13.794  0.1168 -0.1391 -0.0891
25443W        W42967   5.641   9.077  11.938  0.0123  0.3595  0.5436
25444W        W42968  13.624   2.353   5.118 -0.0722 -0.1596 -0.0563
25445W        W42969   6.989  15.037  13.974  0.0231 -0.0312 -0.0031
25446W        W42970  13.671   1.265  15.727  0.0204  0.1414 -0.1332
25447W        W42971   2.951  14.971   5.113 -0.3705  0.3913  0.0965
25448W        W42972  16.741   3.603  14.466 -0.2092 -0.2287  0.2567
25449W        W42973  10.310   6.248   0.154 -0.0564 -0.1795 -0.0559
25450W        W42974   4.801  14.114  11.681 -0.0236  0.0743  0.0725
25451W        W42975  17.287   1.724  13.488  0.2342  0.1134 -0.2669
25452W        W42976   3.502   7.165   3.721 -0.2497 -0.2499 -0.1362
25453W        W42977  17.318  10.731  13.041 -0.0692 -0.1069 -0.3081
25454W        W42978   5.443  16.820  12.871 -0.0163  0.0454  0.0308
25455W        W42979  10.324  11.639   3.166  0.2201 -0.4659 -0.3754
25456W        W42980  17.865   8.509  14.503 -0.0851 -0.1802 -0.1106
25457W        W42981  16.964   0.563  15.830 -0.0800  0.0180 -0.1415
25458W        W42982  11.895   8.292   3.602 -0.4218  0.2283  0.0721
25459W        W42983  13.638   5.151   5.488 -0.0527  0.1577 -0.1367
25460W        W42984   6.759   4.179  16.066 -0.2684 -0.1365  0.4259
25461W        W42985   4.496  15.952  15.207 -0.2735  0.2122  0.1704
25462W        W42986   1.601   6.460  15.874 -0.2824  0.2135 -0.1565
25463W        W42987   8.597  15.048  16.091  0.0630 -0.0107  0.1512
25464W        W42988   6.923   3.006  15.708 -0.0592  0.1812  0.3827
25465W        W42989   7.846   3.360  12.628 -0.0272 -0.4586  0.0809
25466W        W42990   7.357  17.039   2.126  0.1081 -0.1268 -0.1154
25467W        W42991  10.031   2.329  16.023  0.1413  0.1036 -0.4207
25468W        W42992  14.606  11.537   0.191 -0.0526 -0.4912 -0.0006
25469W        W42993  14.312   3.622  13.274 -0.1575  0.0172 -0.0861
25470W        W42994  17.725  17.275  13.616 -0.2381  0.0830 -0.3656
25471W        W42995  12.953   4.001  13.964  0.1184 -0.0687 -0.2122
25472W        W42996  16.733  14.945   4.140  0.2072  0.0430 -0.0083
25473W        W42997   0.641   8.986  14.306 -0.1003  0.0281  0.2708
25474W        W42998   0.343  17.911   1.610 -0.0357  0.0515 -0.2008
25475W        W42999   9.084   6.893   2.242 -0.2164 -0.0272 -0.1793
25476W        W43000   9.538  16.077   1.140 -0.0399  0.0203 -0.0888
25477W        W43001   9.204   4.986   2.386  0.0460  0.0812  0.3374
25478W        W43002  15.218   4.200   4.344  0.3281 -0.1976  0.2277
25479W        W43003  15.748   8.169  13.022 -0.1700  0.0918 -0.0947
25480W        W43004   0.047   6.005   2.726 -0.1081 -0.1181  0.2306
25481W        W43005   3.430  10.061   4.346  0.2858  0.2847  0.1348
25482W        W43006  13.576   7.670  15.129  0.1297  0.1510 -0.0199
25483W        W43007  17.259  10.828  11.767  0.2182  0.0948  0.2103
25484W        W43008   9.015   2.573  11.080  0.0930 -0.2202 -0.1041
25485W        W43009   9.708   3.594   3.666 -0.1351 -0.0985 -0.1987
25486W        W43010   7.335  10.966   4.836 -0.0957  0.0185 -0.0677
25487W        W43011   0.895   7.378   0.815 -0.2287  0.2221  0.0205
25488W        W43012   0.705   8.622  12.677  0.1554  0.0376 -0.0299
25489W        W43013   8.272  17.305   1.738  0.0901  0.1410 -0.0173
25490W        W43014   4.099  14.061  13.901 -0.1016  0.1915 -0.2816
25491W        W43015   2.456  17.945   2.816 -0.2653 -0.0623  0.0116
25492W        W43016  12.057  16.075   0.738  0.0849  0.0979  0.0470
25493W        W43017  17.174  14.744  14.667  0.1832 -0.2731 -0.1443
25494W        W43018   7.638  17.061  13.337  0.1551 -0.1900  0.2653
25495W        W43019   1.409   4.094  13.939 -0.2271 -0.2180  0.0514
25496W        W43020   5.068   9.167  13.083  0.3758  0.0716  0.2941
25497W        W43021  14.238   9.620   2.322 -0.0436 -0.2201  0.0619
25498W        W43022   9.991   6.567   0.563  0.3055  0.0030  0.2154
25499W        W43023  11.658   6.402  12.587 -0.1705 -0.0816  0.1716
25500W        W43024  16.329   0.316  15.404 -0.0488 -0.1808  0.3231
25501W        W43025  11.618  15.249   0.999  0.5654 -0.1301 -0.1367
25502W        W43026   0.903   0.388  15.261  0.1454 -0.0211  0.2605
25503W        W43027  15.546   5.580   0.049  0.1697  0.2471  0.1703
25504W        W43028  10.081  13.301   3.520 -0.1956 -0.0842  0.0682
25505W        W43029   6.546   1.705   1.087 -0.1857  0.0202  0.3242
25506W        W43030  16.995  12.602  11.933 -0.0857 -0.2918 -0.0310
25507W        W43031  17.024   5.018  13.125 -0.1509 -0.1122 -0.1335
25508W        W43032   4.460  13.969  14.269 -0.0043 -0.2139 -0.0908
25509W        W43033  11.829   5.265  11.584  0.0505 -0.0660 -0.1985
25510W        W43034  10.196   5.623  14.779  0.0968 -0.1434 -0.0601
25511W        W43035   5.911   0.624  12.246 -0.2882 -0.0465 -0.1352
25512W        W43036   2.793  14.629  13.320 -0.2401 -0.1788 -0.1681
25513W        W43037   3.831   4.029  14.284  0.2457 -0.1765 -0.0269
25514W        W43038   5.978  15.882  13.728  0.0475 -0.0443 -0.0979
25515W        W43039  12.020  16.680   5.120  0.0899 -0.1122 -0.0579
25516W        W43040  11.497   6.472  11.351  0.0515 -0.0795  0.0696
25517W        W43041  15.588   6.003  13.429 -0.1759  0.0809  0.2321
25518W        W43042  10.885  15.711  12.103  0.2400  0.0976  0.3674
25519W        W43043  14.248  13.463   4.982 -0.2122 -0.1592 -0.1632
25520W        W43044   5.952   0.967  13.530  0.0015  0.1705 -0.2751
25521W        W43045  12.142   7.405  15.564 -0.2092 -0.1174  0.0666
25522W        W43046   9.888   2.697   3.125  0.0626  0.0341  0.1410
25523W        W43047  16.562   3.404   1.146  0.1817  0.4902  0.1556
25524W        W43048   4.336   0.395   0.031 -0.2314  0.0097  0.1422
25525W        W43049   7.694  12.421  14.471  0.3163  0.1257 -0.0982
25526W        W43050   0.689  10.250   5.513  0.2695 -0.0193 -0.1225
25527W        W43051   6.794  15.550   2.195  0.0946  0.0687  0.0179
25528W        W43052  10.325  17.065  11.996 -0.1133 -0.1621 -0.2808
25529W        W43053   7.881   9.948  11.225 -0.0599 -0.2551  0.1706
25530W        W43054  14.086   6.959   4.183  0.2698 -0.0149 -0.0049
25531W        W43055   5.500   9.789   4.463  0.2133 -0.0632 -0.3278
25532W        W43056  12.109  12.497  15.026  0.1631  0.0112 -0.1778
25533W        W43057   3.990  17.564   3.704  0.1554  0.0139  0.1378
25534W        W43058  14.824   5.305  10.802 -0.0200 -0.1931 -0.0211
25535W        W43059  11.332   2.839  12.518  0.1119 -0.1201  0.0114
25536W        W43060  11.472   0.285   4.495 -0.1838 -0.0666  0.0561
25537W        W43061  17.582  11.843   3.821  0.0622 -0.0574 -0.0849
25538W        W43062   9.680  14.083   3.988  0.1074 -0.1962 -0.2267
25539W        W43063  12.349  10.292  15.013 -0.2219  0.0074  0.2124
25540W        W43064  11.011   1.229  16.166 -0.0273 -0.0012 -0.0732
25541W        W43065  14.665   2.330  12.464 -0.0977 -0.0376  0.1425
25542W        W43066   2.548   7.806   3.495  0.1338  0.1042 -0.0660
25543W        W43067   4.933   9.523   4.581  0.0870  0.0799  0.2656
25544W        W43068  12.503  16.984   1.231 -0.0733 -0.0730 -0.5469
25545W        W43069  12.834  11.349  13.993  0.2118  0.1955  0.0741
25546W        W43070  14.359   5.767  11.918  0.2940 -0.3484  0.4294
25547W        W43071  14.219  12.733   1.010 -0.0931 -0.1535 -0.0276
25548W        W43072   4.784   2.735   0.372 -0.0570 -0.0277 -0.0698
25549W        W43073   3.078   8.819  14.556  0.0120  0.2996  0.0861
25550W        W43074  10.829   1.767   4.075 -0.3454  0.1271 -0.0208
25551W        W43075   5.343  11.785  14.849  0.0428 -0.0406  0.1117
25552W        W43076   4.521   1.744  15.705  0.0337 -0.0794 -0.0872
25553W        W43077   5.696   0.536  15.643 -0.1351 -0.0448 -0.0462
25554W        W43078   6.338   4.384   4.865 -0.5396  0.0332 -0.0119
25555W        W43079   9.756  13.895   4.565 -0.1146  0.0473 -0.0352
25556W        W43080   5.677  14.938   2.390  0.3484 -0.0766 -0.3544
25557W        W43081   8.070   8.067  11.999  0.0029 -0.1201 -0.0760
25558W        W43082  13.781  11.994  12.858  0.3380  0.0225 -0.0663
25559W        W43083   8.185   4.996  11.958  0.1644 -0.0018 -0.0681
25560W        W43084   6.685  16.591   3.239  0.1819 -0.0582  0.0615
25561W        W43085   3.639  12.424   4.013  0.0792  0.1257 -0.0092
25562W        W43086  14.245  10.515   1.101 -0.0782 -0.0040 -0.4690
25563W        W43087   9.699   0.269  13.330  0.1251  0.1886 -0.3839
25564W        W43088   3.195   7.984  12.357 -0.0680  0.0396  0.1405
25565W        W43089  16.662  16.975  15.533 -0.4015 -0.1039  0.2359
25566W        W43090   3.351   2.201  11.260  0.1280 -0.2062 -0.2049
25567W        W43091   6.220  10.275  15.956  0.0282  0.2366  0.0746
25568W        W43092   5.343  14.759   1.958 -0.2235 -0.0985  0.0155
25569W        W43093  15.213   7.667   2.647  0.1319  0.2583  0.1553
25570W        W43094  13.872   4.848  12.381 -0.0539  0.4078 -0.0379
25571W        W43095  12.340   1.804  14.884  0.3690 -0.1206  0.1500
25572W        W43096   1.378  13.335   4.547  0.1626 -0.0717 -0.2476
25573W        W43097   9.639   6.844   3.318 -0.0144  0.1389 -0.1681
25574W        W43098  12.575   9.670   4.215  0.1057 -0.1242  0.2318
25575W        W43099   6.818   1.565   2.053 -0.0190 -0.1425  0.0736
25576W        W43100  13.586  14.184   4.989 -0.0777 -0.1196  0.0799
25577W        W43101   1.985  13.336  13.333  0.1987 -0.2244 -0.3459
25578W        W43102  13.358  16.757  14.849 -0.2694  0.0448 -0.2847
25579W        W43103   5.896   4.121   2.745  0.2325  0.2609 -0.1483
25580W        W43104  16.612   6.805  12.262 -0.1875 -0.1673 -0.2170
25581W        W43105  11.691  17.094  15.854 -0.1246  0.1641 -0.0857
25582W        W43106   9.518   6.695   3.831  0.3413 -0.0352  0.1880
25583W        W43107  15.200   3.468   0.952 -0.0678 -0.2418  0.1337
25584W        W43108   8.680   9.285   2.445 -0.2154  0.0752 -0.2108
25585W        W43109   4.770   8.908   2.491 -0.0989 -0.1236 -0.0104
25586W        W43110  17.137   2.075   0.843  0.0149  0.1179  0.2319
25587W        W43111  17.398   5.374  13.854 -0.1691 -0.2948 -0.1138
25588W        W43112   2.454   0.133  16.071  0.2862  0.2000 -0.0252
25589W        W43113   3.969  13.845   1.704 -0.3122  0.0472 -0.2538
25590W        W43114  13.403   5.914  10.195  0.1517  0.1533  0.1511
25591W        W43115  14.123   5.706   1.484 -0.2527  0.0183  0.0265
25592W        W43116   1.473   4.633   4.121  0.0188 -0.1098 -0.1263
25593W        W43117  11.987  16.521  16.235 -0.1354 -0.0859  0.1776
25594W        W43118   7.259   9.653   1.041 -0.0839 -0.3547 -0.0455
25595W        W43119   8.808  17.331  11.997 -0.1190  0.0438  0.0242
25596W        W43120   5.949  12.369  14.677 -0.1956  0.0642  0.0697
25597W        W43121   0.040   4.147  11.692  0.0462 -0.0282 -0.1541
25598W        W43122   1.674   1.522   0.548  0.1084 -0.1668  0.1204
25599W        W43123   6.229  11.954   4.108 -0.3095 -0.0775  0.1636
25600W        W43124   5.309  10.991  12.637 -0.2044  0.2093 -0.3892
25601W        W43125  12.814   9.358   2.583 -0.0713 -0.1059  0.0985
25602W        W43126  15.212  14.744   5.305  0.1149  0.1495  0.1771
25603W        W43127   0.493  14.461  14.771  0.0094  0.0121  0.0312
25604W        W43128  17.378   7.867   0.738 -0.0295 -0.1954 -0.0743
25605W        W43129   1.944   4.710   3.230  0.0046 -0.0158  0.1114
25606W        W43130  17.815   6.384  14.719  0.2949  0.5475 -0.1301
25607W        W43131  11.783  12.918  12.338  0.3237 -0.0314  0.1640
25608W        W43132   2.626   8.973  12.840 -0.2731 -0.2058 -0.0356
25609W        W43133  17.248  13.807   1.736 -0.0982  0.1355 -0.0290
25610W        W43134   7.136  15.364   0.554 -0.0929  0.0094 -0.1922
25611W        W43135   6.296   7.197  12.395  0.2663 -0.0659  0.0119
25612W        W43136   1.918   6.742  14.915 -0.2539 -0.0722  0.0398
25613W        W43137   9.529   4.514  11.309 -0.0983  0.0367  0.2624
25614W        W43138  11.815   7.080  13.472  0.0117  0.0588 -0.0312
25615W        W43139   6.604  14.708   0.241  0.0313 -0.0169  0.3212
25616W        W43140   9.658   9.462  11.678  0.0642  0.2674 -0.1416
25617W        W43141   3.608  10.904   1.180 -0.1445  0.1022  0.1040
25618W        W43142  14.842   8.240   0.768 -0.1138  0.0802 -0.3362
25619W        W43143  16.759   9.786  14.366 -0.3215 -0.1733 -0.3651
25620W        W43144   6.768   9.608  12.719 -0.4000  0.2172 -0.0676
25621W        W43145   8.109  12.235   0.988  0.1981  0.0865 -0.1730
25622W        W43146   0.446   5.364  12.012  0.1135  0.0091  0.0421
25623W        W43147  16.935  11.913  14.406 -0.0048  0.1498 -0.1592
25624W        W43148   7.286   5.059  12.374 -0.0360 -0.1375  0.0342
25625W        W43149   5.795   6.744   2.039 -0.1691 -0.3642  0.2010
25626W        W43150   4.722  17.385  15.997 -0.2755  0.0512 -0.1440
25627W        W43151   5.228   9.605   4.085  0.2982 -0.0032  0.0420
25628W        W43152  15.014  16.904   1.289  0.1387 -0.1065  0.1892
25629W        W43153   4.766   2.399   3.184 -0.0664  0.3485  0.0395
25630W        W43154   1.729  15.801  12.787  0.0261 -0.2290 -0.1111
25631W        W43155   9.597  16.105   2.636 -0.0927  0.0783 -0.0383
25632W        W43156  14.183   7.553  15.909 -0.3978 -0.1097 -0.4389
25633W        W43157  17.587   7.638   2.295 -0.3717 -0.1343  0.2986
25634W        W43158   6.887   4.231  12.803 -0.4826 -0.2545  0.1177
25635W        W43159   1.246  14.394  12.453  0.4272 -0.0561  0.0598
25636W        W43160   4.786   5.128   3.991  0.0232  0.1000 -0.4672
25637W        W43161   9.546  13.293   1.171  0.0548  0.1286  0.3155
25638W        W43162   6.085   6.049   2.978  0.2107 -0.2641 -0.0767
25639W        W43163  12.738  17.620   1.977  0.0293  0.0484 -0.3496
25640W        W43164   6.851  10.884  12.908  0.0750  0.2656  0.0623
25641W        W43165  12.424  11.844   3.804  0.1545 -0.2595 -0.1413
25642W        W43166   4.883   1.440   1.611 -0.0367 -0.3020  0.0373
25643W        W43167   5.149   9.068   2.130  0.4003  0.0989 -0.0566
25644W        W43168   8.173   1.636  10.695  0.1613  0.1914 -0.1133
25645W        W43169   1.017   9.901  12.759  0.0833 -0.1856  0.0975
25646W        W43170   9.986  10.997   3.705 -0.4812 -0.2795  0.0718
25647W        W43171  11.245  12.980   1.440  0.0711  0.1197 -0.0050
25648W        W43172  16.088   3.437  11.697 -0.0145  0.0717  0.0609
25649W        W43173  12.454   5.489   4.221  0.1003 -0.2639 -0.0342
25650W        W43174  15.864   8.460  14.834  0.2827 -0.3028 -0.1747
25651W        W43175   1.525  11.661  15.555  0.2878 -0.1662 -0.0678
25652W        W43176   9.649  16.640   1.894 -0.1693 -0.0492 -0.0424
25653W        W43177   5.483  13.972   4.141 -0.0341 -0.2677 -0.1345
25654W        W43178   5.190   2.385  10.819  0.0431 -0.2109 -0.0108
25655W        W43179  14.561  13.834  13.151 -0.0268  0.0707  0.1353
25656W        W43180  15.880   4.669   3.044 -0.3392 -0.1186  0.1923
25657W        W43181   4.917   9.618   5.189  0.2998  0.0492 -0.1121
25658W        W43182   6.451  13.997  14.663  0.0919 -0.1269 -0.0336
25659W        W43183   4.102   5.370   2.842  0.1998  0.0023 -0.0105
25660W        W43184  12.626   3.118  13.011 -0.1313 -0.2146 -0.1928
25661W        W43185   8.056  14.684   3.403 -0.0178  0.0774  0.1903
25662W        W43186   3.383   5.842  15.598 -0.0103 -0.2641  0.2465
25663W        W43187   8.349  10.918   4.949  0.1007  0.0293  0.0653
25664W        W43188  16.637   9.950  15.795  0.1236  0.2979  0.0751
25665W        W43189  17.142  14.117  11.307 -0.1973  0.1671  0.1555
25666W        W43190  12.135   4.941   1.334 -0.0453 -0.5096 -0.2056
25667W        W43191  13.723  13.385  13.197 -0.1178 -0.1970 -0.0956
25668W        W43192  13.253   7.136   3.838 -0.1747 -0.0200 -0.1288
25669W        W43193  17.699   0.291   4.799  0.4319  0.2110 -0.0972
25670W        W43194  16.995  16.614  14.224 -0.0560 -0.2103  0.3631
25671W        W43195  17.086   5.106   6.198  0.3136 -0.1149  0.3510
25672W        W43196   2.289  13.233   3.619 -0.0946  0.1749  0.1894
25673W        W43197   3.893  14.527  13.880 -0.0179  0.1171 -0.3245
25674W        W43198  10.040   8.611   2.927  0.0037  0.1224 -0.0477
25675W        W43199  16.913  10.570  12.221  0.1999 -0.1199 -0.1724
25676W        W43200   5.481  14.281  16.193  0.1768  0.0521 -0.2274
25677W        W43201  17.048   1.364  12.986 -0.0082 -0.1098  0.0397
25678W        W43202   8.104   4.149  11.707  0.1364 -0.0538  0.2122
25679W        W43203   1.465   4.136  11.839  0.0674 -0.2536  0.1267
25680W        W43204  16.861  16.910   1.208 -0.1434  0.1000 -0.2842
25681W        W43205  16.365   3.998  14.353  0.0498 -0.1416  0.1121
25682W        W43206  12.573   8.579   3.123  0.3779  0.2322 -0.0760
25683W        W43207  11.929  15.140  15.077  0.0579  0.0947 -0.1900
25684W        W43208  17.377  13.066   0.637  0.2051 -0.0422 -0.1089
25685W        W43209   6.855   8.518  12.640 -0.2429  0.0622 -0.1785
25686W        W43210   8.025   0.656  15.778  0.3808  0.1314  0.0788
25687W        W43211   5.242  14.280  14.834 -0.0647 -0.1665 -0.1570
25688W        W43212   9.020  17.139   0.548  0.0388 -0.1108  0.1125
25689W        W43213  14.302   3.115  12.017  0.1651 -0.3137  0.0998
25690W        W43214  11.199  14.937  14.525  0.0181 -0.0885  0.0963
25691W        W43215  12.142  14.758   0.761 -0.0165 -0.1617  0.0517
25692W        W43216   5.187  17.324   2.536  0.1741 -0.0005 -0.1737
25693W        W43217   0.842   0.493   5.628 -0.0933 -0.3488  0.1703
25694W        W43218   8.642   0.197   0.049 -0.0558  0.0956 -0.0052
25695W        W43219   7.448  16.114  14.381  0.1306 -0.1959  0.0355
25696W        W43220   3.675  17.473   5.037  0.2118 -0.2867  0.0265
25697W        W43221  15.353  16.126   4.755  0.0523  0.0091 -0.1837
25698W        W43222   4.090  11.937   0.984  0.0854  0.0253  0.0658
25699W        W43223  10.218  17.618  14.395  0.0030  0.2027  0.2640
25700W        W43224  13.643  12.598   5.005 -0.1744  0.0299 -0.0785
25701W        W43225   4.194  17.348   2.601 -0.2119  0.0192  0.0329
25702W        W43226   3.857   7.113  13.005  0.1763 -0.0305  0.1664
25703W        W43227  17.683   3.841  11.421 -0.1215  0.0109 -0.0215
25704W        W43228  15.233   2.448  12.305 -0.3128 -0.1939  0.1611
25705W        W43229   9.390  12.662  11.945 -0.2666 -0.0274 -0.0573
25706W        W43230  12.433  16.513   4.289 -0.0589 -0.0340  0.1734
25707W        W43231   5.922  17.300   4.603  0.0750 -0.3526 -0.2379
25708W        W43232   6.667  13.237   5.434 -0.1017 -0.0419  0.1515
25709W        W43233  16.210   5.961  12.614 -0.1251  0.0292 -0.1001
25710W        W43234   2.326   2.447   2.594 -0.3184 -0.2024 -0.0202
25711W        W43235   1.515  11.171  15.522  0.1502 -0.1150  0.3458
25712W        W43236  11.380   7.350  13.576 -0.0992 -0.0346  0.2325
25713W        W43237   3.229   0.200   0.395  0.2601  0.4201  0.0307
25714W        W43238   2.721   6.848   4.648 -0.3606 -0.0463 -0.1124
25715W        W43239   1.022  12.564  12.626  0.1664  0.0213  0.1884
25716W        W43240  17.869  16.441   5.695 -0.1268  0.0086  0.1606
25717W        W43241   1.847   4.179  14.185 -0.3683  0.1199 -0.0298
25718W        W43242   8.247   6.737   3.396  0.0272 -0.4057 -0.1429
25719W        W43243  15.695  15.709   1.096  0.2278 -0.2160  0.1382
25720W        W43244   4.281   4.061   3.128 -0.0470 -0.0279  0.1640
25721W        W43245   5.145  15.096  14.162 -0.0162 -0.0125  0.1746
25722W        W43246   6.888   2.491  12.365 -0.1948  0.0437 -0.1501
25723W        W43247   7.512  13.186  11.127  0.1042  0.1686 -0.2084
25724W        W43248  15.554  16.305   2.302 -0.1740  0.1518  0.1696
25725W        W43249  12.975   5.008  11.330 -0.0918 -0.2868 -0.0034
25726W        W43250   5.985   7.182   3.855 -0.2303 -0.1458  0.0802
25727W        W43251   5.064   0.647  13.917 -0.1929 -0.6876  0.3961
25728W        W43252   4.099   5.534  13.166  0.1351 -0.0522 -0.0493
25729W        W43253  14.148   1.323  13.746  0.1540  0.0912  0.5566
25730W        W43254   7.903   0.793  11.786 -0.1896  0.2879  0.3149
25731W        W43255   2.429  17.113   2.206  0.0747 -0.1478 -0.3671
25732W        W43256   0.625  15.592  15.342 -0.0882 -0.0456 -0.1949
25733W        W43257   5.002   8.128   4.026  0.2149 -0.4810  0.1005
25734W        W43258   1.285   9.834   5.523  0.1443  0.1520  0.0894
25735W        W43259  12.372  16.500   0.875  0.0877  0.0236  0.0554
25736W        W43260  11.320   7.586  12.896  0.2265  0.2481  0.2335
25737W        W43261  10.119   6.769   1.479  0.0930  0.1198  0.0952
25738W        W43262   0.133  16.512  12.404  0.0888 -0.1279 -0.0150
25739W        W43263  14.008   6.433   1.818  0.1264  0.0574 -0.1956
25740W        W43264   5.412  13.852  13.429 -0.0409 -0.1247  0.0192
25741W        W43265  16.749  15.772   4.077 -0.1408 -0.0363  0.1588
25742W        W43266   1.316   1.978  14.350 -0.0081  0.0142  0.2247
25743W        W43267  12.462   6.149   0.176 -0.2356 -0.1810  0.1203
25744W        W43268  11.897   1.923  14.010 -0.0882  0.2744  0.0677
25745W        W43269   0.355  10.286  12.226  0.0310 -0.1556  0.3722
25746W        W43270  13.232   3.594   2.866  0.2842  0.0421  0.0862
25747W        W43271   7.067   0.883   4.830 -0.0560  0.0092 -0.1726
25748W        W43272  16.476  16.518   0.317  0.0779 -0.1034  0.2053
25749W        W43273   6.361  12.445  15.294 -0.0494 -0.1237 -0.2670
25750W        W43274   2.455  15.640  14.465 -0.1463  0.0684  0.0155
25751W        W43275   7.976  16.696  11.542 -0.0751 -0.0439 -0.0434
25752W        W43276   8.001   1.743  14.943 -0.0272  0.5105 -0.0921
25753W        W43277   1.272   0.083   3.988 -0.2364 -0.1366  0.1866
25754W        W43278  14.540  13.834   1.469 -0.0517 -0.2311  0.1322
25755W        W43279   7.999  17.135   4.617  0.1217 -0.1605 -0.1296
25756W        W43280   9.902   0.443  12.899  0.1545 -0.2906 -0.1270
25757W        W43281   2.724   0.809  13.512 -0.1950  0.1637  0.0565
25758W        W43282  17.347   9.163  15.017  0.1383  0.0167  0.2298
25759W        W43283  15.152  17.820   1.458  0.0085 -0.2568  0.1666
25760W        W43284   9.042   8.822   4.365 -0.0707  0.2779 -0.1387
25761W        W43285  16.775  14.893   1.771 -0.2254 -0.1626  0.0802
25762W        W43286   6.124  12.904  11.623 -0.0283  0.0328 -0.1745
25763W        W43287  17.820   6.399   5.051 -0.0234  0.1178 -0.2385
25764W        W43288  11.976   5.808  14.701 -0.0506 -0.1173 -0.3039
25765W        W43289   4.587  16.042   0.492  0.3006 -0.2519  0.2582
25766W        W43290  13.464   3.650   0.499 -0.0150  0.1827 -0.2787
25767W        W43291  14.040  12.658   1.989  0.2343  0.2560  0.0611
25768W        W43292  15.836   9.808  11.652 -0.2579  0.0285 -0.2911
25769W        W43293   4.149  17.379  11.525  0.0423  0.0137 -0.1260
25770W        W43294   8.210  13.234   1.923  0.2149  0.2167 -0.0526
25771W        W43295  15.319  16.656  13.637  0.0282 -0.1009  0.1851
25772W        W43296   9.217   7.471  12.293 -0.0873 -0.1332 -0.1003
25773W        W43297   9.258   0.524  14.559 -0.1901 -0.2750 -0.0618
25774W        W43298   5.126   0.066   1.847  0.0739 -0.0980  0.1482
25775W        W43299  14.339   6.188  13.910 -0.0465 -0.1597 -0.0432
25776W        W43300   2.475   9.164   4.786 -0.4230 -0.2726  0.0283
25777W        W43301   9.108  16.089   2.249  0.3796 -0.2771  0.2055
25778W        W43302  11.031   0.704  16.210  0.1944 -0.1607 -0.0050
25779W        W43303  15.552  14.586   3.396 -0.2194  0.1682  0.0631
25780W        W43304   3.406   4.498   3.469  0.0830  0.2085 -0.0047
25781W        W43305   1.889   9.261  14.772  0.4299 -0.0605  0.1424
25782W        W43306   8.539  13.415   0.988  0.1415 -0.1974  0.0311
25783W        W43307   4.550  11.550   2.473  0.2101  0.3263 -0.0533
25784W        W43308   0.658   7.846  16.062  0.0453  0.2447 -0.2426
25785W        W43309   1.875   0.515  15.408  0.2750  0.3878  0.3285
25786W        W43310   6.991   9.253   4.425 -0.2450  0.0285  0.3443
25787W        W43311   0.332   1.798  10.607 -0.0558 -0.0764 -0.0666
25788W        W43312   6.621   8.038  13.404 -0.0774  0.1564  0.0147
25789W        W43313   7.189   6.158  15.512 -0.0805  0.1339 -0.0731
25790W        W43314   6.898   8.051  12.879  0.0696  0.0629  0.0901
25791W        W43315  14.862  14.840   2.233  0.1697 -0.1492 -0.0890
25792W        W43316   6.524  15.854   1.689  0.1049  0.0756 -0.1117
25793W        W43317   2.910  11.470   1.527 -0.0729 -0.0951 -0.0882
25794W        W43318   2.880  16.947  13.623  0.1420 -0.3160 -0.1696
25795W        W43319   4.504   9.706   2.378  0.0861 -0.3161  0.2999
25796W        W43320   3.501   0.436   4.170 -0.0390 -0.1358 -0.5651
25797W        W43321   3.438   2.110   1.416  0.1888 -0.0661 -0.0838
25798W        W43322  11.004  14.331   0.992  0.5155 -0.0249  0.0755
25799W        W43323   3.878  11.268   1.468  0.0980  0.3695  0.0572
25800W        W43324  13.359  16.693  11.860 -0.1600  0.2002 -0.1815
25801W        W43325   8.227  15.440   2.201 -0.1131  0.0965 -0.1359
25802W        W43326  16.176   6.485   2.224  0.1903  0.0245  0.1006
25803W        W43327  11.862   3.465  14.184 -0.1377  0.0105 -0.0647
25804W        W43328  11.273   5.946   4.505 -0.0957  0.0274 -0.2004
25805W        W43329  15.762  16.946  14.100  0.1500 -0.1398 -0.1554
25806W        W43330  11.906  13.392   6.055  0.0607 -0.1691  0.0508
25807W        W43331   8.394  15.880  15.134  0.0512  0.3231  0.0571
25808W        W43332  13.174   0.704  11.515  0.0720 -0.0865 -0.0083
25809W        W43333   2.702   0.493  12.505  0.0887 -0.0569  0.0108
25810W        W43334  17.589  17.032   2.522  0.4140  0.0030 -0.0783
25811W        W43335   0.412   2.982  14.240 -0.1606  0.1620 -0.0714
25812W        W43336  12.565   3.566  13.399  0.1683  0.1576  0.1040
25813W        W43337   4.423  16.173   1.212  0.1658 -0.2175 -0.1094
25814W        W43338  14.483  14.882  13.027  0.1182 -0.2960  0.1120
25815W        W43339  16.271   4.390  14.817 -0.1652  0.0609 -0.0055
25816W        W43340  16.644  14.570  10.882  0.1083  0.2046 -0.1321
25817W        W43341  15.229  11.540  12.886 -0.0760  0.1138 -0.1167
25818W        W43342   7.947   0.263  15.453 -0.2188 -0.1929 -0.1429
25819W        W43343   4.883  17.929  13.637 -0.0950  0.0676  0.1537
25820W        W43344  11.259   2.758   3.226 -0.0095 -0.3029  0.1415
25821W        W43345   9.011  10.877  12.885 -0.0117 -0.1093 -0.2434
25822W        W43346   7.446   4.672  11.406 -0.1112 -0.1923 -0.0049
25823W        W43347   1.910   2.227  11.573  0.1051 -0.2508  0.0658
25824W        W43348   6.015   6.400  12.674  0.1704 -0.1410  0.1010
25825W        W43349   7.314   7.392   2.894  0.1130 -0.0323  0.2706
25826W        W43350   4.338  15.968   1.722  0.0381  0.0150 -0.1363
25827W        W43351   1.777  15.859   0.418  0.0298  0.1191  0.4368
25828W        W43352  10.831   6.702   1.607  0.0743  0.3222  0.3297
25829W        W43353  12.346  17.676  11.787  0.0117  0.1384 -0.1982
25830W        W43354   9.813   9.033  12.764 -0.1223 -0.2428 -0.2985
25831W        W43355   5.425  17.949  12.984  0.0760  0.2249 -0.0929
25832W        W43356  17.597   3.909   0.233  0.1363  0.1199  0.0905
25833W        W43357  12.550   7.737  11.916 -0.0709  0.1243  0.3963
25834W        W43358  10.517  15.385  12.243 -0.1452 -0.0397 -0.0282
25835W        W43359  12.179   4.687   0.937 -0.0333 -0.1306  0.0079
25836W        W43360  17.282  13.343  13.729  0.2008 -0.0128 -0.3888
25837W        W43361  15.413  13.633   1.029 -0.0740  0.2204  0.2066
25838W        W43362   7.167   1.439  11.974  0.0452 -0.1478 -0.0941
25839W        W43363  14.879   8.908   0.410  0.0159  0.0028 -0.2152
25840W        W43364   5.510  10.610  15.302  0.3472  0.0824 -0.3075
25841W        W43365   0.267   7.789  13.056  0.1842  0.2287 -0.2310
25842W        W43366  13.207   1.385   0.153 -0.2931  0.0737 -0.1904
25843W        W43367   1.779   9.861  13.639  0.1121 -0.0565 -0.1822
25844W        W43368   1.774  12.708  16.154 -0.2017  0.0324 -0.1505
25845W        W43369   8.033   1.793   3.871  0.2112 -0.0760  0.0972
25846W        W43370   2.662   6.319   4.713 -0.2908  0.0597 -0.3916
25847W        W43371   5.667   1.271  11.576 -0.2658  0.2266 -0.1583
25848W        W43372   1.539   5.561   0.699  0.0258 -0.0180 -0.2804
25849W        W43373   2.882  14.471   3.234 -0.3592  0.1338  0.0696
25850W        W43374   0.104  12.980   3.734 -0.1607  0.0540  0.1643
25851W        W43375  13.148   0.043   1.783 -0.2029 -0.0017 -0.0386
25852W        W43376   7.097  17.482   3.247  0.1085 -0.1659 -0.0563
25853W        W43377  10.397   1.462   0.168  0.4418  0.0580  0.3613
25854W        W43378  14.318  14.484  10.525  0.1415  0.1702  0.1656
25855W        W43379  10.929  17.927  15.040 -0.0455 -0.2138 -0.2896
25856W        W43380  15.860  12.379   2.741 -0.1252 -0.2045  0.0442
25857W        W43381  16.457   1.819   3.824 -0.1134  0.0826 -0.0692
25858W        W43382  14.270   6.510  15.003  0.1157  0.1464  0.0560
25859W        W43383   9.884  10.557  15.668  0.2116  0.1487 -0.1501
25860W        W43384  12.129   0.943   3.288  0.1178 -0.0411  0.2072
25861W        W43385  14.839  16.691  13.354 -0.3986  0.2379  0.1223
25862W        W43386  17.531   8.512   3.897 -0.2866 -0.3641 -0.3215
25863W        W43387  14.115   8.759   0.913 -0.0571  0.0524 -0.1125
25864W        W43388  12.442   4.427   9.903 -0.0998  0.1156  0.0788
25865W        W43389  14.787   8.010  13.206 -0.1113 -0.2258 -0.1147
25866W        W43390  15.559  15.882  14.797 -0.0372  0.3610 -0.2234
25867W        W43391  11.321   0.318   5.766  0.0902  0.1272  0.0111
25868W        W43392   7.588   9.816   3.733  0.0566 -0.0510 -0.0628
25869W        W43393  16.643   3.937  11.346  0.3209  0.1780  0.1175
25870W        W43394   8.581  17.582  13.404  0.0023  0.1443 -0.2515
25871W        W43395  13.107   7.792   5.262  0.0517  0.1705  0.0856
25872W        W43396   7.250   6.365   2.789 -0.1009 -0.2256 -0.0587
25873W        W43397   0.591   0.161  14.562  0.2449  0.0370  0.0512
25874W        W43398   6.196   9.218   1.186  0.0116 -0.1174  0.3005
25875W        W43399   3.598   0.058  12.398  0.2464  0.1235  0.0133
25876W        W43400   5.522   9.575   0.291  0.2053 -0.0457 -0.3392
25877W        W43401  17.213  10.401   9.811 -0.3026 -0.2365 -0.1539
25878W        W43402   5.082  17.155  13.165  0.0669 -0.1863 -0.2351
25879W        W43403  17.202  16.760  10.571 -0.1713 -0.0667  0.2678
25880W        W43404  14.965   8.780   4.680  0.0868 -0.1776 -0.0032
25881W        W43405   1.990  14.751  14.654 -0.2105 -0.0603  0.2203
25882W        W43406   3.657  11.311   0.740 -0.1703 -0.2485  0.2306
25883W        W43407   9.079  16.246  11.786 -0.2686  0.0911 -0.1815
25884W        W43408   2.209  13.036  14.571  0.0378 -0.1760 -0.0466
25885W        W43409   3.094   1.090  15.664  0.1197 -0.1276  0.0467
25886W        W43410   5.592  17.007   2.162 -0.1376 -0.0715 -0.1471
25887W        W43411  15.209  12.407   3.949  0.0678  0.2500  0.1385
25888W        W43412  16.224  13.572   1.140 -0.1944 -0.2056  0.2988
25889W        W43413   8.491   6.306  12.335 -0.1499  0.1990 -0.0209
25890W        W43414  16.209   3.070  15.603  0.0332 -0.2605  0.0126
25891W        W43415   7.760   4.498  15.922 -0.0363  0.0486 -0.1437
25892W        W43416   3.731   6.885   2.057  0.1387 -0.1574  0.2321
25893W        W43417  16.384   6.878  11.123  0.3686 -0.2032 -0.0452
25894W        W43418   7.458   6.524   3.224  0.1046 -0.1002  0.1473
25895W        W43419  11.942  10.624   0.575 -0.1352 -0.0220  0.1897
25896W        W43420   1.373   4.718  12.508  0.3261 -0.0873  0.1608
25897W        W43421  10.481   7.059   1.360  0.1550  0.0904 -0.1504
25898W        W43422  12.585   1.286   1.943  0.2418 -0.0131 -0.1372
25899W        W43423   4.872   2.575  12.668  0.2456 -0.0387  0.0036
25900W        W43424  10.008  10.481  13.218 -0.0458 -0.0293  0.0759
25901W        W43425  14.162   2.797   1.588 -0.1864  0.1781  0.1405
25902W        W43426  11.300   3.167  11.513  0.1237  0.1775  0.1372
25903W        W43427  15.356   1.701   3.549 -0.4254 -0.2930  0.1585
25904W        W43428   2.970   2.768  15.744  0.0299  0.0303 -0.2241
25905W        W43429  14.642   9.094  11.450  0.0195  0.1215  0.1406
25906W        W43430   6.124   4.019   4.139  0.1284 -0.3734 -0.0897
25907W        W43431  13.996   5.911   3.856  0.2181  0.2967 -0.0818
25908W        W43432  13.197   6.738  10.969  0.0727  0.2451  0.0845
25909W        W43433  11.511  13.215  11.599 -0.1351  0.4582  0.2518
25910W        W43434   1.841   3.270  11.823  0.0838 -0.2105  0.0262
25911W        W43435  13.862  10.990  10.714 -0.1595 -0.1370  0.2641
25912W        W43436   5.362   5.649  11.874 -0.0690 -0.0180 -0.1400
25913W        W43437   1.844   4.571  12.822  0.0100  0.0259  0.2074
25914W        W43438  16.273   9.894   4.063  0.2019  0.2216 -0.2740
25915W        W43439   6.833  16.126   3.152 -0.0378 -0.1695 -0.2920
25916W        W43440   9.204   6.302  12.949 -0.2059  0.3251  0.1681
25917W        W43441  14.054  16.234   3.361 -0.1618  0.1104  0.2076
25918W        W43442  13.712  10.510   2.207  0.1249  0.3620  0.4981
25919W        W43443   9.508  14.819   2.543 -0.0623  0.0474 -0.1640
25920W        W43444  13.526  17.259   3.548 -0.2021  0.4705  0.3344
25921W        W43445   4.386  11.190   2.201  0.0722 -0.1350 -0.1952
25922W        W43446   2.046   5.821   6.099  0.3029 -0.0695  0.0915
25923W        W43447   9.302   5.036  11.441 -0.0170 -0.1677  0.2224
25924W        W43448   3.172   0.383   2.574 -0.1244  0.2161  0.2262
25925W        W43449   2.397   7.753  10.537  0.3787  0.2167  0.4031
25926W        W43450  11.084   4.804  14.779  0.2123  0.0175 -0.0857
25927W        W43451   2.929  11.684  15.300  0.1990 -0.2976  0.0206
25928W        W43452   4.943  11.524  14.575 -0.0278  0.2820  0.1944
25929W        W43453   6.091  13.224   4.859  0.0169 -0.0774 -0.0959
25930W        W43454   0.716  15.696  12.764  0.2679 -0.0140  0.2704
25931W        W43455   9.858   0.067   3.884  0.0353  0.1402 -0.2971
25932W        W43456   9.527  15.241   0.890 -0.0459  0.0529  0.1401
25933W        W43457   9.319   8.444   5.323 -0.0919  0.0404 -0.0784
25934W        W43458   5.027   8.066  15.843 -0.1722  0.0905 -0.0765
25935W        W43459  13.335   2.423  14.997 -0.1764  0.1214 -0.0389
25936W        W43460   6.192  11.773  12.879  0.0105 -0.0825 -0.1337
25937W        W43461   8.791   3.542   2.347  0.2537 -0.0725 -0.0958
25938W        W43462  13.100  15.939  15.730 -0.1591 -0.0692  0.1393
25939W        W43463   4.224   2.711  15.376  0.1088  0.0709 -0.1905
25940W        W43464   4.691   6.500   1.760 -0.2132  0.2042  0.2257
25941W        W43465   3.852   3.387   4.750 -0.0911  0.1385  0.0479
25942W        W43466   8.452  15.666  14.394 -0.0964 -0.2067 -0.1712
25943W        W43467   9.686   8.861  11.700  0.2471  0.2135  0.0110
25944W        W43468   8.529   1.543   0.917 -0.1008 -0.0353 -0.0553
25945W        W43469  16.376   0.731  12.958  0.3687  0.0117  0.2032
25946W        W43470  14.419   2.213   3.827  0.4908  0.0612  0.3254
25947W        W43471   2.122   7.250   2.004  0.0815  0.0816 -0.1687
25948W        W43472  14.007   8.705  12.100  0.1622  0.1395  0.0516
25949W        W43473  10.430  12.097   0.032 -0.0425  0.1518 -0.2344
25950W        W43474   6.835  12.591   4.717  0.0311  0.1037  0.0141
25951W        W43475  12.406   4.848  10.898 -0.2275 -0.1164 -0.2166
25952W        W43476  17.426   1.587  15.174 -0.0796 -0.2058 -0.4457
25953W        W43477   6.744  16.782   0.997  0.2568  0.1040 -0.2716
25954W        W43478   8.690   4.701  15.748 -0.2121 -0.0286  0.2322
25955W        W43479   0.781   8.318   3.660  0.0201  0.0280 -0.2724
25956W        W43480   9.002  16.782   1.718  0.2405  0.1549 -0.0467
25957W        W43481   1.965   7.589   2.686 -0.0884 -0.2071 -0.0186
25958W        W43482   0.118  15.193   1.497  0.1196  0.1178 -0.3266
25959W        W43483   1.737   7.882  13.589  0.0891 -0.1485  0.1237
25960W        W43484  16.338  13.779   1.606  0.1481 -0.0328  0.0207
25961W        W43485  17.869  13.743   1.158 -0.0807 -0.0520  0.0337
25962W        W43486  13.100  11.500  11.772 -0.0328  0.1865  0.2432
25963W        W43487  17.454   7.017   0.651  0.0486 -0.0262 -0.1346
25964W        W43488  10.440  11.252  11.535 -0.0992  0.0866 -0.2381
25965W        W43489   2.286  11.156   2.675  0.0917 -0.2459 -0.2114
25966W        W43490   5.035   0.175   3.799  0.1821 -0.3022  0.0918
25967W        W43491  14.797   3.516   4.047 -0.0100 -0.0049  0.1113
25968W        W43492  14.009   3.782   4.617  0.2361 -0.0255 -0.1120
25969W        W43493  16.261  12.066   0.557 -0.1710 -0.0527  0.3714
25970W        W43494  16.766   3.384   5.056 -0.0990 -0.1132  0.1637
25971W        W43495   5.610   2.234  13.028 -0.1890  0.3071 -0.3051
25972W        W43496   4.455  12.133  10.881 -0.0576 -0.0011  0.1210
25973W        W43497  17.321  17.589  14.828  0.2190  0.0802  0.0816
25974W        W43498   4.803   8.678   0.026 -0.1626  0.0559  0.4085
25975W        W43499   7.541  15.397   0.844 -0.0815  0.0872 -0.0226
25976W        W43500   7.252  15.675  12.976  0.0019 -0.2015 -0.1858
25977W        W43501  12.927   7.218   4.847 -0.4655  0.3705 -0.1419
25978W        W43502   5.086   0.084   2.790  0.2186  0.1302  0.0477
25979W        W43503   6.494   9.501   0.224  0.0803  0.0114 -0.2734
25980W        W43504  12.327  10.130  11.707 -0.0410  0.1166  0.2394
25981W        W43505  16.307   1.063  14.771 -0.0311 -0.0520  0.0326
25982W        W43506   2.704   1.374   4.791  0.2027 -0.1305  0.1032
25983W        W43507  15.552  14.391   4.657 -0.0864 -0.2772  0.0534
25984W        W43508  14.079   3.061   0.389  0.1314  0.2630 -0.2052
25985W        W43509   1.935  10.071  14.087  0.0815  0.1602 -0.0734
25986W        W43510  13.574  10.829   2.681  0.1326 -0.0524  0.1154
25987W        W43511   1.245   6.211  16.069 -0.1836 -0.0719 -0.0768
25988W        W43512   0.333   0.914  11.688  0.1319 -0.2353  0.1748
25989W        W43513   3.680   4.579  12.229  0.0113 -0.3023  0.1136
25990W        W43514  11.331   6.014   2.727 -0.0561 -0.0429 -0.0477
25991W        W43515  14.892   2.363   1.427 -0.0814 -0.1245 -0.1368
25992W        W43516  11.820   0.693  14.577 -0.1855  0.0549 -0.2869
25993W        W43517   6.177   6.442  14.567 -0.3072 -0.1184  0.0923
25994W        W43518  17.311  12.783  11.535  0.0580  0.1307  0.0115
25995W        W43519   7.188  15.812   5.347  0.3062 -0.0993 -0.1975
25996W        W43520  15.533   5.758  15.409 -0.1832 -0.2827  0.4527
25997W        W43521   1.024  13.429   0.397 -0.0494  0.0228 -0.2604
25998W        W43522   0.549   3.487  14.974 -0.0678 -0.0029  0.0306
25999W        W43523   9.320  10.357  11.643  0.1836  0.1244 -0.1880
26000W        W43524   0.927  17.730   2.619 -0.1880  0.0696 -0.2383
26001W        W43525  15.873   4.259  12.062  0.0065  0.1199  0.2097
26002W        W43526   1.708  12.518  12.354 -0.0148  0.2191 -0.0677
26003W        W43527  17.552  12.475  13.717  0.2483 -0.0443 -0.0470
26004W        W43528  12.810   4.948  15.165  0.1045  0.0618  0.0242
26005W        W43529   5.020  16.191  12.680 -0.3341  0.1123 -0.0120
26006W        W43530   0.419  10.242   2.746 -0.0724  0.2861 -0.3069
26007W        W43531   4.575  16.440  15.916 -0.0469 -0.2346  0.2681
26008W        W43532   0.875   6.384  13.959 -0.4472  0.3724  0.1033
26009W        W43533   4.245   9.957  15.306  0.2565  0.0397  0.1409
26010W        W43534   9.732  14.793   0.888  0.0641 -0.0389 -0.4477
26011W        W43535   8.815   7.279   3.059 -0.3167 -0.1724  0.2221
26012W        W43536  16.721  15.352   4.909 -0.3091 -0.0322  0.0721
26013W        W43537  11.581   6.064  11.067  0.1600 -0.1581  0.1478
26014W        W43538   7.190  15.433  14.879  0.1186 -0.2431  0.1489
26015W        W43539   9.279   5.873  16.013 -0.0660 -0.0944 -0.2438
26016W        W43540   3.535  16.677   0.288  0.0128 -0.0671  0.1562
26017W        W43541   1.404   8.622  15.745  0.2972 -0.2854 -0.1288
26018W        W43542   8.201  16.819   2.604  0.2839  0.0323 -0.3152
26019W        W43543  11.157   9.273   4.377  0.4290 -0.2201 -0.1450
26020W        W43544   6.015  11.173   5.929 -0.0567 -0.3177 -0.0582
26021W        W43545  14.782   0.870   1.665  0.0121 -0.0541 -0.0888
26022W        W43546   2.101   9.369   3.285  0.3125  0.0246 -0.0015
26023W        W43547   1.654  13.972   0.566 -0.3582  0.0369 -0.1370
26024W        W43548  11.802  14.665  15.431 -0.5156  0.1089  0.3073
26025W        W43549   4.549   8.829   5.048 -0.1670  0.1323  0.0326
26026W        W43550   4.419  16.534   3.217  0.0445  0.0854  0.3052
26027W        W43551   1.140  16.767   4.630  0.2298  0.2653 -0.2673
26028W        W43552  13.333   7.111  14.535 -0.1885  0.0687  0.0234
26029W        W43553   3.513   9.559  15.728 -0.1581  0.1672  0.1896
26030W        W43554  11.329   8.884   2.576  0.1280 -0.0064  0.0546
26031W        W43555   5.882   9.397   3.617 -0.1073 -0.0943  0.0032
26032W        W43556  16.095   6.676   4.558  0.1295  0.1964 -0.0418
26033W        W43557  13.647   9.933  13.608  0.0110  0.2719  0.1332
26034W        W43558   4.524   3.897  14.660 -0.1500  0.0824 -0.2952
26035W        W43559   3.476   9.497   4.419 -0.0434  0.0475 -0.2091
26036W        W43560   9.202  14.980  13.434  0.0721  0.0147  0.1943
26037W        W43561   4.876  10.618  11.592  0.2244  0.1889 -0.0684
26038W        W43562  15.939  12.680  12.724  0.2092  0.0509  0.1209
26039W        W43563   3.143  15.024   2.929  0.0757 -0.2226 -0.2098
26040W        W43564   0.849  15.685   0.839  0.1964 -0.2714 -0.1456
26041W        W43565  10.625   5.478  16.176 -0.2865  0.0612 -0.0338
26042W        W43566   0.623  14.956  14.558 -0.1486  0.1560  0.0396
26043W        W43567   0.814   8.096  12.950 -0.1336 -0.0418  0.2530
26044W        W43568  16.956  11.706   3.924 -0.0945  0.1973 -0.0217
26045W        W43569   1.077  11.377  13.525 -0.0737 -0.3569  0.0764
26046W        W43570   4.862  17.894  16.005  0.2978 -0.2499 -0.1599
26047W        W43571  15.711   9.278   0.635 -0.1067  0.0197  0.0141
26048W        W43572   7.935   5.058   2.887 -0.3683 -0.5017  0.0543
26049W        W43573  15.030   6.380  15.602  0.2001  0.0522  0.1776
26050W        W43574  11.492  10.546  14.706 -0.0676  0.0070 -0.1564
26051W        W43575   2.250  12.680  15.928  0.0038  0.2780 -0.1018
26052W        W43576   7.657  14.697  11.574  0.1879  0.1128 -0.0502
26053W        W43577   2.915  12.721   0.783 -0.3935  0.0265  0.2108
26054W        W43578   9.596   1.841   0.241 -0.1945 -0.1055 -0.0256
26055W        W43579  15.689   2.667  11.387  0.1855 -0.1030 -0.1215
26056W        W43580   4.469   1.701  10.988  0.1570  0.5149  0.1404
26057W        W43581   9.789   3.985   3.253 -0.2010 -0.0503  0.0641
26058W        W43582  17.228   1.470  14.274  0.0442  0.0926 -0.1077
26059W        W43583  10.143  10.335   4.365  0.1701 -0.2866  0.0251
26060W        W43584  11.357  16.626  12.958  0.3649  0.0922 -0.2963
26061W        W43585   6.681   7.317   1.088 -0.0768  0.3883  0.0028
26062W        W43586   9.487  12.187   5.215  0.0920  0.1976 -0.0871
26063W        W43587   3.167   9.996  12.733  0.2122  0.1620 -0.2802
26064W        W43588   5.653   8.559  11.785 -0.0672 -0.0711 -0.1313
26065W        W43589   4.998  17.740   2.299 -0.2082 -0.2238  0.0564
26066W        W43590  11.612  12.664  14.571 -0.0702  0.0753 -0.0177
26067W        W43591  13.616   0.023  11.836 -0.0310 -0.0401 -0.2243
26068W        W43592  14.996  12.825   0.510  0.2235 -0.0079  0.2266
26069W        W43593  13.501   7.003  13.983  0.0071 -0.1692 -0.2913
26070W        W43594   6.442   1.646   0.521  0.0493  0.1887  0.0446
26071W        W43595   9.995   2.354  15.043  0.1204 -0.1654 -0.1748
26072W        W43596   6.594   6.305   3.915 -0.0038  0.0908  0.2854
26073W        W43597  10.431  13.574  15.545 -0.1115  0.0100  0.0139
26074W        W43598  13.116   3.026  15.923  0.1292 -0.1384 -0.0142
26075W        W43599  15.844   3.817   3.355  0.1746 -0.0325 -0.0033
26076W        W43600   9.431  10.822  11.391  0.0494  0.0270  0.0825
26077W        W43601   3.913   0.328   3.194 -0.0480  0.1224  0.2049
26078W        W43602   5.109  13.276  12.109 -0.2790 -0.5161 -0.0328
26079W        W43603   0.510  11.008  13.967  0.0422  0.0687  0.1500
26080W        W43604  10.681   8.895   1.341 -0.1576  0.2455 -0.0597
26081W        W43605  15.587  16.571  12.796  0.3052  0.4256 -0.3661
26082W        W43606   9.924  11.991  11.370 -0.1394  0.1219 -0.1414
26083W        W43607  16.067  14.268   4.572  0.2095  0.0143  0.3531
26084W        W43608   0.395   8.479   2.133  0.0561  0.1617 -0.1574
26085W        W43609  12.924  14.911  11.625 -0.1469 -0.0703  0.2050
26086W        W43610   7.365  14.567   2.913 -0.3782  0.0143 -0.0848
26087W        W43611  15.120  15.742   2.420 -0.0858  0.2243 -0.2150
26088W        W43612  17.110   1.783   1.302  0.1878  0.1183  0.1371
26089W        W43613  12.527  13.384  12.717 -0.2288  0.2315 -0.0312
26090W        W43614   3.917   9.512  13.730  0.0996  0.3026 -0.1231
26091W        W43615   0.075  13.078   3.196  0.0994  0.1389 -0.0880
26092W        W43616  16.270   4.668  11.725  0.0419  0.0476 -0.3078
26093W        W43617   1.367   0.458   2.064 -0.0910 -0.0403  0.2302
26094W        W43618   6.347  15.195   3.967  0.1289  0.1012  0.0473
26095W        W43619   6.104  15.423   3.593  0.3079 -0.0775 -0.0349
26096W        W43620  10.584   0.173   1.377  0.0348 -0.1117 -0.1577
26097W        W43621  14.002  12.354   0.320 -0.4167  0.2348  0.2520
26098W        W43622  13.325   9.321  12.102 -0.2087  0.1388 -0.0013
26099W        W43623   0.343  17.214  10.488  0.0115  0.4832 -0.0501
26100W        W43624   9.869  11.983  13.324  0.0185  0.0831  0.1042
26101W        W43625  13.924  17.880  13.811  0.0230 -0.0266  0.3851
26102W        W43626  12.272   0.704   1.254  0.1417  0.2267 -0.0415
26103W        W43627   5.734  17.168   5.275 -0.1892  0.1046 -0.0246
26104W        W43628  10.566   4.387   3.429 -0.1958  0.1165 -0.1105
26105W        W43629   2.113   7.053   3.445  0.0210  0.1520  0.2456
26106W        W43630  12.269   2.172   3.589  0.3551 -0.2881 -0.0892
26107W        W43631   1.933  11.391  15.316  0.0400  0.0696 -0.1546
26108W        W43632  15.671   6.398  13.680 -0.0018 -0.0227  0.3065
26109W        W43633  13.684  14.729  13.391  0.0378  0.3485 -0.0072
26110W        W43634   4.349   2.380   1.440  0.0375 -0.1017 -0.5453
26111W        W43635   3.717   1.691   1.395 -0.2443 -0.0143  0.2156
26112W        W43636  10.991  11.281  14.203 -0.2640 -0.1235 -0.0228
26113W        W43637   2.734   5.750  15.389 -0.2904 -0.2291  0.0712
26114W        W43638   5.262   7.364  15.287 -0.0267  0.3562  0.0501
26115W        W43639   3.252  16.811  12.574 -0.1301 -0.1362  0.0848
26116W        W43640   7.902  16.795   0.838 -0.0487  0.1896  0.0685
26117W        W43641   2.843   0.534   2.131  0.1510  0.1586 -0.0278
26118W        W43642  12.619  17.854   4.070  0.3268  0.1240 -0.3833
26119W        W43643   9.479  15.711  15.751 -0.2147 -0.1172  0.4213
26120W        W43644  11.939   7.352   1.170  0.2280  0.2418  0.0907
26121W        W43645   2.636   0.059   0.864  0.1818  0.2752 -0.0084
26122W        W43646  15.708  11.653   3.948  0.0943  0.2200  0.0934
26123W        W43647  15.029   4.523   1.229 -0.0194 -0.1452 -0.2086
26124W        W43648  14.028  16.869  12.833 -0.2573 -0.1052  0.0466
26125W        W43649  14.355  15.488  11.270  0.0237  0.0061  0.3710
26126W        W43650   0.818  17.568  15.775  0.1425 -0.0484  0.1035
26127W        W43651  14.247   1.094   4.114  0.0052  0.2676 -0.2799
26128W        W43652  14.421  10.894  12.937 -0.1819 -0.2309  0.2242
26129W        W43653  17.456   1.305  11.747 -0.0284 -0.0891  0.0961
26130W        W43654   4.938   2.781   0.849  0.0976  0.0669  0.1514
26131W        W43655  17.617   4.058  13.109 -0.0318  0.1563 -0.0939
26132W        W43656   9.538  13.520   3.340  0.2241 -0.1612 -0.1491
26133W        W43657   4.367  12.788   5.062  0.0060  0.0390 -0.2502
26134W        W43658   8.363   4.600  11.595 -0.3833  0.2069  0.1043
26135W        W43659  14.630  15.576  15.737  0.0914  0.2148  0.0178
26136W        W43660   3.230   0.158   4.488 -0.0068  0.0700 -0.3424
26137W        W43661   0.273   1.365  11.498  0.0217 -0.1065 -0.0006
26138W        W43662  11.103   2.808   2.725  0.0966 -0.0365 -0.1183
26139W        W43663   4.611   8.973  12.506 -0.0817  0.1612 -0.0817
26140W        W43664   1.021   0.915  11.311 -0.3150  0.1973 -0.1999
26141W        W43665   3.538   0.268  11.953  0.2996  0.1903  0.0951
26142W        W43666  16.928   8.873   2.267  0.0593 -0.0442 -0.0382
26143W        W43667   6.981   0.594  13.553 -0.4054 -0.1566  0.0445
26144W        W43668  13.630   9.866   4.931  0.2114 -0.1961 -0.1979
26145W        W43669  14.881   5.530  14.784 -0.0310  0.0511 -0.0019
26146W        W43670  13.819   6.830   2.665 -0.0647 -0.0762  0.2172
26147W        W43671   6.385  10.232  13.385  0.0725 -0.0127  0.1549
26148W        W43672   9.754   2.191  15.501 -0.1024 -0.0500  0.1925
26149W        W43673  17.293  11.359  10.060  0.0570  0.1785 -0.2031
26150W        W43674  14.875   9.863   0.626  0.1527  0.1681 -0.0129
26151W        W43675  17.753  14.348   3.083  0.0018  0.1978 -0.0115
26152W        W43676   5.024   9.622   6.177  0.0644  0.1823  0.2989
26153W        W43677   9.568  12.397   2.232  0.1259 -0.0231  0.1408
26154W        W43678   6.746   2.726   2.129 -0.3446  0.1536  0.0350
26155W        W43679   2.088   2.288   0.867 -0.1643 -0.0031 -0.2503
26156W        W43680  13.127  13.826  14.096  0.2947  0.0884  0.1744
26157W        W43681   9.400  13.456   5.330 -0.1883 -0.3193 -0.1100
26158W        W43682  14.969  12.023  12.855  0.2770 -0.1376  0.0971
26159W        W43683   8.345   7.678   2.242  0.2035  0.0848  0.2055
26160W        W43684  13.738   6.331  11.767  0.0295  0.0571  0.1321
26161W        W43685  15.799   5.208   0.993  0.2923 -0.0877  0.0505
26162W        W43686   9.770   4.886   3.861 -0.4051  0.0572 -0.3081
26163W        W43687   3.437   4.467   2.100 -0.1985  0.1840  0.2086
26164W        W43688   4.899  11.739  12.495  0.1361  0.0710  0.0106
26165W        W43689  15.430  13.645   0.539  0.0640 -0.0497 -0.2832
26166W        W43690   1.258  12.904   5.029  0.0467 -0.0849  0.2331
26167W        W43691  17.080  14.418  15.894  0.0830  0.0257 -0.3505
26168W        W43692   8.181   2.692  13.286  0.1221  0.0492  0.2570
26169W        W43693   2.075  16.126  14.539 -0.0601  0.1813  0.1129
26170W        W43694   5.806   7.218  13.065  0.2784 -0.0138  0.1347
26171W        W43695  16.312   3.455   4.792  0.0224 -0.1736  0.2746
26172W        W43696  11.468  15.163  14.105  0.1388 -0.0640 -0.1737
26173W        W43697  12.751   5.833   1.633  0.2262  0.0952 -0.4194
26174W        W43698   1.546   7.487  11.371  0.1217 -0.0979 -0.2258
26175W        W43699  14.126   9.528  12.998 -0.0214  0.0486  0.0724
26176W        W43700  14.099  14.521   4.946  0.1037 -0.2058 -0.4876
26177W        W43701  10.751   3.063   1.943  0.1204 -0.1078  0.1620
26178W        W43702  14.493   1.586   3.391  0.2799  0.2651 -0.1182
26179W        W43703   8.042  10.077  14.303  0.0930 -0.3339 -0.2794
26180W        W43704  11.036  12.492  14.923 -0.2808  0.0471 -0.3899
26181W        W43705   9.089   8.390   2.251  0.2349  0.3323  0.2055
26182W        W43706  16.037  16.073   1.010 -0.0070 -0.1971 -0.1218
26183W        W43707  16.284   2.220  15.157 -0.1100 -0.3584 -0.1036
26184W        W43708   3.542  13.284  13.938  0.0453 -0.2881 -0.2252
26185W        W43709   4.733   0.460  13.542 -0.2288 -0.0982  0.1055
26186W        W43710  13.853   9.823   5.428 -0.1270 -0.1761 -0.0839
26187W        W43711  15.041  16.597   0.295 -0.1219  0.0343  0.2247
26188W        W43712   9.092   3.084  11.836  0.0011  0.1757 -0.1090
26189W        W43713  14.814   2.369   4.709  0.1536 -0.1498  0.0139
26190W        W43714  14.710  10.268  11.191 -0.1562  0.0306  0.0706
26191W        W43715  16.841   6.366   0.496 -0.0208  0.3104  0.1704
26192W        W43716   0.985   3.616  13.226 -0.2628  0.1276  0.0584
26193W        W43717   7.662   6.148   1.633  0.0833  0.2039  0.0121
26194W        W43718   5.571   0.011   1.592  0.1246  0.0242 -0.1289
26195W        W43719   5.156  17.776   5.114  0.0161  0.1695  0.0742
26196W        W43720  11.953   2.681  13.244 -0.2192 -0.1630 -0.0750
26197W        W43721   4.589   1.667   4.910  0.4796  0.0245 -0.0452
26198W        W43722   4.151  13.918   3.492 -0.5160 -0.1774 -0.0553
26199W        W43723  11.527  17.214  15.002 -0.1479 -0.2250  0.1734
26200W        W43724   8.820   6.606   3.992  0.1153  0.0284 -0.2348
26201W        W43725   5.699  11.526   0.652 -0.4047 -0.0414 -0.0400
26202W        W43726   4.101  15.962  14.386 -0.3026 -0.2318  0.2041
26203W        W43727  16.525  12.582   4.009  0.3233  0.0170 -0.1415
26204W        W43728  15.356   1.086  12.489  0.1218  0.0111 -0.0480
26205W        W43729  15.799   2.933  15.917 -0.0632  0.0168  0.0617
26206W        W43730   7.041   7.119   3.267 -0.2903  0.2043 -0.3533
26207W        W43731  14.391   8.714   4.206 -0.2884 -0.0212 -0.0196
26208W        W43732  15.198   8.891  13.267 -0.2587  0.3433  0.1504
26209W        W43733  10.125  10.301  15.133 -0.1645  0.1061 -0.0119
26210W        W43734   4.400   6.417   3.812  0.0247 -0.0405  0.1804
26211W        W43735   3.678  17.736   3.254  0.2171  0.0410  0.0728
26212W        W43736   5.258   5.451   5.017  0.1950  0.0054 -0.0669
26213W        W43737   0.711   2.228  12.671 -0.1216 -0.2619 -0.2367
26214W        W43738   2.234   8.242   2.201  0.0956 -0.1929  0.1323
26215W        W43739  12.884  14.812  13.399  0.0775  0.0189  0.0161
26216W        W43740   2.277  10.996   1.775  0.3823 -0.3304  0.0953
26217W        W43741  11.394   5.238   3.959 -0.0512  0.1608 -0.0601
26218W        W43742  16.151   6.130  14.741  0.0626 -0.0773 -0.1518
26219W        W43743  11.194   3.678   3.372  0.0488  0.0402 -0.0010
26220W        W43744   0.723   4.468   0.942 -0.1258  0.0197  0.3039
26221W        W43745  15.859  11.639   5.486  0.2091 -0.4190 -0.0443
26222W        W43746   3.975   4.959   4.573  0.1276 -0.2028  0.2267
26223W        W43747  15.831   6.373   0.177  0.0660  0.2200 -0.0314
26224W        W43748   8.904   4.228  15.934  0.0867 -0.0916 -0.2462
26225W        W43749   6.173  16.764   0.969 -0.0123  0.1528  0.0681
26226W        W43750  14.195   1.405  12.014  0.0058  0.0736 -0.0307
26227W        W43751   5.025   9.537   2.049  0.0618 -0.0948 -0.1002
26228W        W43752   5.858   3.297   2.736 -0.1845 -0.0847  0.1036
26229W        W43753   1.982  14.335   1.636  0.2138 -0.3048  0.1439
26230W        W43754   9.619   7.433  14.871  0.1110  0.0821  0.0011
26231W        W43755   3.584  17.526   2.036  0.0402 -0.2847  0.1646
26232W        W43756   3.721   7.372  12.503 -0.1055  0.3148  0.1292
26233W        W43757   4.661   2.931  15.228 -0.1051 -0.1117  0.0751
26234W        W43758  16.161  14.658   1.890  0.1116  0.1763  0.0824
26235W        W43759   3.733   3.846   2.227  0.0229 -0.1075 -0.2843
26236W        W43760   9.265   7.431   4.202 -0.1356  0.0504  0.0122
26237W        W43761   4.088  15.929   0.307 -0.0174  0.2089 -0.2948
26238W        W43762   7.715  13.951   1.344 -0.0238 -0.0160  0.1027
26239W        W43763  14.220  10.024  15.531  0.2028  0.0974  0.0584
26240W        W43764   7.763   3.428  11.873  0.4276 -0.1179 -0.3324
26241W        W43765  14.886   4.190  14.196 -0.0757 -0.0435 -0.0743
26242W        W43766   4.577  13.531  14.582  0.0530  0.1465  0.0383
26243W        W43767  14.022   6.963   0.462 -0.2570 -0.0058 -0.2526
26244W        W43768  15.702   4.267   1.654 -0.1209  0.2113 -0.1093
26245W        W43769   8.078   7.548  12.354  0.2432  0.0139 -0.1056
26246W        W43770   2.781   1.448   3.820  0.1320 -0.2432  0.2919
26247W        W43771  15.580   0.259   0.644 -0.0253 -0.0569 -0.1837
26248W        W43772   8.020   3.684  15.146  0.1201  0.1877 -0.1167
26249W        W43773  13.362   4.071  14.335  0.2728 -0.1340  0.0346
26250W        W43774   0.770   9.721   1.033  0.4497  0.0857  0.0162
26251W        W43775   4.555   1.178  15.667 -0.0469 -0.3244  0.1731
26252W        W43776   7.739   7.718  15.916  0.0121  0.2235 -0.0776
26253W        W43777  15.468  16.844  10.237 -0.0912 -0.1800  0.3007
26254W        W43778  15.438   6.396   0.555  0.1998 -0.0958  0.0455
26255W        W43779   7.244   9.893   2.118  0.0743  0.2485 -0.1436
26256W        W43780  11.873  16.531   0.818 -0.2109  0.1571  0.2266
26257W        W43781  10.540   2.165   2.752 -0.3554 -0.3679 -0.0347
26258W        W43782  12.108   0.970  14.905 -0.0321 -0.0732 -0.1730
26259W        W43783  16.538   7.090   4.751  0.0601 -0.0077 -0.1575
26260W        W43784  16.295  14.131  13.329 -0.1665  0.0113 -0.1632
26261W        W43785  12.261   2.459  12.030  0.1385 -0.0761 -0.1899
26262W        W43786  16.278  11.825  12.683 -0.1845  0.2856  0.3854
26263W        W43787  11.931   1.128  12.145  0.0920 -0.0048  0.2655
26264W        W43788  15.933   1.165  15.124  0.1453  0.1093 -0.0006
26265W        W43789  14.905  16.527   4.444 -0.1920  0.0386  0.2217
26266W        W43790  11.323   2.047   0.207  0.0022 -0.3420  0.0057
26267W        W43791  13.756   3.843  13.389 -0.0003 -0.2444 -0.0869
26268W        W43792  16.650   4.704   2.477  0.0681  0.0476 -0.1467
26269W        W43793   8.491   5.540  14.003  0.0469 -0.2018 -0.1767
26270W        W43794   3.946   6.086  12.132 -0.0374  0.0121 -0.2648
26271W        W43795   0.213  14.874   4.560  0.1306 -0.2894 -0.2053
26272W        W43796  14.618  10.674   3.290 -0.0979  0.0365  0.4445
26273W        W43797  15.193  10.789   2.264 -0.1869 -0.1306 -0.1000
26274W        W43798   6.075   3.803  10.418 -0.1643 -0.0328 -0.1311
26275W        W43799   1.985  16.935   4.326 -0.2248  0.2427 -0.2434
26276W        W43800  16.161  17.652   3.062  0.1078  0.5198  0.2978
26277W        W43801  16.074   8.307   2.202 -0.1564 -0.0606  0.0235
26278W        W43802   0.288  16.160   3.929  0.2185  0.1363 -0.0373
26279W        W43803  13.694  15.801  11.981 -0.0334  0.2115  0.1112
26280W        W43804   4.489   6.812  10.652 -0.0661  0.0952  0.2281
26281W        W43805  15.177   2.741   0.468  0.0969  0.1831 -0.4753
26282W        W43806   9.623   6.223   3.673  0.1579  0.1908  0.0821
26283W        W43807   8.935   9.038  15.064 -0.2999  0.0435  0.0260
26284W        W43808  16.305   4.815  15.062 -0.0806 -0.1217 -0.3117
26285W        W43809  17.508   2.203  15.985 -0.0302 -0.0952  0.0455
26286W        W43810   2.516   2.679  12.775  0.1620 -0.1954  0.3166
26287W        W43811  16.521  12.874   0.395 -0.1867 -0.3012 -0.1933
26288W        W43812   5.173  11.252  14.948  0.0833 -0.0603  0.1699
26289W        W43813   0.215   0.228   0.174 -0.0059 -0.3941 -0.0708
26290W        W43814   2.605  14.036   0.267 -0.1633 -0.1745 -0.0408
26291W        W43815   8.414   1.410  15.115 -0.2976 -0.0974 -0.3118
26292W        W43816   2.217   9.654  15.708  0.0867  0.2194  0.2657
26293W        W43817   5.970  17.733   3.131 -0.1837  0.0592 -0.0421
26294W        W43818  15.587   6.837  11.265  0.4224 -0.2075  0.0056
26295W        W43819   7.397   2.439   4.236 -0.1874  0.2056  0.0038
26296W        W43820  12.354  17.352   4.009  0.0082  0.0066  0.1977
26297W        W43821  16.399  16.893   5.893 -0.1697 -0.1123 -0.0441
26298W        W43822   6.449   2.009  14.942 -0.1354 -0.1702 -0.1892
26299W        W43823  10.472   4.249   1.608  0.1261  0.2371  0.3712
26300W        W43824  16.352  17.262   5.530  0.0573  0.0872 -0.3525
26301W        W43825   7.731  15.738   4.443 -0.0776  0.1550 -0.0863
26302W        W43826  16.675  11.175   0.378  0.0122  0.4100 -0.4356
26303W        W43827   8.702   4.364  14.801 -0.2599 -0.2777  0.0108
26304W        W43828  16.847  13.055   2.227 -0.1090 -0.0671 -0.1705
26305W        W43829  16.491   8.586   2.273 -0.0505  0.2048 -0.0394
26306W        W43830   3.204   4.409  13.824 -0.2382  0.1435  0.3078
26307W        W43831  16.411  15.313   5.303 -0.1532 -0.2626  0.0366
26308W        W43832  10.585  13.410   2.869  0.6116  0.0847 -0.0588
26309W        W43833   6.060   8.201   4.399 -0.3123  0.1205  0.0951
26310W        W43834   6.418  10.279   4.577  0.2091 -0.0756 -0.0976
26311W        W43835  12.841  14.788  12.163  0.2936  0.0350  0.0105
26312W        W43836   6.854  11.048  15.995  0.3995  0.0751 -0.0916
26313W        W43837  15.482   0.310   4.292 -0.1608 -0.0462  0.3516
26314W        W43838  14.999  17.772   0.963  0.3394  0.1086  0.2360
26315W        W43839   7.383   0.437   1.574  0.1206 -0.0381  0.1296
26316W        W43840  11.413  16.285  12.156 -0.0489  0.2870 -0.2053
26317W        W43841  17.693   1.511   2.273  0.1146 -0.1295  0.1158
26318W        W43842   7.332   3.091  14.632  0.2202  0.1134  0.1755
26319W        W43843   3.381  11.376  15.055 -0.1059 -0.0381 -0.2237
26320W        W43844   0.472  17.694  12.620  0.1854 -0.0905 -0.3030
26321W        W43845  16.788  11.748   3.409  0.2630 -0.2576  0.2865
26322W        W43846   0.162  11.430  15.623 -0.3551  0.2059 -0.0407
26323W        W43847  14.824   6.617   1.314 -0.0144 -0.0913  0.3128
26324W        W43848  16.236   5.240  11.862 -0.0624  0.1516  0.1566
26325W        W43849   3.866  12.285   2.866 -0.2618 -0.2393  0.2158
26326W        W43850   8.324   8.679   0.479  0.0476  0.0980  0.0492
26327W        W43851   9.958  14.935   4.603  0.0360 -0.0274 -0.4052
26328W        W43852   0.585  16.272   5.094  0.2064  0.3952  0.1370
26329W        W43853   8.867   2.263  13.855  0.0805  0.0746 -0.1183
26330W        W43854   0.518   5.566   1.631  0.5162 -0.0000  0.0582
26331W        W43855   8.116   1.095   1.367  0.1582  0.0166 -0.0938
26332W        W43856   3.076   0.892   4.606  0.0434  0.0154 -0.0508
26333W        W43857  14.635   9.988  12.417 -0.0870 -0.1125  0.0311
26334W        W43858   1.010   9.879  14.765  0.2624  0.2528  0.1591
26335W        W43859   4.711   4.287  13.875  0.1704  0.0854 -0.0319
26336W        W43860  16.528   1.436   0.763  0.0269  0.2155 -0.1775
26337W        W43861  17.262  12.896   2.531  0.1958  0.0284  0.0489
26338W        W43862  13.279   4.185   3.599  0.0500  0.1000  0.0155
26339W        W43863   7.556   5.568  16.077  0.0641  0.0510  0.0206
26340W        W43864  17.410  12.813  15.918 -0.3232  0.1066 -0.1338
26341W        W43865   7.126  11.778  11.806  0.3368 -0.2870 -0.1547
26342W        W43866   1.133  11.090   0.860  0.0162  0.2529 -0.3024
26343W        W43867   1.711  17.642  13.396  0.1258 -0.0472 -0.0599
26344W        W43868   9.784  12.764  12.522 -0.0978 -0.1996  0.2041
26345W        W43869   4.623   7.042   2.841 -0.3650 -0.1679 -0.0717
26346W        W43870   4.305  12.907   0.842  0.0978 -0.0459 -0.1386
26347W        W43871   0.530   6.722  14.284  0.2016  0.1796 -0.0159
26348W        W43872   0.993   6.151   1.142  0.3328  0.0556 -0.0175
26349W        W43873   5.611  15.477  14.108 -0.4513  0.2268  0.2571
26350W        W43874   3.835  12.529  14.915  0.0329  0.1474  0.2355
26351W        W43875   1.834   6.447   2.975 -0.0807 -0.0286  0.3550
26352W        W43876  13.520   1.657  16.036  0.1239 -0.1999  0.1735
26353W        W43877   9.439  15.458   1.812  0.1636  0.2197 -0.1865
26354W        W43878  17.142  15.966  11.753 -0.0693  0.2982  0.2803
26355W        W43879   7.212  13.152  11.920  0.0840 -0.2118 -0.2369
26356W        W43880   5.723   4.125   3.181  0.0314  0.2252 -0.0754
26357W        W43881   5.308   3.275   0.734 -0.2260  0.1894  0.1597
26358W        W43882   8.564   9.410  12.775 -0.0150  0.0377 -0.2455
26359W        W43883   4.908   0.048   3.317  0.3796 -0.0499  0.2188
26360W        W43884  16.406  16.993   3.751  0.0972 -0.1072  0.0104
26361W        W43885  13.167  17.149  12.026 -0.0061  0.1650  0.0343
26362W        W43886   0.591   2.236  15.564 -0.2577 -0.2711  0.0097
26363W        W43887   5.079   1.986   1.310 -0.0524  0.1682 -0.3768
26364W        W43888  17.102  11.023   0.800  0.3197  0.0402 -0.0442
26365W        W43889   9.239  11.523   1.617 -0.1565 -0.0307 -0.2357
26366W        W43890  12.115  16.469  14.401  0.3417  0.0564  0.0137
26367W        W43891  16.257   4.250  10.515 -0.0823  0.0063 -0.2581
26368W        W43892  16.863   8.237  11.118 -0.1628 -0.3817 -0.0853
26369W        W43893   9.969   7.427   2.187 -0.2426  0.0023  0.1981
26370W        W43894  15.686   3.270  13.217  0.0224  0.0576  0.1177
26371W        W43895  17.141   3.806   0.466  0.0487 -0.1853  0.0588
26372W        W43896  12.627   2.558   0.628  0.0201 -0.1687  0.0267
26373W        W43897  15.367   4.655   2.570 -0.1056  0.0657 -0.2193
26374W        W43898  14.559   7.411   2.711  0.0552 -0.0623  0.0737
26375W        W43899  10.868   9.809  12.320  0.2527  0.3488  0.0515
26376W        W43900  13.280  13.288  12.511 -0.1159  0.0888 -0.2233
26377W        W43901   0.661   7.280   1.536  0.0627  0.0637  0.3253
26378W        W43902   7.907  15.018   2.364  0.0482  0.2983  0.1814
26379W        W43903  16.859   8.125   0.547  0.1281 -0.1006  0.0453
26380W        W43904  17.659   0.192   2.620 -0.0458  0.1992  0.4254
26381W        W43905  12.499  16.100  16.233 -0.0266 -0.0961  0.3887
26382W        W43906  16.006   7.470  14.843 -0.3610 -0.0129  0.2385
26383W        W43907   1.456  11.779   3.411  0.0340 -0.0488 -0.1239
26384W        W43908  11.945   2.369   2.234 -0.3474 -0.0512  0.0283
26385W        W43909  10.264  11.024   0.442  0.1978 -0.2202 -0.2757
26386W        W43910  14.850   9.421  13.717 -0.0426 -0.0898  0.0218
26387W        W43911  17.844   6.700  15.082  0.3358  0.0738 -0.2162
26388W        W43912  16.620   6.075   0.996 -0.3565  0.0538 -0.0946
26389W        W43913   4.125  10.243  14.261  0.0265 -0.1520 -0.2249
26390W        W43914   4.195  11.148  16.211 -0.1711 -0.1246 -0.0935
26391W        W43915   4.085  16.726   4.570 -0.2694  0.0883  0.3106
26392W        W43916  13.606   2.198   3.952 -0.0242 -0.0369  0.1480
26393W        W43917   6.508   1.313  14.438  0.1447  0.0934 -0.2370
26394W        W43918   6.926   3.246   4.432  0.1209 -0.0397 -0.0925
26395W        W43919   3.423   1.790   0.295  0.1893 -0.1000 -0.2796
26396W        W43920   5.474   1.831   0.920 -0.1782  0.0539 -0.1029
26397W        W43921   1.718   6.323   0.201  0.0725  0.1247  0.1235
26398W        W43922   8.252   9.030   4.242  0.0296  0.3026  0.0236
26399W        W43923   3.773  17.947  15.788  0.2244  0.1692 -0.0796
26400W        W43924  17.687  10.399  10.312  0.1114  0.2055  0.0344
26401W        W43925   4.750   7.678   4.198  0.1080 -0.1921 -0.1144
26402W        W43926  11.037  11.799   4.980 -0.2821  0.4390  0.3377
26403W        W43927  15.503  11.820  14.314 -0.0649  0.3737 -0.2390
26404W        W43928   8.081   9.601  11.569 -0.1964  0.3535 -0.0787
26405W        W43929   3.022  11.518  14.612 -0.0641  0.1189  0.0212
26406W        W43930   3.071   5.690   0.731  0.0243  0.0451  0.0323
26407W        W43931  16.996   8.645   3.192  0.1414  0.0109 -0.0218
26408W        W43932  17.597   4.709   2.259  0.1428  0.1152 -0.0572
26409W        W43933   0.385   7.926   2.086 -0.1657  0.1446  0.0429
26410W        W43934  11.185   3.953   4.222 -0.0126 -0.0288 -0.1213
26411W        W43935  16.248  17.864   4.949 -0.0290  0.0419 -0.0842
26412W        W43936   4.867  13.682  13.490  0.2902  0.1060 -0.1106
26413W        W43937   0.224  15.589  12.675 -0.0431  0.1305  0.0245
26414W        W43938   3.186   8.081   4.312  0.0921 -0.0937  0.1395
26415W        W43939   4.401   1.917   4.118  0.0619 -0.1623 -0.1516
26416W        W43940  10.469  14.628  13.314 -0.0349  0.0631  0.0260
26417W        W43941   4.332   1.398   2.897 -0.2229 -0.0463 -0.1253
26418W        W43942   3.234  12.960  14.259 -0.1937  0.4289  0.0529
26419W        W43943  12.555   6.518  14.209  0.0354 -0.3348  0.0139
26420W        W43944   9.400  14.078   0.663 -0.0342 -0.1273 -0.1118
26421W        W43945  12.424   0.206  11.154 -0.0223  0.0853  0.1636
26422W        W43946  11.905   9.473  12.980 -0.1150  0.2367  0.0064
26423W        W43947  11.585   2.244  13.171 -0.0803  0.2251  0.1507
26424W        W43948   5.810  17.615  12.072  0.1133  0.0890  0.0050
26425W        W43949   3.995   1.775  11.288  0.1003  0.1692  0.1562
26426W        W43950   0.848   2.319  13.209 -0.1134  0.1493 -0.0325
26427W        W43951  14.689  10.478   4.698  0.2967 -0.1082  0.2181
26428W        W43952  13.035   4.624   1.447  0.0589  0.0027  0.1611
26429W        W43953   7.306  10.163   2.592  0.1952 -0.0726  0.2107
26430W        W43954   8.731  16.969  13.821  0.1868  0.1401 -0.1452
26431W        W43955   4.617  11.635  15.602  0.3161  0.1924 -0.1391
26432W        W43956  13.782  14.379  14.533 -0.0758 -0.0989  0.3743
26433W        W43957   4.915   4.955   0.441  0.3721 -0.3434  0.0812
26434W        W43958   1.845   8.343   3.312 -0.2354 -0.0056 -0.2638
26435W        W43959   0.819   0.986   0.483 -0.0134  0.0195 -0.0848
26436W        W43960   1.361   1.049   4.957 -0.1144  0.0740  0.2216
26437W        W43961  13.813   7.464   5.025  0.0479  0.0029 -0.0913
26438W        W43962  10.127  16.628  14.505 -0.0465  0.3967 -0.0466
26439W        W43963   0.607   8.350   4.606 -0.0910  0.1176 -0.3924
26440W        W43964   0.324   7.302   3.200 -0.2373 -0.1720 -0.2774
26441W        W43965  17.304  16.262  13.931 -0.2548  0.1393 -0.2889
26442W        W43966   7.396  10.962  12.874 -0.3095  0.2186 -0.1289
26443W        W43967   9.921   4.521   1.538 -0.1867  0.2297  0.2709
26444W        W43968   5.624  12.195   5.094  0.0514  0.0326 -0.0814
26445W        W43969  15.160  17.361   0.676  0.0076  0.0513  0.0675
26446W        W43970  12.843  16.540   2.502  0.0049  0.0476 -0.1268
26447W        W43971  13.396   4.134  11.874  0.1440 -0.0527  0.2905
26448W        W43972  13.455   7.413   2.061 -0.1245  0.1336 -0.3105
26449W        W43973   7.206   7.132  12.648 -0.1700 -0.0601  0.2790
26450W        W43974  11.488  10.466   0.319 -0.2283  0.0252 -0.1573
26451W        W43975   1.918   4.389   4.187  0.0823 -0.0943  0.0194
26452W        W43976   1.145  13.896  11.730  0.0546 -0.2565  0.0049
26453W        W43977  13.102   0.941  12.478 -0.2280  0.0469  0.0253
26454W        W43978  12.588  11.685   1.683  0.0355 -0.0222  0.0599
26455W        W43979   2.103  11.068   5.913  0.1233  0.1128 -0.2216
26456W        W43980   7.738  12.971   3.076 -0.1123  0.0317 -0.0657
26457W        W43981   5.762   9.389  16.160  0.1428  0.1134  0.0161
26458W        W43982  13.215  14.355   1.173 -0.1917 -0.0644  0.0839
26459W        W43983   9.860   2.776   3.962 -0.0973 -0.0976 -0.4363
26460W        W43984  15.451  17.362   2.754  0.1413 -0.1560 -0.0664
26461W        W43985   1.819  13.890  16.184 -0.0080  0.1324  0.0164
26462W        W43986   2.827  15.639   1.701 -0.1301 -0.0238 -0.2602
26463W        W43987  17.665   6.523   4.584 -0.0451  0.1298 -0.0691
26464W        W43988  15.563  12.269   3.316 -0.0423  0.2487  0.1643
26465W        W43989  11.453   2.711  13.864 -0.1123 -0.0331  0.1253
26466W        W43990  16.713   2.480  14.483  0.1634  0.2576  0.2733
26467W        W43991   4.738  14.529  12.084  0.4371 -0.2909  0.1355
26468W        W43992   3.297  14.284  12.734 -0.1351 -0.1387 -0.0959
26469W        W43993  14.112  13.066   1.449 -0.2870 -0.0134  0.0837
26470W        W43994  17.554  12.023  13.301  0.0053  0.0049  0.0321
26471W        W43995  12.783  13.122  15.236  0.1092 -0.2903 -0.5014
26472W        W43996   4.861  14.703   3.406 -0.2671 -0.2781 -0.0280
26473W        W43997   2.969  11.362   3.507  0.1676 -0.0032  0.1066
26474W        W43998  14.084   6.534   3.575  0.3645  0.0108  0.3223
26475W        W43999   1.668  13.377   1.676 -0.1525 -0.0725 -0.3944
26476W        W44000   4.770   6.862  13.251  0.0842  0.1086 -0.0195
26477W        W44001   0.538   8.933   0.143  0.4411 -0.2572  0.0912
26478W        W44002   1.985   6.450   5.212 -0.0560  0.1500  0.0978
26479W        W44003  14.614  11.860   2.990  0.0759 -0.1611 -0.0126
26480W        W44004  14.097   5.084   1.507 -0.3303 -0.0220  0.0400
26481W        W44005   6.909   5.721   4.148 -0.3530  0.0550  0.1249
26482W        W44006   9.298  17.505   1.625  0.0924 -0.0949  0.3525
26483W        W44007  15.339  14.527  12.305  0.0118 -0.2781 -0.2076
26484W        W44008   9.587   9.638   4.842 -0.0336  0.1111  0.0146
26485W        W44009   4.784   8.224  14.389 -0.1388 -0.0680  0.0967
26486W        W44010   6.340   1.624  14.102  0.0817  0.1556  0.0900
26487W        W44011  10.728  11.161   0.242 -0.1098  0.2080  0.1182
26488W        W44012  10.744   0.236  15.429 -0.2392 -0.1036  0.1970
26489W        W44013   0.979  16.535  14.859  0.0418 -0.0773 -0.1477
26490W        W44014  10.150  17.352   1.488  0.0338 -0.2615 -0.2610
26491W        W44015   7.612   7.279  12.322  0.0002  0.1477 -0.2241
26492W        W44016  11.795  11.533  14.695  0.0931 -0.0244 -0.2346
26493W        W44017  11.173   4.721  12.646 -0.3529  0.0122 -0.2254
26494W        W44018   6.994   3.434   2.333  0.0124 -0.3936  0.0668
26495W        W44019   5.699   4.805   0.822  0.0375  0.3830  0.0097
26496W        W44020  13.325   1.625   1.926  0.0518  0.0232 -0.3842
26497W        W44021  13.476   4.731   1.314 -0.1198  0.1063 -0.3058
26498W        W44022  10.930   5.411   2.467 -0.2932 -0.0901  0.1972
26499W        W44023   5.413  15.253  15.789  0.1116  0.2145 -0.0288
26500W        W44024   7.284   8.660  14.286 -0.1244 -0.3689  0.3220
26501W        W44025  15.322   1.013  13.868  0.1820  0.0650  0.2701
26502W        W44026   7.643   4.895  14.535  0.1997  0.0570 -0.2697
26503W        W44027  15.996   6.242  11.813 -0.0538  0.3578 -0.2675
26504W        W44028   8.429  12.689   4.660 -0.0606  0.0829 -0.1163
26505W        W44029  11.909   1.235   3.633  0.1967 -0.0638  0.1374
26506W        W44030   6.249  14.822  13.064  0.0647 -0.1951  0.0549
26507W        W44031   3.448   1.337  13.737  0.0895  0.2242  0.0782
26508W        W44032  16.836   9.957  13.554 -0.0055  0.0050 -0.1817
26509W        W44033   4.005   5.808  14.609  0.1508 -0.1739 -0.1717
26510W        W44034   3.122   5.567  14.681 -0.0509 -0.1090  0.2249
26511W        W44035  11.979   2.388   0.719  0.1590 -0.3259  0.1296
26512W        W44036  14.397  12.652  13.996  0.2348  0.0897  0.2407
26513W        W44037  15.066   3.449  13.097  0.0815 -0.0295  0.0024
26514W        W44038  13.765   0.141   3.735  0.1490  0.2650 -0.1879
26515W        W44039   2.937  17.300   4.008  0.1221  0.2127 -0.0360
26516W        W44040   4.068   1.923  11.768 -0.2472 -0.1594  0.0087
26517W        W44041  11.281  16.182   1.840  0.1885  0.0529  0.0804
26518W        W44042  12.215  12.237  16.178  0.1190 -0.3719 -0.1990
26519W        W44043  11.654   3.972   4.370  0.2077  0.2164  0.0246
26520W        W44044  16.401  15.158   2.116 -0.1781 -0.0442  0.2252
26521W        W44045  16.109  17.435   1.492  0.0364  0.0126  0.3318
26522W        W44046   7.377  16.065  15.700 -0.0226 -0.0220  0.0155
26523W        W44047   4.617   7.639  13.495 -0.1353 -0.0867 -0.0917
26524W        W44048  14.238   8.319  11.954 -0.0941 -0.2886 -0.1083
26525W        W44049   7.774  17.625  12.092  0.3258 -0.0514  0.1544
26526W        W44050   6.128   9.296   5.619 -0.0536  0.0802  0.3831
26527W        W44051   8.858  11.415  15.914 -0.3025 -0.0549 -0.2309
26528W        W44052   0.582  17.774  13.143  0.0133  0.0665  0.0265
26529W        W44053  16.530   7.401  10.295 -0.1367 -0.0426 -0.2674
26530W        W44054   2.685   6.062   0.187  0.0602  0.1569 -0.1199
26531W        W44055   5.232  13.071   1.054 -0.1780 -0.0738 -0.0645
26532W        W44056   6.628  16.015  16.163 -0.3808 -0.1039 -0.0612
26533W        W44057   2.207  12.533  14.683 -0.0939  0.1283  0.2967
26534W        W44058  14.197   5.261   2.462 -0.1150  0.2670 -0.1655
26535W        W44059   8.640  12.175   5.622  0.0888 -0.2362  0.0124
26536W        W44060  12.192   9.194   2.126  0.2755  0.0440 -0.1077
26537W        W44061   0.506   0.741   1.081 -0.1113 -0.2427  0.1713
26538W        W44062  14.536   4.557  14.006 -0.1481  0.0464  0.0206
26539W        W44063  12.177  13.377  12.238  0.0804 -0.0413  0.0755
26540W        W44064  13.313  12.213  14.377  0.2719  0.0405 -0.2223
26541W        W44065  13.730  12.729  11.253 -0.0976  0.1490 -0.0254
26542W        W44066   0.280   3.828  12.002 -0.2248  0.1623 -0.1493
26543W        W44067   9.840   9.543  12.903 -0.0124 -0.1185 -0.0256
26544W        W44068  13.947   7.876   3.863 -0.5087 -0.2883 -0.0741
26545W        W44069  10.545   1.656  12.391 -0.0688 -0.1385 -0.1306
26546W        W44070   4.365   9.752  12.993  0.0797 -0.0023  0.1808
26547W        W44071   5.966   8.954  16.150 -0.1438  0.1892  0.0421
26548W        W44072   5.165   4.186  14.254 -0.2356 -0.2219 -0.2079
26549W        W44073  10.798   0.260  12.383 -0.2980  0.0552  0.1555
26550W        W44074  13.165   2.104  11.922  0.1427  0.2276 -0.1611
26551W        W44075   0.143   8.177  15.444  0.2360 -0.0565  0.3444
26552W        W44076   9.463  13.716  10.197  0.0193 -0.0563  0.2797
26553W        W44077  10.921   1.872   2.873  0.1653 -0.1241 -0.0282
26554W        W44078  12.200  12.077  15.307  0.2752 -0.1115 -0.2827
26555W        W44079   8.493  16.610   1.878 -0.1344  0.0350  0.0961
26556W        W44080  10.083   5.375  11.681 -0.1406 -0.2353 -0.0509
26557W        W44081  17.684  10.668   2.858 -0.0218 -0.0347 -0.1552
26558W        W44082   1.560   2.733  14.884  0.2829  0.1758 -0.1197
26559W        W44083   4.183   3.341  11.141 -0.0866 -0.0539 -0.1469
26560W        W44084  12.018  16.460  12.059 -0.0434  0.3891 -0.1177
26561W        W44085  10.629  10.009   3.234 -0.0439  0.0005 -0.1815
26562W        W44086   3.803   9.572   6.031 -0.0531 -0.1705 -0.0273
26563W        W44087   8.281   5.858   3.408 -0.0887 -0.1404 -0.0813
26564W        W44088  14.473  14.539   3.585 -0.3857 -0.1585 -0.2977
26565W        W44089   5.566  12.618   2.572 -0.0407 -0.0552 -0.1677
26566W        W44090   0.566  17.904  10.647 -0.0370  0.0584  0.1003
26567W        W44091   7.386   8.438   2.405 -0.0119 -0.0315  0.0056
26568W        W44092  15.337   5.636   2.775  0.0732  0.1759 -0.3065
26569W        W44093   0.461   7.915   3.446 -0.0218 -0.3101 -0.1463
26570W        W44094   5.150   1.789   5.856 -0.0295  0.0416  0.1682
26571W        W44095  10.112   8.195  12.984  0.0379  0.0951 -0.2574
26572W        W44096  16.097   1.009  15.554  0.0227  0.0112  0.0269
26573W        W44097   6.270  15.411   1.832  0.0244  0.1812 -0.0849
26574W        W44098   6.996  13.239   2.969 -0.1290 -0.2063  0.0765
26575W        W44099  10.345   7.280   5.158  0.0588  0.0649  0.0633
26576W        W44100   7.534   8.567  15.285 -0.0302 -0.0434 -0.0137
26577W        W44101   3.783  17.579   4.193  0.2254  0.1184 -0.2055
26578W        W44102  14.486   9.028   4.611  0.2911 -0.1640 -0.1500
26579W        W44103  16.104  14.158  11.804 -0.0954 -0.2485 -0.0516
26580W        W44104   7.553  13.090  15.099  0.1675  0.1498 -0.0917
26581W        W44105   3.618   5.155  11.836 -0.2307 -0.1576 -0.2947
26582W        W44106  16.859  17.240  12.903  0.0265 -0.1639  0.3775
26583W        W44107   5.176   2.119  15.027 -0.0089 -0.0278 -0.0163
26584W        W44108   4.496  12.476   1.056 -0.0270 -0.0761 -0.2554
26585W        W44109  15.358   9.509  15.374 -0.2502 -0.1673  0.2666
26586W        W44110   1.295  13.830   4.387  0.3058  0.0095  0.0543
26587W        W44111   1.095  14.466   0.431  0.1196  0.2418 -0.1689
26588W        W44112   8.350   0.688   4.427  0.0238 -0.0035 -0.0808
26589W        W44113   9.017   2.809   2.790 -0.3510  0.2207  0.2475
26590W        W44114  12.005   6.932   2.391 -0.2872  0.0783 -0.2089
26591W        W44115   2.742  12.842  15.856 -0.1014 -0.0404  0.1978
26592W        W44116   6.175   0.351  14.623  0.1838 -0.3057  0.1438
26593W        W44117  13.616  11.936  12.343  0.2714  0.0444 -0.1887
26594W        W44118  12.946  11.511   1.385 -0.2016 -0.0718 -0.2471
26595W        W44119  10.680  17.215  14.453 -0.1216 -0.0161  0.0639
26596W        W44120   8.406   4.020  14.981  0.3617 -0.1139 -0.0176
26597W        W44121  11.846   9.106  15.240  0.0872  0.2808  0.2695
26598W        W44122  12.172  15.882   3.856  0.3004  0.2388 -0.0612
26599W        W44123  16.673  10.918   1.360  0.2321  0.2505  0.0915
26600W        W44124  16.783   0.443  13.048 -0.3338  0.1889 -0.3446
26601W        W44125   7.037   9.182   2.131 -0.0682 -0.1333 -0.0177
26602W        W44126  12.547  11.863   5.912 -0.2008 -0.0256 -0.0656
26603W        W44127   3.941  11.205   3.913 -0.0499 -0.0624 -0.0391
26604W        W44128   8.051  14.819  13.204 -0.3522 -0.1605 -0.0339
26605W        W44129   3.707  12.297  13.744 -0.4199  0.2214  0.1791
26606W        W44130  13.087  15.756   3.968 -0.0121  0.1296  0.0724
26607W        W44131   0.623   9.116   1.674  0.1743 -0.0710  0.1424
26608W        W44132   6.673   3.906  13.144  0.1917 -0.1165 -0.1476
26609W        W44133  11.681  10.634  13.193  0.1076  0.0903 -0.2976
26610W        W44134  16.325   3.550   0.226  0.1317  0.0686  0.2413
26611W        W44135  11.210  17.187  14.566  0.2479  0.2665 -0.0750
26612W        W44136   3.361   0.943   0.831 -0.0597 -0.0387 -0.3614
26613W        W44137   7.355   1.697   0.622  0.0343 -0.2196  0.2374
26614W        W44138  15.689   1.805  11.457  0.1097 -0.2042 -0.1322
26615W        W44139   9.358   8.990   4.007 -0.0571  0.0975 -0.0345
26616W        W44140  10.702   0.544  14.180  0.5065 -0.1845  0.3867
26617W        W44141  11.194  10.688  12.864  0.1894 -0.6795 -0.4571
26618W        W44142  17.574  13.875  14.456 -0.1726 -0.1177 -0.2444
26619W        W44143   0.280  17.344  15.935  0.1089 -0.0242  0.0852
26620W        W44144   7.567  16.132   4.762 -0.3223  0.3784  0.0256
26621W        W44145  12.329   8.077   3.299  0.0792 -0.0266 -0.0625
26622W        W44146   8.012  10.391   2.988  0.0758  0.3199 -0.1055
26623W        W44147  13.199  17.148  13.254 -0.1244  0.0299 -0.0783
26624W        W44148   2.523   3.069   1.399 -0.1310  0.0170  0.0477
26625W        W44149   2.468   9.892   4.861  0.1029 -0.0463  0.0039
26626W        W44150  10.855   2.062  14.338  0.1605  0.1974  0.2207
26627W        W44151   6.107   3.133   5.301 -0.0772 -0.1261 -0.4213
26628W        W44152   2.811   5.965   3.198 -0.2702 -0.4071 -0.3276
26629W        W44153  16.815  15.011   0.474  0.1246 -0.0066 -0.0947
26630W        W44154   5.690  16.455  13.666  0.0876 -0.0316 -0.0521
26631W        W44155   5.454   5.108   0.468  0.2342  0.1334  0.0667
26632W        W44156  10.571   2.622   0.697  0.0304 -0.2246 -0.2142
26633W        W44157   7.270  14.911   5.060 -0.2560  0.1106 -0.0933
26634W        W44158   5.223   4.888   1.293 -0.3025 -0.2338 -0.1043
26635W        W44159   6.061   8.039  14.310  0.2139 -0.0817 -0.0398
26636W        W44160   6.297  12.581  12.676 -0.2749  0.1574  0.0829
26637W        W44161  11.673  16.017   3.155 -0.1254  0.1022  0.0109
26638W        W44162  14.883   2.249  16.030  0.2274  0.0955 -0.1990
26639W        W44163  14.939  13.369  13.081  0.2431 -0.2961 -0.0603
26640W        W44164  15.718   3.802  12.381  0.1331  0.2270  0.0006
26641W        W44165  11.385  17.441  13.612  0.0605  0.0105 -0.0410
26642W        W44166   8.427   9.528   4.659  0.1757 -0.0218  0.0740
26643W        W44167  11.140  14.972   3.595  0.0101 -0.0581 -0.0467
26644W        W44168  11.454   6.917  15.468  0.1075  0.0573  0.1764
26645W        W44169   9.639  14.116  15.078 -0.1008  0.5337 -0.4622
26646W        W44170   4.371  12.859   2.488  0.0783  0.1023  0.0102
26647W        W44171   2.514  12.087   5.387 -0.0622 -0.0070  0.1504
26648W        W44172   4.570  16.748   5.702 -0.0019 -0.0201  0.1677
26649W        W44173  12.162  13.606   0.569 -0.0722  0.1085 -0.0690
26650W        W44174  11.909   0.709  15.564 -0.1690  0.1312  0.1206
26651W        W44175   0.696  14.077   1.810  0.0355  0.1380 -0.1953
26652W        W44176  12.107  13.330   2.145 -0.0586  0.1692  0.0749
26653W        W44177   0.852   7.347  14.376 -0.1162  0.2483  0.0969
26654W        W44178   1.369  11.233   1.455  0.0554  0.1039 -0.0095
26655W        W44179  10.030   5.980   3.276 -0.0466 -0.0775 -0.1607
26656W        W44180   9.084   2.221  11.500  0.0572 -0.0347 -0.0029
26657W        W44181   7.665   8.898  12.314 -0.2292 -0.3361 -0.2908
26658W        W44182   2.137   8.033   3.688 -0.1973 -0.2073 -0.3072
26659W        W44183  17.467   6.187  16.075 -0.1113 -0.0951  0.2481
26660W        W44184   8.049   8.487   1.791  0.2349  0.0248  0.1247
26661W        W44185   5.725   9.533  14.288  0.3179  0.0961  0.2260
26662W        W44186  14.210   5.342  14.282 -0.4499 -0.4302 -0.0558
26663W        W44187  11.070  12.996  14.708  0.1392  0.1222  0.0124
26664W        W44188  10.639   5.678   6.043 -0.2385 -0.1254 -0.1083
26665W        W44189  16.003   6.886   2.549  0.1645  0.2687 -0.1418
26666W        W44190   5.712  13.068   1.844  0.1441 -0.0359  0.0858
26667W        W44191   6.891   0.739   1.022  0.2817  0.3176  0.4576
26668W        W44192  17.696  15.064   0.865  0.0219 -0.2106 -0.0093
26669W        W44193   3.756   8.172   2.131  0.0060 -0.0436  0.2176
26670W        W44194   3.912   0.537  15.999  0.0716 -0.0758 -0.0696
26671W        W44195  11.963   2.057   4.003  0.0992 -0.1537  0.2551
26672W        W44196  16.182   9.399   3.921 -0.1906 -0.0834  0.0665
26673W        W44197  10.896   0.848  13.298 -0.1385 -0.3240  0.0082
26674W        W44198   3.747  14.397  15.615 -0.3828  0.0150 -0.1617
26675W        W44199  14.309  16.464  15.254 -0.1901 -0.4500 -0.1187
26676W        W44200  17.150  13.308  11.318 -0.1656  0.0663  0.0015
26677W        W44201  10.655  13.186  16.024 -0.0606  0.1091 -0.0039
26678W        W44202  13.284   5.768  13.866  0.0680 -0.2076 -0.1924
26679W        W44203   0.690   9.642  11.421  0.0502  0.0839  0.2787
26680W        W44204  17.094  14.819   2.516 -0.0858  0.1998  0.2636
26681W        W44205  15.111   5.135  13.659 -0.0232  0.2249  0.0880
26682W        W44206   9.764   8.932   2.697 -0.0527 -0.0701  0.0455
26683W        W44207  14.542   6.789  15.376 -0.2466 -0.0062  0.2279
26684W        W44208   0.982   4.101   4.588  0.0281 -0.2541 -0.1283
26685W        W44209  10.026  10.148   3.356  0.2025 -0.3062  0.2510
26686W        W44210   7.036   7.648  14.196 -0.0647 -0.1925  0.1189
26687W        W44211   6.726  14.273  12.328  0.2300  0.1103 -0.2846
26688W        W44212   6.408   9.068  13.095 -0.4286 -0.0690 -0.0844
26689W        W44213  16.245  17.880   1.494  0.0098  0.2133 -0.0850
26690W        W44214  17.810   6.543  14.268  0.1771  0.1309 -0.0936
26691W        W44215   2.270   6.709   1.779  0.0878  0.2230  0.1837
26692W        W44216   4.637  14.323   2.567  0.0708  0.3148 -0.1528
26693W        W44217  12.963   5.801  14.355  0.0073 -0.1237 -0.1290
26694W        W44218  17.260  11.241  13.057  0.1473  0.1605 -0.1067
26695W        W44219   9.967  17.038  15.208 -0.0614  0.1723  0.3706
26696W        W44220  12.155  16.608   3.442 -0.0832 -0.1289  0.1344
26697W        W44221  11.179  16.882  15.847 -0.0782  0.1377 -0.1068
26698W        W44222  15.708  16.310   2.763 -0.2059  0.1844  0.1488
26699W        W44223  13.694   1.429   2.356 -0.0410 -0.0306  0.0507
26700W        W44224  14.339   0.655  15.766  0.3129 -0.0445  0.1502
26701W        W44225   2.632   9.422   3.023 -0.0876 -0.0034  0.2571
26702W        W44226  10.971   5.927  13.666 -0.0587  0.2716  0.0283
26703W        W44227  12.775   2.515  12.217  0.0164 -0.0355  0.0984
26704W        W44228  17.697  10.284   5.161  0.3283  0.0521  0.1713
26705W        W44229   5.125  10.543  12.067  0.2754 -0.2893  0.0911
26706W        W44230   6.530   2.828   3.524  0.2401 -0.2866  0.0369
26707W        W44231  16.387  12.768  12.930  0.2002 -0.0415  0.1158
26708W        W44232   2.153   2.002  15.020  0.2547  0.0435 -0.1828
26709W        W44233  12.976   3.387   0.416  0.5942  0.1337  0.0411
26710W        W44234   3.087  14.702   0.390 -0.2757 -0.3479  0.4082
26711W        W44235   7.022  15.765  14.598 -0.2313  0.1400  0.0847
26712W        W44236   3.702   2.657   4.100  0.2978  0.5018  0.0258
26713W        W44237  11.762  15.756  13.373  0.3663 -0.0809 -0.1442
26714W        W44238   9.232   0.500  11.701 -0.3560 -0.1504 -0.0110
26715W        W44239   8.964  13.464  15.291 -0.2220  0.1699  0.0406
26716W        W44240   1.948   7.967   4.428  0.3482 -0.1888 -0.2109
26717W        W44241   6.992  12.199  13.257 -0.0914  0.0323 -0.0698
26718W        W44242   9.394   5.943   0.497 -0.0263  0.0528 -0.2457
26719W        W44243  11.197  15.732  13.535  0.2061  0.1864 -0.2578
26720W        W44244  12.005  15.242  14.147 -0.3271 -0.1470 -0.1646
26721W        W44245  11.730  14.799   0.130 -0.3939 -0.4065 -0.1536
26722W        W44246   5.624  15.193   5.143  0.1521 -0.1469  0.0763
26723W        W44247   0.107   7.637  11.285 -0.0262  0.0956 -0.2757
26724W        W44248  10.140   5.632   2.237 -0.2474  0.2935  0.0467
26725W        W44249   1.860   4.666   1.212 -0.0733  0.2117 -0.2913
26726W        W44250  10.492  12.280   5.712  0.1232 -0.1483  0.1908
26727W        W44251   2.878   1.555   4.313  0.1032  0.0448  0.3066
26728W        W44252   1.987  15.751  11.797 -0.1044  0.0637  0.1777
26729W        W44253   0.407   5.029   1.451 -0.1002  0.3676  0.2897
26730W        W44254   2.051   1.490   1.824  0.4346  0.0496  0.1714
26731W        W44255  12.258   9.220   4.367  0.0084  0.0493  0.1996
26732W        W44256  11.468   3.704  15.069 -0.0374  0.0730 -0.1267
26733W        W44257  13.573  13.159   4.285 -0.2674  0.2005 -0.0708
26734W        W44258   4.528   0.618  12.117 -0.1313 -0.3727 -0.1937
26735W        W44259   7.720  17.497  13.532  0.2348 -0.0065  0.0361
26736W        W44260   7.821  13.489   4.024 -0.0433  0.1555 -0.2130
26737W        W44261   6.871  16.964   3.509  0.0259 -0.0955 -0.4428
26738W        W44262   7.778   7.329  11.434  0.2692 -0.1231 -0.2157
26739W        W44263  14.946  14.345  15.667 -0.1670  0.1095 -0.0895
26740W        W44264  14.763  16.730  11.172  0.1744  0.3325 -0.1020
26741W        W44265   2.168   9.774   1.007 -0.2078 -0.2926 -0.2545
26742W        W44266  10.075   4.143  15.834  0.0720 -0.1142  0.0494
26743W        W44267   9.520   7.508  12.716  0.0796 -0.0964  0.0034
26744W        W44268  17.354  13.334   4.751 -0.0236 -0.0432 -0.0696
26745W        W44269   8.437   7.575  15.229 -0.0692 -0.0609  0.0762
26746W        W44270  14.059   8.386  15.518 -0.1975  0.2340 -0.0591
26747W        W44271   2.771  16.232  12.848 -0.2165 -0.0677 -0.0236
26748W        W44272   6.133  13.457   3.901 -0.0573  0.1131 -0.1455
26749W        W44273  15.223   1.641  15.414 -0.3776  0.0593  0.0728
26750W        W44274  16.777   7.931  14.584  0.3018  0.1015 -0.2424
26751W        W44275  14.218   2.435   0.828 -0.0027 -0.0287 -0.0979
26752W        W44276  10.638  16.356   0.662  0.0690 -0.1739 -0.0772
26753W        W44277  13.921   2.100  15.481  0.3567  0.0929  0.1366
26754W        W44278  11.745   3.681   4.744 -0.1082 -0.0623 -0.3247
26755W        W44279   2.855  13.954   3.362 -0.2748 -0.0569 -0.0222
26756W        W44280   4.895  14.149   1.678  0.0903  0.0680  0.1258
26757W        W44281  17.305  15.022   3.081 -0.0408 -0.3103 -0.0174
26758W        W44282   1.788   8.236   4.009 -0.1905 -0.1769 -0.0371
26759W        W44283   2.758  16.873   6.225 -0.1306  0.0882  0.2133
26760W        W44284   3.508  11.139  12.845  0.1510 -0.1038  0.2612
26761W        W44285  17.449   4.153   1.540 -0.6643 -0.1080  0.1015
26762W        W44286   3.090  10.955   4.794 -0.1061 -0.1736  0.0410
26763W        W44287   4.962  13.589  15.906  0.2488  0.0442  0.0746
26764W        W44288  10.545  11.730   2.060 -0.2369  0.0910  0.1972
26765W        W44289   3.993  13.182   0.581  0.0066 -0.1215 -0.0765
26766W        W44290   3.234   7.676   3.989 -0.1763 -0.1976 -0.1450
26767W        W44291   2.604   1.506   0.518  0.1751 -0.0426 -0.1044
26768W        W44292  13.672   6.097   0.471 -0.0481  0.2366  0.0057
26769W        W44293  14.102   2.953  14.190 -0.5102  0.0309 -0.2342
26770W        W44294   2.356  17.405   5.360 -0.5371 -0.2386 -0.1188
26771W        W44295  11.104  11.718   0.243  0.0926 -0.1341 -0.2809
26772W        W44296   7.528   1.623  15.923 -0.0477  0.1827  0.0351
26773W        W44297   4.973  10.791   0.966  0.0559  0.2410 -0.0111
26774W        W44298  13.047  10.474  13.089  0.0280  0.2640 -0.1058
26775W        W44299  17.610   2.846   3.934 -0.0269  0.4216  0.0036
26776W        W44300  12.539   3.745   3.463 -0.1748  0.1570  0.1207
26777W        W44301   1.720  17.569   2.339 -0.0974 -0.0500  0.1189
26778W        W44302  15.186   1.782   0.033  0.1881  0.3548  0.0309
26779W        W44303  17.536   1.429   4.145 -0.0833 -0.2663  0.1685
26780W        W44304   0.143   2.564   4.684  0.1152  0.2801 -0.0286
26781W        W44305  13.507  17.661   1.191 -0.0205  0.0282 -0.1677
26782W        W44306   0.786   3.586  15.723  0.0980 -0.0094  0.0045
26783W        W44307  12.744  12.725  15.552 -0.0820  0.1249 -0.1989
26784W        W44308  14.573   1.729  12.422  0.2051  0.1626  0.2200
26785W        W44309  10.120   1.391  14.867  0.0335 -0.0368 -0.0462
26786W        W44310   7.619   2.136   3.867 -0.0649 -0.2318  0.1244
26787W        W44311   4.709  10.318  14.329  0.1669  0.0694 -0.2761
26788W        W44312   5.103   2.375   0.583 -0.0325  0.1882 -0.1932
26789W        W44313  13.343   5.063  12.927  0.2177  0.0014 -0.0263
26790W        W44314   8.141  12.266   2.647  0.0279  0.1240  0.1722
26791W        W44315   9.544   7.251   2.944  0.2095  0.0540 -0.0592
26792W        W44316   2.850  13.122   2.950  0.0828  0.2073 -0.3174
26793W        W44317  13.653  17.203  15.019  0.3530 -0.0583  0.0048
26794W        W44318   5.755   8.071  13.918  0.0494 -0.0544 -0.1228
26795W        W44319   5.819   7.634   4.176 -0.3159  0.3657  0.0994
26796W        W44320   7.794  15.156  13.454 -0.1787 -0.1636 -0.0804
26797W        W44321   7.833   2.738   4.072 -0.0327 -0.0892  0.1647
26798W        W44322  14.892  10.499   2.889  0.2451  0.0240 -0.1494
26799W        W44323   9.191  14.509  10.630 -0.1877  0.0318 -0.2390
26800W        W44324   5.031   7.526  15.776 -0.1374 -0.2007 -0.2560
26801W        W44325   0.479   2.088   4.730  0.0878  0.0934  0.0835
26802W        W44326   9.105   6.656   3.500  0.2564  0.0235 -0.0947
26803W        W44327  17.233   4.145  15.045  0.2176  0.1753  0.1550
26804W        W44328   0.285   4.845  12.218 -0.4271  0.0152  0.1418
26805W        W44329   7.178  10.957   4.254  0.2433 -0.0775 -0.3512
26806W        W44330   1.112   4.020  15.571 -0.1779 -0.3016 -0.2378
26807W        W44331   6.558  14.008   0.939 -0.1405 -0.0139  0.0711
26808W        W44332  16.882   0.991   1.418 -0.0548 -0.1094  0.0091
26809W        W44333  17.620  12.980   3.469  0.0693  0.0509 -0.3603
26810W        W44334   9.558   4.818  15.948 -0.1565  0.0108 -0.0166
26811W        W44335   7.195  13.776  15.919 -0.0241  0.1729 -0.0268
26812W        W44336  14.957   9.241  14.494  0.1841 -0.0029  0.2694
26813W        W44337  17.515  16.253  15.878  0.1480  0.0780  0.1738
26814W        W44338   7.405   9.685  12.699  0.3406 -0.1091  0.1081
26815W        W44339  16.005   0.324   4.156  0.3094 -0.1334 -0.0296
26816W        W44340   6.563   4.356  12.468 -0.0183  0.0576 -0.4093
26817W        W44341   5.327   0.175  12.554  0.4072  0.0883 -0.2287
26818W        W44342  17.540  14.197   1.358  0.0728 -0.1276  0.0860
26819W        W44343   1.878   5.876   2.173  0.0333 -0.0347  0.1299
26820W        W44344   6.579   3.711   3.247 -0.0236  0.0492 -0.0715
26821W        W44345  16.935   5.285   1.826  0.3174  0.1274 -0.0486
26822W        W44346   3.230  12.134  12.601 -0.0812 -0.0235  0.0853
26823W        W44347  16.372  15.904  13.274 -0.0813  0.1258  0.0032
26824W        W44348  17.872   2.679  14.253 -0.0876 -0.0534  0.0633
26825W        W44349   3.740  13.524   1.404  0.0221  0.2458  0.2326
26826W        W44350   1.636   5.288  12.537  0.1534  0.0896  0.1658
26827W        W44351   8.907  13.512  12.636 -0.0189  0.0801 -0.4099
26828W        W44352   5.389   7.689  14.874 -0.1152  0.0731 -0.1474
26829W        W44353  16.875  15.577  11.910  0.1062 -0.1365 -0.0089
26830W        W44354   2.158  12.131  14.139 -0.0037  0.0780 -0.0818
26831W        W44355   0.451   9.936  11.785 -0.2768 -0.0852 -0.0845
26832W        W44356   7.991  15.707   1.724 -0.2488  0.0555 -0.0657
26833W        W44357  10.376  16.880   1.217 -0.0783  0.0966  0.1475
26834W        W44358   4.832  15.884   4.738  0.1831  0.1470  0.0077
26835W        W44359  13.980   2.555   0.418  0.2035  0.0084 -0.2414
26836W        W44360  14.397   1.534  13.274  0.4183 -0.0346 -0.0867
26837W        W44361   0.689   8.860   3.857 -0.2588  0.1040 -0.1363
26838W        W44362  11.816  14.163   1.692  0.1339 -0.2015 -0.0847
26839W        W44363  11.080  11.015   3.136  0.0321  0.1860 -0.3020
26840W        W44364  12.453   1.237  15.161 -0.0227 -0.0497 -0.1527
26841W        W44365  15.970   6.957  13.003  0.3620  0.0254  0.1216
26842W        W44366   3.409   8.349  14.440  0.3071  0.1886  0.2613
26843W        W44367   4.588   6.994   3.765  0.3021  0.2225 -0.0385
26844W        W44368   0.488  13.398   3.468  0.3478 -0.3664  0.1589
26845W        W44369   2.155  13.408   1.991 -0.1124 -0.1474  0.1353
26846W        W44370  12.765  11.927  13.103  0.0888  0.2885 -0.1697
26847W        W44371   5.350  12.838   0.083  0.2626  0.0951  0.4958
26848W        W44372   0.801   6.232  14.456  0.0542  0.0664 -0.0939
26849W        W44373  11.909   5.327   4.090  0.0346  0.0805  0.0860
26850W        W44374   7.358  12.191  12.366 -0.4884  0.1700 -0.0394
26851W        W44375   6.060   1.345   0.439 -0.0413 -0.1047 -0.0065
26852W        W44376   7.939   6.557  14.313  0.4997 -0.1225  0.0918
26853W        W44377   6.783  16.453  12.051 -0.0092 -0.2595  0.0741
26854W        W44378   7.908  14.289  16.204 -0.1803  0.0013  0.0910
26855W        W44379  16.619   2.587   0.130 -0.0604 -0.2166  0.1396
26856W        W44380  11.826   4.076  15.091  0.0624  0.0473  0.1094
26857W        W44381   7.107  17.444   3.767 -0.2552 -0.3797 -0.0693
26858W        W44382   5.572   8.624  13.744 -0.0844 -0.0132  0.2108
26859W        W44383  13.855   7.309  11.742  0.2611 -0.3955  0.0604
26860W        W44384   1.440   2.022   4.872  0.1979  0.1047  0.0826
26861W        W44385  11.170   0.868  13.767 -0.0431 -0.1928 -0.2192
26862W        W44386   7.156  16.566  10.819  0.2506 -0.0816  0.0630
26863W        W44387  11.776   0.689  11.533  0.0893  0.1701  0.0197
26864W        W44388   1.422   4.936   3.654 -0.1567  0.0258 -0.0987
26865W        W44389  10.744  17.010  15.618  0.1718  0.0372 -0.2853
26866W        W44390   5.331  13.945   0.488 -0.1954  0.0534  0.0005
26867W        W44391   3.892   7.956  13.935  0.4821 -0.0217  0.1312
26868W        W44392   3.660  13.648  11.956  0.1792  0.0578 -0.2651
26869W        W44393   7.639  15.643   5.568 -0.1561  0.0679  0.2083
26870W        W44394  13.730   4.759  13.699  0.1719  0.0447  0.3044
26871W        W44395   8.078   4.976  13.371  0.0916 -0.3054 -0.2109
26872W        W44396  10.122   8.720  12.984 -0.0980 -0.2831  0.0757
26873W        W44397   7.217   0.236   2.155  0.2157 -0.3823  0.2253
26874W        W44398  13.412   0.810  15.263 -0.0813 -0.1602 -0.1719
26875W        W44399   8.350   5.032   0.241  0.1170 -0.0274  0.3541
26876W        W44400   7.189   0.162   0.298  0.0546  0.1299  0.0014
26877W        W44401  15.362  10.634   4.770 -0.0125  0.0760  0.0499
26878W        W44402  17.199  16.709   0.549  0.0159 -0.2056 -0.1674
26879W        W44403  13.680  12.874  14.749  0.1626  0.0889  0.2700
26880W        W44404  16.320   1.662  12.848 -0.1068 -0.0712 -0.1850
26881W        W44405   3.181   0.114  15.638 -0.0968 -0.0918 -0.2543
26882W        W44406   2.073   5.361  13.692 -0.2753 -0.0058  0.0783
26883W        W44407  12.214  16.008   2.009  0.0313  0.1179  0.0154
26884W        W44408   6.944   4.272   3.989  0.1295  0.4416 -0.0916
26885W        W44409  14.715   6.883   2.459 -0.0932  0.2863  0.1541
26886W        W44410   8.410  14.234   5.079 -0.1627 -0.0020 -0.0529
26887W        W44411  12.606  14.967   0.915  0.2752  0.1725  0.1605
26888W        W44412   6.697   7.631  14.950 -0.0322  0.2647 -0.1268
26889W        W44413   2.500  14.623  14.454 -0.3188 -0.2050 -0.3348
26890W        W44414   4.919   3.688  11.733  0.0990  0.2015 -0.0979
26891W        W44415  17.772  15.813   5.305  0.0830  0.1890 -0.0091
26892W        W44416   1.345  13.344   4.049 -0.1605  0.2770 -0.0977
26893W        W44417   4.217  16.752   2.007 -0.0296  0.0686  0.0346
26894W        W44418  14.297   6.732  14.043  0.0885 -0.4403  0.2227
26895W        W44419  10.911   2.194  15.583 -0.1324 -0.0040  0.3615
26896W        W44420  10.819   0.539   3.981  0.1245  0.0005  0.4419
26897W        W44421   5.189   6.495   4.808 -0.0940 -0.0933 -0.0931
26898W        W44422  14.451   0.585   0.040  0.0024 -0.2174 -0.4376
26899W        W44423   3.706   4.162   1.816 -0.3038 -0.0278 -0.1063
26900W        W44424   4.107  15.478  12.484  0.3049  0.2655  0.0713
26901W        W44425  16.305   9.098  12.121 -0.0600 -0.0143  0.1480
26902W        W44426  10.223  16.403  13.513  0.0805  0.0078 -0.2875
26903W        W44427  15.741  15.160  13.574 -0.0509 -0.2830  0.0065
26904W        W44428  10.089   8.626  14.343 -0.2032  0.0625 -0.2966
26905W        W44429  17.940   9.243   4.270  0.1390  0.3052 -0.2950
26906W        W44430   1.343   9.175  13.089 -0.1096 -0.2300  0.2486
26907W        W44431   1.010   0.505  12.605  0.0126 -0.1115  0.0897
26908W        W44432  15.589   2.688   0.750 -0.2279  0.0861  0.0553
26909W        W44433   4.487  13.817   4.285  0.0931  0.2203  0.0097
26910W        W44434  13.517   1.974  14.569  0.1905 -0.1160 -0.1047
26911W        W44435  10.653   9.468  14.323  0.2839 -0.1285 -0.1325
26912W        W44436   9.282   8.103   4.970 -0.0273 -0.1343 -0.1552
26913W        W44437   4.541   0.434   0.538  0.1062  0.1720  0.1345
26914W        W44438  15.514   7.420  13.561  0.0975 -0.0361 -0.2933
26915W        W44439   7.058  13.849   4.322  0.0992 -0.1715 -0.4146
26916W        W44440  13.136  12.128   2.143 -0.0452 -0.1183  0.3802
26917W        W44441  11.954   9.107  12.567  0.1155 -0.0559 -0.0038
26918W        W44442   1.901  12.917   2.131 -0.1553  0.2952  0.0126
26919W        W44443   5.630  17.717   4.438 -0.0536 -0.1156 -0.0573
26920W        W44444   7.482   3.026  11.745 -0.4278 -0.2146 -0.0756
26921W        W44445  15.197   6.284  13.685 -0.0572 -0.1531 -0.1190
26922W        W44446   6.239   3.922  14.025  0.1265 -0.3388  0.1936
26923W        W44447  14.257   8.519  14.279  0.0671  0.0664  0.2581
26924W        W44448  14.123   4.246   1.828  0.2576  0.1140  0.1517
26925W        W44449  13.362  15.508  12.390 -0.0780 -0.3440  0.3251
26926W        W44450   9.398   4.073  14.156  0.0752  0.1758  0.0286
26927W        W44451   0.934   2.115   4.948 -0.0838  0.0871 -0.1697
26928W        W44452   7.870   4.598  12.796 -0.2775  0.1848  0.1721
26929W        W44453  12.547   0.091  12.650 -0.1696 -0.1504  0.1428
26930W        W44454  15.110  11.031  14.441 -0.0911 -0.0140  0.2041
26931W        W44455  11.574  14.828  15.883 -0.1390  0.1880  0.0350
26932W        W44456  12.258   3.141  16.062 -0.0543 -0.0871 -0.0786
26933W        W44457   3.325   8.156   1.387  0.0467 -0.1223 -0.1539
26934W        W44458   5.474   8.524  13.218  0.1047  0.4346  0.0723
26935W        W44459   3.926  11.721  11.530  0.0746 -0.0165  0.1449
26936W        W44460   3.657  17.686  13.439  0.0878 -0.1811 -0.1242
26937W        W44461   1.282   8.713  13.153 -0.1566  0.1224  0.1133
26938W        W44462   9.081  10.126  14.230 -0.0790 -0.0497  0.0139
26939W        W44463   7.591   6.994  11.760  0.0396  0.1147  0.0233
26940W        W44464   2.975  12.608  13.477  0.3272 -0.2242  0.1658
26941W        W44465   3.313  15.750   3.448  0.0902  0.1699 -0.0578
26942W        W44466   8.113   5.115   3.962  0.0760 -0.2543 -0.1475
26943W        W44467   2.488   6.010  11.250 -0.0760 -0.3121  0.3546
26944W        W44468  10.339   3.465  11.430  0.1072  0.0268 -0.0017
26945W        W44469   0.792   2.231  14.370 -0.0851  0.0175  0.0632
26946W        W44470   4.129  15.211  15.330 -0.0612  0.1082  0.0702
26947W        W44471   4.754   2.833   4.006  0.1033 -0.0827 -0.1139
26948W        W44472  14.059  10.172  11.635 -0.2463 -0.3213  0.0884
26949W        W44473  14.633  15.730  13.493  0.1973  0.0473  0.2385
26950W        W44474  11.783   3.086  12.396 -0.0772 -0.0001 -0.1603
26951W        W44475   5.418  14.360  13.410 -0.2461 -0.2450  0.1493
26952W        W44476   8.952  13.154  14.347  0.0106  0.2810  0.0390
26953W        W44477  11.132  12.858  15.222 -0.1651 -0.2290 -0.2038
26954W        W44478  17.575  10.468   4.734  0.0091 -0.0476 -0.0388
26955W        W44479   3.996  16.408   5.056  0.2104  0.2043  0.0268
26956W        W44480  10.994   2.239   4.016 -0.1338 -0.2031 -0.2224
26957W        W44481  13.591   3.279  11.330  0.1146  0.1338 -0.1185
26958W        W44482  10.933   1.950  12.302  0.0450 -0.0436 -0.1033
26959W        W44483  11.649  17.377  14.556 -0.0606 -0.0494 -0.0903
26960W        W44484  13.963   0.798   1.970 -0.0609  0.3379  0.1661
26961W        W44485  12.169  17.962   0.074 -0.1128  0.0743  0.1808
26962W        W44486  17.717   2.692  15.160 -0.2035  0.2166 -0.1299
26963W        W44487   3.241  15.104  14.159  0.1704 -0.0582  0.2124
26964W        W44488   8.036  13.994   3.238 -0.2273  0.1161 -0.1330
26965W        W44489  14.229   7.485   0.400  0.2018 -0.0721  0.0216
26966W        W44490   4.478  17.734   3.312 -0.0400  0.0783 -0.0127
26967W        W44491  13.292   7.458   3.056  0.1700 -0.1671  0.2156
26968W        W44492  16.279  17.387   2.048  0.0521 -0.0053 -0.0155
26969W        W44493  17.765   5.272  10.911  0.1303  0.2230  0.1966
26970W        W44494   4.176   4.131   5.147  0.1189  0.2955 -0.1191
26971W        W44495  14.743   5.218   3.890 -0.0177 -0.3879 -0.0675
26972W        W44496  16.587   3.836   4.117 -0.3395 -0.1848 -0.3793
26973W        W44497  16.151   5.991   1.198  0.2173 -0.0058 -0.2713
26974W        W44498  17.294  16.953  15.109 -0.1397 -0.0111 -0.1703
26975W        W44499  13.113   9.707  11.846  0.1537 -0.0227  0.0494
26976W        W44500   4.988   3.067  14.513 -0.1277 -0.3626 -0.0818
26977W        W44501  14.832   9.367   0.812 -0.2886  0.2456 -0.1253
26978W        W44502   0.828   6.670  10.650 -0.1625 -0.0158 -0.3073
26979W        W44503  13.749  16.327   0.744  0.1344 -0.0406 -0.0578
26980W        W44504  13.769  11.072  13.635 -0.0647  0.2451 -0.1961
26981W        W44505   4.974  10.571  14.683  0.1937  0.2510  0.1801
26982W        W44506  12.983   5.987   0.062  0.1855 -0.1515 -0.0855
26983W        W44507  15.978   4.077  15.925 -0.0507  0.1504 -0.0488
26984W        W44508  13.451  14.909  11.591  0.0989 -0.2349  0.1374
26985W        W44509   2.053   7.186  15.227  0.4613 -0.1769 -0.1988
26986W        W44510   1.861   9.321   1.208 -0.1939  0.3582  0.1050
26987W        W44511  13.949   7.928   0.861 -0.3837 -0.1567  0.3042
26988W        W44512   6.113  17.430  11.736 -0.2567 -0.1406  0.0013
26989W        W44513   7.923   7.429   1.469  0.0931 -0.3158  0.0317
26990W        W44514   7.896   5.277   4.394  0.1163  0.2895  0.4218
26991W        W44515  13.224  10.203  13.560  0.0643 -0.0101 -0.2974
26992W        W44516   1.703   7.431   2.324  0.1675  0.0478  0.0751
26993W        W44517   5.779  15.538  11.813 -0.0382  0.0976  0.0386
26994W        W44518   8.899   8.250  15.667  0.0315  0.1696 -0.0143
26995W        W44519   4.436   0.487   1.858 -0.0950  0.1157 -0.0094
26996W        W44520  15.121   5.205   1.861  0.1232  0.1117  0.1144
26997W        W44521  15.103  12.155  16.089 -0.1797  0.1024  0.1256
26998W        W44522  11.928  11.392   3.556 -0.0554  0.1192  0.1822
26999W        W44523   5.728   0.248  14.207  0.0424 -0.2612  0.1276
27000W        W44524  12.621   9.370  15.096  0.0262 -0.0559 -0.0282
27001W        W44525   6.653   7.238  14.160  0.1190 -0.0324 -0.2296
27002W        W44526   7.343   7.835  12.916  0.0466 -0.1279 -0.0360
27003W        W44527   8.393  11.219  15.118 -0.0817 -0.0298 -0.0311
27004W        W44528  17.019   4.772  15.740  0.3259  0.0139 -0.0950
27005W        W44529   0.122  16.279   4.366 -0.1483  0.0565 -0.1205
27006W        W44530   7.873  13.191   2.634 -0.1307  0.0421  0.1230
27007W        W44531  15.305  13.524  12.695  0.1040  0.2492  0.1286
27008W        W44532  17.083  10.715   2.318  0.0340  0.0779 -0.2752
27009W        W44533   5.327   8.138  11.749 -0.1543 -0.0346 -0.0097
27010W        W44534   8.472   7.455   2.658 -0.0957  0.2295  0.0153
27011W        W44535  11.234   5.322  16.105 -0.1217 -0.0639  0.1587
27012W        W44536   9.800   8.951   0.872  0.0193 -0.1822  0.2312
27013W        W44537  17.755   7.717  12.213  0.0197  0.0001  0.1474
27014W        W44538   6.083   8.192   2.447  0.0964  0.1400  0.0324
27015W        W44539   8.139   3.818  12.649  0.1385  0.2592 -0.0438
27016W        W44540  12.765   8.376   0.615 -0.3074  0.0272 -0.2256
27017W        W44541   1.708   6.258   3.758  0.0964  0.0913 -0.3145
27018W        W44542   5.893  13.197   0.776  0.0336 -0.2377 -0.0065
27019W        W44543   5.830   5.800   4.244 -0.1787  0.0511  0.2511
27020W        W44544   4.185   1.346  11.812 -0.0167  0.3357 -0.1420
27021W        W44545   0.521  12.192   4.110 -0.0882  0.1789 -0.0998
27022W        W44546  11.183  14.706  15.535 -0.0425 -0.2730 -0.0226
27023W        W44547   0.912  11.642   2.209  0.1516 -0.1459  0.0313
27024W        W44548  10.608  11.986  10.731 -0.0589 -0.2658 -0.0422
27025W        W44549  13.177   8.110  13.840  0.3380  0.0937  0.2052
27026W        W44550   7.847   0.317  13.089  0.2377  0.0373  0.0661
27027W        W44551  17.572  12.947   3.977  0.2511 -0.2379  0.0131
27028W        W44552   6.767   0.602   3.908  0.0094  0.0279  0.1158
27029W        W44553  10.243  13.187  15.211  0.0180 -0.1546  0.0290
27030W        W44554   0.756  14.393  12.657  0.0049  0.0293  0.1641
27031W        W44555  16.708  14.177   2.366 -0.1303 -0.0099  0.0402
27032W        W44556  16.744  12.374  11.562 -0.0506  0.3340  0.3922
27033W        W44557  13.704   9.292   3.520  0.1104 -0.2069  0.0470
27034W        W44558  17.872  16.518  15.696  0.1880  0.2292 -0.0975
27035W        W44559  10.831   7.487   0.214 -0.0695  0.1649 -0.0908
27036W        W44560  10.506   4.624  13.914 -0.0644  0.1577  0.2114
27037W        W44561  12.235   0.569  12.684  0.2264 -0.0929 -0.0923
27038W        W44562  12.634   2.616   4.465 -0.4559 -0.2541 -0.0719
27039W        W44563   9.952  10.882   1.306  0.0024  0.0490  0.0854
27040W        W44564  13.137   9.482   2.174 -0.1718 -0.1522 -0.3670
27041W        W44565   0.513   0.938  15.751  0.1036 -0.0276  0.0408
27042W        W44566   6.303   0.315  12.197 -0.0406  0.2363  0.0381
27043W        W44567   5.470  14.855  13.479  0.2818 -0.1684 -0.1862
27044W        W44568   6.426   1.942   5.503  0.0644 -0.1508  0.1047
27045W        W44569   9.071   3.393   2.779 -0.2370  0.0341  0.0022
27046W        W44570   3.551   4.729  13.547 -0.2646 -0.0342 -0.0211
27047W        W44571  15.921   5.356   2.370 -0.1876  0.3181 -0.1944
27048W        W44572   2.761   9.241  14.616  0.0202 -0.2121  0.2045
27049W        W44573   9.642   7.626   1.858 -0.3063  0.0745  0.0673
27050W        W44574   0.560   1.715   1.778  0.0381 -0.1644  0.0558
27051W        W44575   4.326   6.798  12.912  0.0551 -0.1425  0.0728
27052W        W44576  12.906   8.169  13.360  0.4969 -0.2756  0.0651
27053W        W44577   1.973   8.151   0.570  0.1500  0.0724 -0.0140
27054W        W44578  11.224  11.335   1.818 -0.0655  0.1543 -0.0677
27055W        W44579  14.700  15.082  13.940  0.2865  0.0948 -0.4036
27056W        W44580   7.970  14.114   0.564 -0.1373 -0.2474 -0.2813
27057W        W44581  11.345  16.424   2.896  0.1136  0.2682 -0.2229
27058W        W44582  12.126   1.179  15.546 -0.1627 -0.0229 -0.1910
27059W        W44583  15.523   7.293   5.642 -0.0638  0.0433 -0.0059
27060W        W44584  11.896   6.735  13.103 -0.1704 -0.3367 -0.0606
27061W        W44585   8.147  10.495  12.783  0.1315 -0.2310 -0.1351
27062W        W44586   8.983  10.120   1.903 -0.2285  0.2009 -0.0732
27063W        W44587   8.664   8.469  14.214 -0.1475  0.3335 -0.0275
27064W        W44588   4.746  10.826   3.097  0.4020 -0.0693  0.0152
27065W        W44589  14.925  10.199   1.471  0.3069 -0.0879  0.0155
27066W        W44590   7.788   9.234   1.634 -0.0847 -0.0480 -0.0188
27067W        W44591  15.693   9.480  12.054 -0.2965  0.2238  0.1072
27068W        W44592   0.502  10.874  16.221 -0.1539  0.1389 -0.0400
27069W        W44593   1.105  12.719  11.388  0.0913 -0.0978 -0.1852
27070W        W44594   8.447  13.539   4.493 -0.0583  0.0887  0.1391
27071W        W44595   6.828   5.960   2.346 -0.1914  0.0693 -0.1298
27072W        W44596   5.559   6.588  15.617 -0.0497 -0.2784  0.3069
27073W        W44597  17.721  17.906  15.751 -0.2175 -0.1117  0.1887
27074W        W44598   2.691  13.649   2.836  0.1230  0.0593 -0.0988
27075W        W44599   2.077  15.334   5.227  0.0846 -0.1132 -0.2323
27076W        W44600  16.015   1.051   3.602 -0.2753  0.1117 -0.0134
27077W        W44601   4.190   8.196  11.082  0.3331 -0.1288  0.2521
27078W        W44602  16.245   1.360  14.216  0.0306  0.1273  0.0985
27079W        W44603  14.157   4.669  15.062 -0.2092  0.0295  0.1993
27080W        W44604   8.042   8.532   4.621  0.0101 -0.1122 -0.1236
27081W        W44605   9.106  11.320  11.162 -0.1663  0.0923  0.1988
27082W        W44606  16.289  13.544   0.609 -0.0379  0.1236 -0.0016
27083W        W44607   6.058   0.396   0.337 -0.0480  0.0548  0.1582
27084W        W44608   6.377  13.851  16.163  0.0528  0.2094  0.0646
27085W        W44609   1.310  10.756   5.255 -0.1913  0.2020 -0.0589
27086W        W44610   0.407  13.609   3.001  0.0140 -0.0173  0.0347
27087W        W44611   4.382   6.039   0.019  0.1200 -0.2910  0.3420
27088W        W44612   9.790   9.958   4.537  0.0076 -0.1633 -0.3039
27089W        W44613  14.773   3.837   0.065  0.1441 -0.0306 -0.5444
27090W        W44614  14.531   9.488  14.680 -0.0432 -0.0604 -0.1173
27091W        W44615  14.748  11.817  15.570 -0.0749  0.1783  0.1960
27092W        W44616  11.113   5.770  15.934  0.4540 -0.2393  0.1827
27093W        W44617   8.384   8.106   5.619 -0.1742 -0.1971  0.1002
27094W        W44618   5.658   6.706  14.808 -0.1363 -0.3185 -0.0300
27095W        W44619   2.405  14.832  14.879  0.1415 -0.0017  0.0551
27096W        W44620   5.197   9.001  12.066  0.2483  0.0612 -0.0018
27097W        W44621  15.368  16.999   0.299  0.0364 -0.0803  0.2486
27098W        W44622   8.626   6.721   0.179 -0.1886  0.2178 -0.0658
27099W        W44623   6.073   3.397   2.092  0.4684  0.1960  0.1559
27100W        W44624  11.812   2.325   2.780 -0.0656  0.0739  0.0111
27101W        W44625   2.167   2.016   3.326  0.3040  0.1088  0.2001
27102W        W44626  17.371  15.413   2.154  0.0194  0.2509  0.2341
27103W        W44627  17.159   3.163  12.797  0.1255 -0.0552  0.1830
27104W        W44628   4.382  16.552  11.443  0.2352 -0.0698 -0.2609
27105W        W44629   2.718  13.469   3.304 -0.0377 -0.0709  0.2426
27106W        W44630   4.743   2.914  16.136 -0.2166  0.1439 -0.5571
27107W        W44631   4.225   8.842  11.574  0.0460 -0.1101  0.1844
27108W        W44632   3.924   9.380  14.210  0.0535  0.1252  0.1643
27109W        W44633  14.229  17.056   4.204 -0.3960 -0.0893 -0.2257
27110W        W44634   4.436  13.801  15.660 -0.0203  0.0565 -0.2248
27111W        W44635   0.574   1.386  12.855  0.0482  0.2060 -0.1226
27112W        W44636   5.625   9.325  14.846  0.1833  0.1108 -0.0928
27113W        W44637   3.971  14.183   4.957  0.1173  0.0962  0.0183
27114W        W44638   5.957  10.300  13.722  0.2264  0.1461 -0.1276
27115W        W44639  12.517  15.090  11.934 -0.0009 -0.1549 -0.2077
27116W        W44640  16.537  17.376  15.158 -0.3376 -0.0195 -0.0035
27117W        W44641   9.460   9.331   4.367  0.0559 -0.0668  0.0438
27118W        W44642  14.022   6.927   1.767  0.0996 -0.0745  0.1797
27119W        W44643   1.230  11.380   4.989  0.0370  0.2284 -0.2261
27120W        W44644  10.084  16.613  15.023  0.3271 -0.1140  0.2050
27121W        W44645   5.645   9.138   1.304  0.2791 -0.2901 -0.3802
27122W        W44646   6.982  17.789   2.725  0.0445 -0.2547  0.0284
27123W        W44647   7.149   3.847   0.290  0.2742  0.0738 -0.0307
27124W        W44648   1.628  12.893   4.117  0.1705  0.0025 -0.0370
27125W        W44649  13.565   0.947  13.179  0.4351  0.1393  0.1251
27126W        W44650  16.029  12.584   5.133  0.2596  0.0762  0.0210
27127W        W44651   5.392  13.101  12.852 -0.0947  0.0295 -0.2160
27128W        W44652  13.916   4.317  14.720 -0.0846 -0.0833 -0.0057
27129W        W44653   2.109  11.605   0.930  0.0764 -0.0189 -0.0113
27130W        W44654  11.617  16.878  15.422  0.0468  0.1731  0.0594
27131W        W44655   3.445   5.402   3.989  0.0489 -0.0808 -0.0965
27132W        W44656   0.630   8.681   3.315 -0.0005 -0.0130 -0.1623
27133W        W44657  12.720   4.939  13.653 -0.0228  0.0387 -0.0206
27134W        W44658   2.380   8.990   2.959  0.1458  0.0975  0.0282
27135W        W44659  16.477   0.699  15.753  0.1496 -0.0776 -0.2516
27136W        W44660   4.488   2.427  16.122 -0.1084 -0.0547 -0.4708
27137W        W44661   5.434   3.271   4.300 -0.3275  0.1070  0.0165
27138W        W44662   5.073   5.463  12.815 -0.0709 -0.0268  0.2200
27139W        W44663   8.600   0.385   0.696 -0.0089 -0.0127 -0.1973
27140W        W44664  14.046  14.871   0.645  0.2239 -0.1373 -0.2037
27141W        W44665   8.546   9.759   4.196  0.1715 -0.0426  0.0710
27142W        W44666   7.997   7.294  11.927 -0.2729  0.4113 -0.2061
27143W        W44667   6.159  13.064  12.985 -0.2082  0.0559  0.2084
27144W        W44668   2.386   7.393  13.691 -0.1769 -0.1465 -0.5408
27145W        W44669  16.975   8.632   5.112 -0.1754  0.0490 -0.1699
27146W        W44670  14.366  14.123  12.807 -0.5087  0.3343 -0.0968
27147W        W44671   6.541  16.082  14.810 -0.2278  0.1923  0.2897
27148W        W44672  11.513  16.147  16.175  0.0108 -0.0368 -0.0206
27149W        W44673  12.182   3.623  16.257 -0.3025  0.0233  0.1704
27150W        W44674   1.994  10.403   4.294 -0.0450 -0.0370 -0.2536
27151W        W44675   9.034  12.163  14.242  0.2597  0.0249 -0.4011
27152W        W44676   6.171  17.571  15.376  0.0960  0.3762 -0.0567
27153W        W44677   3.754   4.306  13.817  0.0607 -0.3793  0.0483
27154W        W44678   7.681   2.546  10.697  0.0966 -0.1141  0.0424
27155W        W44679  14.873   0.337  11.595 -0.1124 -0.3132 -0.2607
27156W        W44680   1.774  13.105  15.740 -0.2239  0.1221  0.0912
27157W        W44681   9.136   9.452   0.358  0.0388 -0.0090  0.0420
27158W        W44682   2.375   7.976  14.542  0.0130  0.0664  0.0943
27159W        W44683  16.687   7.607   3.304  0.1361 -0.2378 -0.3030
27160W        W44684  16.295   3.250  13.668  0.2281  0.1157 -0.1736
27161W        W44685  16.508   4.277   2.843 -0.0110 -0.0363 -0.0373
27162W        W44686  13.863   8.720   4.329 -0.0515 -0.0181 -0.2291
27163W        W44687   6.381  17.687  13.845  0.1034  0.0070  0.3536
27164W        W44688  15.730   8.116  15.686  0.3219  0.1107  0.1579
27165W        W44689  11.735   1.920   2.075 -0.1257 -0.0594 -0.3310
27166W        W44690   6.970   4.587  11.635 -0.0178  0.0909  0.2938
27167W        W44691   5.555  16.796  14.594  0.1682  0.0631  0.0834
27168W        W44692  15.419   6.675   0.109 -0.3331 -0.0571 -0.1862
27169W        W44693   5.665  16.820  12.419 -0.0480 -0.2367  0.2480
27170W        W44694  12.922   6.845  13.884  0.1447 -0.3171 -0.1845
27171W        W44695   2.883  13.654  14.443 -0.0948 -0.0576  0.1986
27172W        W44696  12.727  10.881  13.114 -0.0697 -0.2675 -0.3354
27173W        W44697  12.091  16.057   4.303  0.0784 -0.3728 -0.0632
27174W        W44698   5.623  11.405  12.786  0.1822 -0.0608 -0.1183
27175W        W44699  14.876   7.089   1.156 -0.0297  0.1200  0.0160
27176W        W44700  11.709  16.733   2.695 -0.0757 -0.1280 -0.0792
27177W        W44701  14.325  13.370  12.937 -0.1620  0.0719 -0.0825
27178W        W44702   7.315   9.522   5.635  0.2946 -0.0866 -0.1000
27179W        W44703   8.642  13.355   2.178  0.1101 -0.0695  0.1630
27180W        W44704  10.429   4.563   0.715 -0.0464 -0.1427  0.2784
27181W        W44705   1.010  12.814  15.432 -0.1152 -0.0573  0.2350
27182W        W44706   8.625   6.774  12.123  0.0017 -0.0937  0.2982
27183W        W44707   7.052   1.116  15.517 -0.1289 -0.0087 -0.0504
27184W        W44708  13.777  15.048   1.597 -0.0998  0.2833  0.1326
27185W        W44709   3.706  16.104  16.258  0.1252  0.2904 -0.1384
27186W        W44710   1.527   8.087  14.152 -0.0207  0.0386  0.0436
27187W        W44711   7.318   6.882  14.698 -0.0941  0.2179  0.1659
27188W        W44712   2.169  11.178  11.424 -0.0855  0.1147  0.3519
27189W        W44713  16.186   3.500  14.558  0.3791  0.2941 -0.1417
27190W        W44714   7.365  11.673   2.823 -0.1628 -0.1201 -0.1697
27191W        W44715  11.309  13.117  13.386 -0.4576  0.2230  0.1686
27192W        W44716  13.553   7.075  12.259  0.1850  0.0735  0.0225
27193W        W44717   3.324   4.474  16.248  0.0354 -0.0040 -0.1476
27194W        W44718   7.072   3.358  16.025  0.2421  0.1782 -0.4449
27195W        W44719   1.055   6.893  14.323 -0.0647  0.0933  0.1612
27196W        W44720  16.845   9.317   2.714  0.1334 -0.1649 -0.0493
27197W        W44721  17.250   0.142   2.280  0.3535 -0.0396 -0.1787
27198W        W44722  13.630   8.749  15.602  0.0930 -0.1984 -0.0873
27199W        W44723   1.289   2.921   4.876 -0.0854  0.0293  0.0036
27200W        W44724   2.736  12.571  11.362  0.1285 -0.1603  0.2974
27201W        W44725   9.530   6.640   1.041 -0.0139  0.0080  0.0790
27202W        W44726   9.024  15.001  15.793 -0.0979 -0.2294 -0.2915
27203W        W44727  10.605  16.335  12.534 -0.0939  0.0638  0.0204
27204W        W44728   0.321  12.560   2.965  0.0387 -0.1330  0.0522
27205W        W44729  17.430  12.601  15.434  0.1802  0.4893  0.1368
27206W        W44730   1.059  11.456  11.625 -0.0690  0.0511  0.1262
27207W        W44731   1.245   5.298   2.342 -0.1713  0.0237 -0.1691
27208W        W44732   5.462  11.696   2.909  0.0369 -0.2127  0.0120
27209W        W44733  15.412   3.417   3.251 -0.1356 -0.0198  0.1304
27210W        W44734   1.034  16.977  12.028  0.0579 -0.4541  0.0823
27211W        W44735   3.597  16.577   4.717  0.2743 -0.0419 -0.1986
27212W        W44736  15.247   5.278  12.285 -0.1057 -0.0596 -0.0592
27213W        W44737   2.320   8.134  12.633  0.3080 -0.2527 -0.0756
27214W        W44738   4.059   5.080   4.074  0.0916  0.1508  0.2405
27215W        W44739   7.058   0.189   3.726 -0.0240 -0.2276 -0.2938
27216W        W44740   4.444   0.858  16.180  0.0722 -0.0921 -0.1851
27217W        W44741   5.110  10.089  10.294 -0.0094 -0.3478  0.0512
27218W        W44742   2.238  13.709   3.076 -0.2693  0.0796 -0.0183
27219W        W44743   5.212   0.436   3.239 -0.2353 -0.0135  0.0271
27220W        W44744  12.002   7.722  15.956  0.0181 -0.0944  0.3204
27221W        W44745   2.244   6.580  10.831  0.1163  0.0186  0.0578
27222W        W44746   3.142  11.978  15.682 -0.0283 -0.0254 -0.2762
27223W        W44747  16.741   7.321  12.154 -0.0201  0.0707  0.0877
27224W        W44748   4.268  10.741  15.928  0.1889  0.0853  0.2135
27225W        W44749   2.085   9.970   4.601 -0.3165  0.1020  0.2909
27226W        W44750   5.989   4.990   1.249 -0.1144 -0.1678  0.2805
27227W        W44751   3.053  13.746  15.887 -0.0171  0.0114  0.0193
27228W        W44752   8.730   3.432  14.498 -0.2054  0.3040  0.1870
27229W        W44753   8.207  14.524  12.525  0.3322 -0.0331 -0.0280
27230W        W44754   5.256   5.123   1.758  0.2855  0.3864  0.2129
27231W        W44755   8.373   6.444  13.308 -0.1708  0.0576 -0.0314
27232W        W44756  14.946   4.783  11.543 -0.1314 -0.0573 -0.0096
27233W        W44757  15.509   0.836  14.472 -0.0869 -0.0482 -0.2131
27234W        W44758  17.763   0.380  13.015 -0.0876  0.1225 -0.2096
27235W        W44759  10.198   7.096  13.070 -0.0511 -0.1957  0.0161
27236W        W44760  14.111   7.468   0.886 -0.3353  0.1065  0.0186
27237W        W44761  15.439   7.704  14.851 -0.1474  0.0364  0.0444
27238W        W44762   5.641   5.981   0.381  0.0644  0.1700  0.3500
27239W        W44763   4.534   4.716   2.379 -0.4733  0.1882 -0.2970
27240W        W44764   9.375  17.341   1.142 -0.2582 -0.1536 -0.1115
27241W        W44765  11.211   0.852  11.294 -0.0739  0.0241 -0.0497
27242W        W44766   3.470  14.769   3.291 -0.3325  0.0340 -0.0244
27243W        W44767  11.633  16.912  12.651  0.0382 -0.4087 -0.1276
27244W        W44768   1.768   4.598   5.157  0.1761 -0.2697 -0.2908
27245W        W44769   7.982  10.584   4.705  0.1498  0.2374  0.0505
27246W        W44770   0.341   0.917   4.173  0.0667 -0.5598 -0.0409
27247W        W44771   3.007  13.667   3.883  0.0381  0.4480  0.1272
27248W        W44772  15.218  12.160   2.100  0.0235  0.3042 -0.1057
27249W        W44773   4.801   2.555  13.535 -0.1346 -0.2464 -0.0868
27250W        W44774   2.146  12.537   0.168  0.0727  0.1320  0.0744
27251W        W44775   7.256  15.761   4.834 -0.1029 -0.1746 -0.2085
27252W        W44776  15.383  12.856  14.288 -0.0803  0.0011 -0.0258
27253W        W44777   2.008  12.156  15.965 -0.0400  0.1095 -0.1228
27254W        W44778  13.961   8.618  12.635  0.0073  0.0163  0.0017
27255W        W44779  13.093   8.991   2.297  0.1743  0.2956  0.3774
27256W        W44780  14.372   5.443  11.554 -0.1865  0.1260  0.0743
27257W        W44781  12.687   3.691   2.960  0.2867  0.0510  0.2113
27258W        W44782   1.230  12.973  11.803 -0.0461 -0.0038  0.1340
27259W        W44783   3.164  17.118   3.495 -0.0576 -0.0838  0.1401
27260W        W44784   3.024  14.904   3.588 -0.3415  0.1367  0.0149
27261W        W44785  14.632  16.518   2.452 -0.1474  0.0112  0.2233
27262W        W44786   1.640  11.115  12.382  0.2606  0.0759 -0.0067
27263W        W44787   0.214  12.046   3.134  0.2986  0.0485  0.1596
27264W        W44788  14.507   9.190  15.718  0.2153  0.2537 -0.1488
27265W        W44789   4.838   6.757  14.530  0.1042  0.0375  0.2026
27266W        W44790  15.034  17.073  13.643  0.1271 -0.0455 -0.1682
27267W        W44791  15.520   9.704   4.600 -0.1436  0.0262  0.0818
27268W        W44792   3.399   3.299   3.074  0.0203 -0.6562 -0.1584
27269W        W44793   4.541  10.815   3.559  0.1666 -0.2611 -0.0937
27270W        W44794  11.777   2.290   0.249  0.2431 -0.0438  0.0463
27271W        W44795   8.357  13.672   1.500 -0.0264 -0.0714 -0.1851
27272W        W44796   4.646  14.020   3.779  0.1499 -0.0586 -0.1098
27273W        W44797  16.328   5.068   2.623  0.4582  0.0586  0.2198
27274W        W44798   3.723   4.814   3.184 -0.1374  0.0829 -0.0500
27275W        W44799   5.833   0.127  12.299  0.1834  0.2374  0.1896
27276W        W44800  15.954  14.737   1.378  0.4573 -0.2328  0.0908
27277W        W44801   7.124   7.936  13.771 -0.3065 -0.0937 -0.1616
27278W        W44802  11.723  13.271  13.097 -0.0434  0.0560  0.1638
27279W        W44803  13.904  16.923  13.910 -0.2610  0.0746 -0.1234
27280W        W44804  15.186   1.056  15.286  0.1579 -0.2148  0.2264
27281W        W44805   1.131  11.142  14.758 -0.0666  0.0778 -0.0386
27282W        W44806   0.292   5.778  14.453 -0.0374  0.2955  0.1807
27283W        W44807  15.700   5.861  11.678  0.3185  0.0130  0.2456
27284W        W44808  10.260   6.289  15.846 -0.0966 -0.1280  0.0314
27285W        W44809  10.263  15.767  15.804 -0.0158 -0.2660 -0.0905
27286W        W44810  14.126  11.254  11.947 -0.0567 -0.0101 -0.0123
27287W        W44811  10.782  10.383   2.905 -0.2383  0.0349  0.0243
27288W        W44812   5.273   3.455  14.726 -0.1420  0.2844 -0.0259
27289W        W44813  11.802   2.479  14.886  0.2734 -0.0030  0.3621
27290W        W44814   1.052   9.305  15.103 -0.0233  0.0721  0.2818
27291W        W44815   1.787  17.682  14.760  0.0152  0.2156 -0.0678
27292W        W44816   9.196  13.517  13.046  0.0318  0.0948 -0.0169
27293W        W44817   9.433  15.763  13.722  0.2018  0.1492  0.0382
27294W        W44818  13.618   2.115   1.663 -0.1016  0.0958  0.2279
27295W        W44819   2.587   5.640  14.869 -0.1006  0.0892  0.0408
27296W        W44820   0.003   4.197   1.605 -0.0938  0.0112 -0.2977
27297W        W44821   4.698  11.881   3.606 -0.0285  0.2198 -0.0638
27298W        W44822   2.370   0.647   3.525 -0.0445 -0.0994 -0.4554
27299W        W44823   1.468   5.750   3.414 -0.2972  0.0271 -0.0845
27300W        W44824   9.687  13.755  12.165 -0.0756  0.1991 -0.2541
27301W        W44825   7.830  10.083  12.631 -0.1520 -0.2199  0.0725
27302W        W44826  11.507   2.228   4.028  0.0072  0.2248 -0.2962
27303W        W44827  17.884   1.908   0.988 -0.0425 -0.3071  0.1728
27304W        W44828   7.953   0.985   1.876  0.0540 -0.1206 -0.2867
27305W        W44829  16.341   1.016   0.594  0.1246 -0.1414  0.1217
27306W        W44830   4.087   1.283  15.397 -0.0310 -0.0494 -0.1771
27307W        W44831   6.829   7.896   2.133  0.1452  0.0196  0.2142
27308W        W44832   1.516   3.255   4.065  0.0986 -0.0042 -0.0964
27309W        W44833   0.761   6.963   0.559 -0.1985 -0.0161  0.2084
27310W        W44834   9.822   3.261  14.978 -0.0107 -0.2016 -0.0023
27311W        W44835  11.984  17.687  15.915  0.0497  0.1686 -0.0509
27312W        W44836   2.800   7.491  15.621  0.0500  0.0946  0.0502
27313W        W44837  10.249   4.084   2.441  0.1923  0.0212 -0.3054
27314W        W44838   5.744   2.927   1.407 -0.0011 -0.1807 -0.0423
27315W        W44839   8.391   9.071  14.403  0.2832  0.0848  0.1600
27316W        W44840  10.781  14.881   3.937 -0.0168 -0.0334  0.0485
27317W        W44841   9.561   5.922  12.973  0.0095  0.2260 -0.0290
27318W        W44842  10.138  13.173   4.058  0.2083  0.1690 -0.1531
27319W        W44843   8.559  14.530  11.385 -0.1379 -0.1850 -0.1603
27320W        W44844  11.726  15.584  14.341  0.0900  0.0356 -0.0739
27321W        W44845  12.884   8.686   0.149 -0.2740  0.1657  0.2040
27322W        W44846   6.386  13.843  10.647 -0.1917  0.1048 -0.3029
27323W        W44847  17.622  13.758  15.911 -0.0562  0.0391 -0.2105
27324W        W44848  16.131   9.137  15.530  0.0978 -0.0757  0.2424
27325W        W44849  12.407  17.215  11.571 -0.0857  0.0785 -0.1738
27326W        W44850   4.140   3.696  11.526  0.2227 -0.0298  0.4069
27327W        W44851   8.654   8.594   0.048 -0.0664  0.2587 -0.1689
27328W        W44852   3.515  16.694   3.493  0.1003 -0.1045 -0.1131
27329W        W44853   4.082   5.834  14.129 -0.4115 -0.0817  0.1236
27330W        W44854  16.593  12.758  15.598 -0.2880  0.0495  0.2589
27331W        W44855   6.303   3.122  14.573  0.2992 -0.0107  0.0722
27332W        W44856  13.869   6.459   4.015  0.0536  0.0914  0.1689
27333W        W44857   6.553   7.934   2.580 -0.0144  0.3662 -0.2607
27334W        W44858  16.088  11.183   2.067 -0.0648 -0.2267  0.0591
27335W        W44859  14.876   8.894  15.886 -0.2318 -0.1248 -0.1401
27336W        W44860   9.732   8.855  13.843  0.0300 -0.1885  0.1808
27337W        W44861  10.828   9.008  14.750 -0.1664  0.2109  0.2863
27338W        W44862  17.378   9.997   1.862  0.1454 -0.2665 -0.0422
27339W        W44863   1.393   6.502  13.329 -0.2753 -0.2129  0.2225
27340W        W44864  16.313  15.106   1.600 -0.3288  0.3940  0.1693
27341W        W44865   5.945  11.472  15.633  0.0129 -0.2362 -0.1292
27342W        W44866  17.879  10.024  15.336 -0.1102 -0.1867  0.3373
27343W        W44867   6.381   8.721  15.836 -0.1013  0.1009 -0.1353
27344W        W44868   3.550   0.440   1.042  0.1908 -0.1136 -0.1344
27345W        W44869   4.072   4.336   1.480  0.3476  0.0711  0.3346
27346W        W44870   3.483  15.997  12.269 -0.5401  0.0642  0.0634
27347W        W44871  11.342   8.050  12.641 -0.1622 -0.5185  0.0475
27348W        W44872   6.315   6.478  13.128  0.3787  0.2522 -0.2482
27349W        W44873   4.497  10.409   1.906 -0.0735 -0.0599  0.0693
27350W        W44874  10.071   5.380  13.402  0.1576 -0.3510  0.0878
27351W        W44875  17.068   5.969  14.317 -0.4198 -0.2025 -0.1339
27352W        W44876  11.740  10.635  12.173 -0.2810  0.0559  0.1977
27353W        W44877  13.976   5.457   4.679 -0.0148  0.0312  0.0344
27354W        W44878   2.989   3.572   0.173 -0.0286 -0.0699  0.3513
27355W        W44879   9.605   2.741  15.668  0.2851  0.0158  0.0753
27356W        W44880   4.059  17.498   4.752  0.0946 -0.0744 -0.1244
27357W        W44881   7.378  14.480  14.351 -0.2079 -0.2244 -0.2282
27358W        W44882   4.266   7.900  12.513  0.1216 -0.0415  0.2224
27359W        W44883  16.422   8.593  15.068 -0.0780  0.0774 -0.1282
27360W        W44884  17.744   4.995  15.309  0.1921 -0.0585 -0.0354
27361W        W44885   6.778   1.139  12.992  0.1387  0.0083 -0.0631
27362W        W44886   2.784   0.294   4.255 -0.2041 -0.0452  0.0003
27363W        W44887  16.507  12.315  14.702 -0.2479 -0.2093 -0.2211
27364W        W44888  13.789   5.974  13.126 -0.0746  0.1402 -0.0783
27365W        W44889   2.138   5.827   1.725 -0.2026 -0.0682  0.0778
27366W        W44890   6.317   9.077   1.673  0.0815  0.1429 -0.0199
27367W        W44891  13.478  15.153  13.263  0.0035 -0.2659  0.1669
27368W        W44892  10.203  13.518  16.072 -0.1201  0.1903  0.1147
27369W        W44893   8.006  16.036  14.419  0.2787  0.0356  0.0706
27370W        W44894   6.283   4.866   3.813 -0.0353 -0.0454  0.0059
27371W        W44895   3.864   1.518  13.966 -0.0507  0.2555  0.2129
27372W        W44896   5.175  13.678   0.988  0.0198  0.4016 -0.1284
27373W        W44897   9.448  17.909   1.841  0.3010  0.0085 -0.1208
27374W        W44898  15.469   3.092   3.717 -0.2069 -0.1581  0.0406
27375W        W44899   2.918   1.309  13.621  0.1381  0.0593 -0.1304
27376W        W44900   8.819  10.710   5.048 -0.0014 -0.1841 -0.2143
27377W        W44901   9.103   6.765   0.873  0.2043  0.1854 -0.0373
27378W        W44902   6.780   7.046  12.416  0.2155  0.1252  0.3231
27379W        W44903   9.320   3.685  13.189  0.2558  0.0964  0.0010
27380W        W44904  11.892   2.496   3.763  0.1038  0.0343  0.0301
27381W        W44905  14.200   6.651   1.250  0.0473 -0.2082 -0.0231
27382W        W44906   7.753   6.712  13.853 -0.3255 -0.0924 -0.0544
27383W        W44907   0.829  11.268  12.268 -0.1788  0.1966 -0.0535
27384W        W44908   5.113   5.441   0.267 -0.0195  0.0597  0.0073
27385W        W44909  12.401  16.156   3.523 -0.0841 -0.1905  0.0686
27386W        W44910  13.214  12.931  14.947  0.2644  0.1794  0.0066
27387W        W44911  16.005   8.761   0.721  0.3446  0.1077 -0.1073
27388W        W44912   1.426   6.344   3.337  0.0433 -0.1889 -0.2063
27389W        W44913  12.539   0.638   1.674 -0.0238  0.3687 -0.0359
27390W        W44914  13.169   8.877  11.274 -0.2103  0.0621 -0.0269
27391W        W44915   9.799   6.075  11.090 -0.0426  0.1851 -0.3098
27392W        W44916   1.294   2.841   1.521  0.2435  0.1493  0.1349
27393W        W44917   6.152   5.517   2.894 -0.1758  0.2156  0.2598
27394W        W44918  12.689   5.045   1.451  0.1673  0.0569  0.0895
27395W        W44919  13.977   5.941   2.560 -0.0279  0.0253 -0.1397
27396W        W44920  14.792   5.871  12.854 -0.1288 -0.0592 -0.2305
27397W        W44921  10.407  15.875  11.862  0.0143  0.2159  0.0674
27398W        W44922   4.664  17.112  14.036  0.1081  0.0501 -0.1494
27399W        W44923   2.298  17.833   3.646 -0.1344 -0.1166 -0.0902
27400W        W44924  16.790   9.370  15.006 -0.1256 -0.0641  0.0265
27401W        W44925   0.742  15.878  15.862 -0.1519 -0.3693 -0.2340
27402W        W44926  16.562   2.833  13.537  0.3177  0.2507  0.0481
27403W        W44927  13.042  11.088  12.237 -0.0933  0.1104 -0.2713
27404W        W44928  11.557   1.640  13.727 -0.1059 -0.4037  0.3923
27405W        W44929  11.870   0.119  14.768 -0.1030  0.0200  0.0327
27406W        W44930  16.117  17.007   0.831  0.0255  0.0703  0.0123
27407W        W44931   2.893   9.686   2.487 -0.2487 -0.1328  0.0177
27408W        W44932  14.113   8.773   1.458  0.1322 -0.1031  0.0450
27409W        W44933  14.077   3.193   1.864  0.2047  0.1012  0.0900
27410W        W44934  17.660   0.143  16.206 -0.0836 -0.0945  0.1673
27411W        W44935  17.240   6.098   1.083  0.0767  0.1560  0.3336
27412W        W44936   5.309   6.118  11.562 -0.0309  0.0611  0.1155
27413W        W44937   0.128   8.293  11.494  0.1575  0.1977  0.1716
27414W        W44938   7.786   5.552   3.050 -0.0044  0.0151 -0.0545
27415W        W44939   9.796   0.841  13.294 -0.1921  0.1437  0.1119
27416W        W44940   8.936  11.187   2.434  0.1692 -0.0975  0.0750
27417W        W44941  12.990   5.064   4.770 -0.0153 -0.0087  0.1904
27418W        W44942   3.770  13.687  15.248 -0.2095  0.1488  0.0428
27419W        W44943   7.144  10.470   0.384 -0.0133 -0.3408  0.2983
27420W        W44944   9.365   5.286   1.845  0.1554  0.1173 -0.2176
27421W        W44945  16.113   9.160   1.022  0.0378 -0.1606  0.0466
27422W        W44946  16.840   5.750  11.927  0.2264  0.1889  0.2502
27423W        W44947  11.394   7.768   1.483  0.0007 -0.3261  0.0325
27424W        W44948  12.535  13.422  16.171 -0.1864  0.2489 -0.1377
27425W        W44949   0.986  11.662   1.703 -0.2234  0.0822  0.1832
27426W        W44950  17.919   0.457   0.491  0.0211 -0.1655  0.0752
27427W        W44951  15.544   7.181  14.778 -0.2650 -0.0906  0.4094
27428W        W44952   5.932   7.712  12.083 -0.1767 -0.0102  0.0977
27429W        W44953   6.594  12.314  12.166  0.0918 -0.0201 -0.3824
27430W        W44954  14.097   2.198   5.231 -0.0852 -0.0609  0.0401
27431W        W44955   8.113   7.334   0.762 -0.1849  0.1687 -0.4114
27432W        W44956  17.015  12.378   1.219 -0.0117  0.1443 -0.1798
27433W        W44957  16.056   3.162  16.258 -0.0236  0.1456 -0.0002
27434W        W44958   0.356  11.700  16.041  0.1319  0.1663  0.0836
27435W        W44959  12.578  11.188  15.739  0.4465 -0.3879 -0.2246
27436W        W44960   6.881   2.747  12.830 -0.1327  0.0023  0.3600
27437W        W44961  15.001   3.320   1.499  0.1902 -0.0736  0.1115
27438W        W44962   9.371   5.625   2.614  0.0339 -0.1693  0.3157
27439W        W44963  11.754   1.411   0.560 -0.0133 -0.3292 -0.0260
27440W        W44964   2.240   9.161   4.236 -0.2250 -0.0758  0.1379
27441W        W44965  14.332   7.006   4.623  0.0236  0.2163  0.3675
27442W        W44966   5.861   1.259   1.499  0.1106 -0.2997 -0.1856
27443W        W44967  13.074   6.181  12.724  0.2056 -0.1621  0.0419
27444W        W44968  16.032   2.177  13.483  0.2122 -0.1077 -0.0083
27445W        W44969   8.631  17.787   4.284  0.0850 -0.0046  0.1650
27446W        W44970   8.439   7.117  14.973  0.0059 -0.0199 -0.3536
27447W        W44971  15.009   8.707  14.883  0.2259  0.1603 -0.0498
27448W        W44972   2.194   7.258   2.980  0.2120  0.1432  0.1963
27449W        W44973   0.368   1.415   3.019  0.0503 -0.0611 -0.0141
27450W        W44974   7.661   9.697   1.883 -0.1306 -0.1163  0.4102
27451W        W44975  11.170  13.612   2.873 -0.0642 -0.0486 -0.0651
27452W        W44976  15.098   4.398   5.026 -0.1430  0.0894  0.0424
27453W        W44977  17.254  17.799   1.491  0.3743 -0.1802 -0.1141
27454W        W44978  14.116  15.314   4.659  0.0780  0.1337 -0.0072
27455W        W44979   5.442  14.696   1.033  0.1741 -0.0625  0.0140
27456W        W44980   9.637  14.228  12.529  0.2920 -0.1740 -0.0150
27457W        W44981   6.232  10.350   3.231 -0.0071  0.1518 -0.2372
27458W        W44982  12.984   0.119  14.704  0.1167  0.2809 -0.0053
27459W        W44983   7.294  13.145   2.231 -0.4266 -0.0229  0.2038
27460W        W44984  16.860  16.402   1.056 -0.0837  0.1619  0.0461
27461W        W44985   5.142   5.641  15.281  0.2144 -0.2388  0.2832
27462W        W44986  15.475  17.435   1.559 -0.1995  0.1114 -0.1353
27463W        W44987   6.400   9.605  13.073 -0.1098 -0.0370  0.0213
27464W        W44988   5.220   3.344  10.803  0.3181 -0.1194  0.3783
27465W        W44989   3.124  12.142   2.987 -0.3969  0.0007  0.0935
27466W        W44990   3.554  11.842  12.184  0.1626 -0.1275  0.1167
27467W        W44991   0.136  15.690   0.309  0.1465  0.2864 -0.2707
27468W        W44992   7.335   8.993   1.423  0.0305 -0.0417 -0.0115
27469W        W44993   9.232  12.187  11.214 -0.0161  0.1218 -0.2058
27470W        W44994  16.637   9.230   1.084 -0.0859  0.0671 -0.0302
27471W        W44995   0.497   7.278  12.179 -0.2226 -0.1464 -0.0815
27472W        W44996  15.963   0.295   1.172 -0.2309 -0.0080 -0.2895
27473W        W44997   8.743  16.605   4.752 -0.0822  0.2679 -0.0039
27474W        W44998  12.488   3.232   2.886 -0.0570  0.0624 -0.0275
27475W        W44999  16.162   1.401   4.732 -0.0413  0.1102 -0.2649
27476W        W45000  11.372   1.619  15.999 -0.4617 -0.0798 -0.2306
27477W        W45001   5.836   6.991   3.386 -0.3344  0.1030 -0.0345
27478W        W45002   2.951   3.667   0.669 -0.1416  0.1309  0.0003
27479W        W45003   2.556   2.656   2.156  0.1005  0.0076 -0.4943
27480W        W45004  16.289   4.794   4.713 -0.2487 -0.0225 -0.1610
27481W        W45005   9.789   4.452  10.028  0.1936  0.4283 -0.1552
27482W        W45006  14.091  14.323   2.265 -0.0470 -0.1707  0.0546
27483W        W45007   5.773   3.316  14.725 -0.0163  0.0217  0.1222
27484W        W45008   6.042  17.300  12.403  0.2010  0.3237 -0.0455
27485W        W45009   4.440  10.390   3.306 -0.2345  0.4602 -0.0469
27486W        W45010  11.848   7.701   4.548  0.0548 -0.1053  0.0147
27487W        W45011   9.140  14.571  11.256  0.0789  0.1381 -0.0454
27488W        W45012  14.983   0.612   2.111  0.1107 -0.1765 -0.1709
27489W        W45013  12.070  15.359   5.151 -0.0738 -0.0717  0.2668
27490W        W45014  13.402   3.994   3.115  0.1444  0.1924 -0.0162
27491W        W45015   4.046  11.539  12.382 -0.2045 -0.2655  0.1908
27492W        W45016   3.330   1.723   4.131  0.0967  0.4061 -0.0683
27493W        W45017   9.874   8.488   1.048  0.2290  0.3400 -0.1337
27494W        W45018   9.457   0.175  12.300 -0.1946 -0.0841 -0.0002
27495W        W45019  11.128   3.132   3.546 -0.0566 -0.0662  0.0016
27496W        W45020   7.397   6.763  13.011 -0.0797 -0.0724  0.2074
27497W        W45021   2.031  11.661  13.678 -0.2225 -0.0353  0.0465
27498W        W45022   3.192   8.684  15.438 -0.1797  0.3179  0.1271
27499W        W45023   1.306  10.821  16.257  0.3969  0.0764 -0.3485
27500W        W45024   1.418   2.286   1.644 -0.1547  0.0294 -0.0563
27501W        W45025  15.946   8.796  14.434  0.1990  0.0459 -0.1989
27502W        W45026   2.248   4.509  15.374  0.0439  0.1497 -0.1950
27503W        W45027  13.249  12.808   1.410  0.1215  0.0996 -0.0121
27504W        W45028   0.410   6.534  13.472  0.2225  0.0709  0.2034
27505W        W45029   9.835   6.820  13.365 -0.0715  0.2294 -0.0772
27506W        W45030  11.476  11.481  13.575  0.1809  0.0828  0.2098
27507W        W45031   7.446   1.184  12.392  0.0884  0.1542 -0.4623
27508W        W45032   4.169  12.149   0.304 -0.2095  0.1449  0.0444
27509W        W45033   6.723   8.248   1.792 -0.1661 -0.1396 -0.1423
27510W        W45034  12.046   9.396  14.839  0.1014  0.3306  0.0531
27511W        W45035   6.474  13.057   5.920  0.0761  0.0555  0.1266
27512W        W45036  15.902  14.491  13.140 -0.1165 -0.0266 -0.2814
27513W        W45037  15.870   9.021  11.268 -0.4131 -0.0430  0.2233
27514W        W45038  16.052   2.916  14.055  0.0841  0.3564  0.2861
27515W        W45039   4.354  14.197  11.942  0.3373  0.2906  0.0371
27516W        W45040  13.631   6.313  15.436 -0.1806  0.0067 -0.2218
27517W        W45041  14.213   6.196   1.334  0.4115 -0.1308 -0.1371
27518W        W45042   7.897  11.766   4.620  0.1301  0.2376  0.2689
27519W        W45043   2.737   6.444   2.916 -0.0680 -0.2319  0.0169
27520W        W45044   7.886   1.363   3.410  0.4748  0.1320  0.0769
27521W        W45045  12.973   3.451   3.637  0.1421 -0.0195  0.0696
27522W        W45046   6.472  13.794  11.613  0.1545 -0.0984  0.1685
27523W        W45047   2.735  10.070  12.091  0.2879 -0.0457 -0.0486
27524W        W45048  15.505   8.614  13.030 -0.2836 -0.1700  0.3047
27525W        W45049   3.365   3.795   0.422 -0.0177  0.0793 -0.2334
27526W        W45050   0.936  14.430   3.678  0.0050  0.0062  0.0119
27527W        W45051   7.762   9.044  14.964  0.3047  0.2043 -0.0822
27528W        W45052  15.083   0.692   5.463  0.0969  0.0436  0.0341
27529W        W45053   9.107   9.982  15.065 -0.0492  0.1413  0.0061
27530W        W45054   4.361   3.351   4.532  0.0102 -0.2901 -0.2200
27531W        W45055  13.392  14.955   4.438  0.3906  0.1381  0.3585
27532W        W45056  13.640   8.922  13.791  0.1562  0.0264  0.0873
27533W        W45057  11.043   5.078  11.762  0.0260 -0.0995  0.0181
27534W        W45058  12.319   9.276  12.266  0.0850 -0.1625 -0.0109
27535W        W45059  12.070  17.926  15.462  0.2828  0.1264 -0.2016
27536W        W45060  17.465  12.876  14.025 -0.1350 -0.1219  0.0764
27537W        W45061  14.073   7.187   1.313  0.1746 -0.0862 -0.0036
27538W        W45062   1.665   9.675  12.636  0.1852 -0.2317  0.0563
27539W        W45063   6.168   1.838  13.266  0.0050  0.2053  0.0820
27540W        W45064  15.273  11.819  15.786 -0.1303  0.1043 -0.0195
27541W        W45065   3.071  11.462   4.811 -0.0831  0.1186  0.2088
27542W        W45066   1.783  11.331  13.997  0.0723  0.1766 -0.0954
27543W        W45067   4.300   9.725   4.979 -0.0885 -0.5843  0.0192
27544W        W45068   9.486   1.721   0.916 -0.1367 -0.1077 -0.2197
27545W        W45069   3.444   5.978   0.990 -0.0661 -0.0685  0.0404
27546W        W45070   8.771   5.166  13.791  0.0793 -0.0636  0.0611
27547W        W45071  14.462   6.914   5.568 -0.1918  0.1923 -0.2468
27548W        W45072  11.311  13.312  15.431  0.2727 -0.1140 -0.1578
27549W        W45073   5.815  14.050  13.176 -0.2828 -0.0094  0.0212
27550W        W45074   0.057  16.516  13.592 -0.1149 -0.2042 -0.0820
27551W        W45075  11.024  15.168   5.151 -0.2051  0.1203  0.3624
27552W        W45076   5.349   4.386  14.785 -0.0207 -0.1287  0.1856
27553W        W45077   1.225  11.988   4.723 -0.3392 -0.1162  0.1472
27554W        W45078  16.983  16.354  15.887 -0.0525  0.1100  0.0408
27555W        W45079  15.471  16.617  14.382  0.0544 -0.0406  0.0313
27556W        W45080  17.547  10.954  13.473 -0.0355 -0.3070  0.3181
27557W        W45081  13.932   8.090   3.059  0.0413  0.3821 -0.0719
27558W        W45082   3.331  14.357   1.433  0.4367 -0.3493  0.0241
27559W        W45083   2.221   4.152   0.546  0.0270 -0.1511  0.3369
27560W        W45084   3.117   3.683  15.875  0.1012 -0.0549  0.1987
27561W        W45085   8.171  14.423  14.863  0.1745 -0.2576 -0.0779
27562W        W45086  14.954   6.051   2.977  0.3769 -0.0106  0.0054
27563W        W45087   8.183  12.401   5.589  0.1026 -0.1645 -0.0621
27564W        W45088   5.520  15.118  12.642  0.0695 -0.0255 -0.0748
27565W        W45089  11.581   6.964  11.255  0.4045 -0.2333  0.2043
27566W        W45090  17.009   6.976   4.847 -0.4395  0.0119 -0.0383
27567W        W45091  11.500  12.411   0.919 -0.1592  0.2067 -0.0792
27568W        W45092   7.216   1.404  14.636  0.0078  0.1592 -0.0412
27569W        W45093  16.318  12.210  12.320  0.0745  0.1108  0.5231
27570W        W45094  10.866   1.694   4.697  0.0884  0.0763  0.0406
27571W        W45095  10.419  15.808   0.913 -0.1641  0.1874 -0.0222
27572W        W45096   0.050   2.592   2.129 -0.0079  0.3168  0.1182
27573W        W45097  12.755   4.071  12.607 -0.2375  0.0828 -0.3580
27574W        W45098  11.552   5.189   0.832  0.2735 -0.0521  0.3589
27575W        W45099   1.711  11.997   4.839  0.2468  0.2473  0.0173
27576W        W45100   0.830  14.715  11.229  0.0458  0.0127  0.0192
27577W        W45101   9.929  11.920  14.669 -0.1257 -0.0517 -0.2048
27578W        W45102   8.595  17.241  11.080  0.2972 -0.2444  0.0056
27579W        W45103  17.749  11.238   1.100  0.1456  0.1175 -0.1594
27580W        W45104  15.337  14.313  11.721 -0.1596 -0.0782  0.3170
27581W        W45105   4.461  11.760  12.315 -0.0596  0.1630  0.1635
27582W        W45106   7.748   1.534  13.887 -0.1132 -0.1152 -0.1112
27583W        W45107   9.779   5.805   1.867  0.2405  0.1006 -0.0442
27584W        W45108  10.334   9.249   1.332 -0.0441 -0.0759 -0.0681
27585W        W45109   9.718   4.278   4.643  0.0815  0.1165  0.2080
27586W        W45110  12.441   5.945   3.946  0.2873  0.1281 -0.1647
27587W        W45111   9.305  13.708   0.212  0.0755 -0.0731  0.2272
27588W        W45112   8.171  16.309  15.009  0.0177  0.3162 -0.1267
27589W        W45113  10.040  15.281   5.132 -0.0079  0.0809  0.1275
27590W        W45114   0.046   5.610   1.929  0.1306 -0.3545  0.1297
27591W        W45115  10.714  17.721  14.181 -0.1120 -0.1390  0.0363
27592W        W45116   0.041   0.792   3.584 -0.0644  0.1585  0.0038
27593W        W45117  13.360  14.101  11.973  0.0734  0.1160 -0.2777
27594W        W45118   2.022   0.593  11.120  0.3417 -0.0445 -0.0105
27595W        W45119   8.666   7.924   4.823  0.0977 -0.2331 -0.1083
27596W        W45120  16.813   2.067   3.059  0.3041  0.0745 -0.1567
27597W        W45121  10.704   6.308  11.607 -0.2457  0.1853 -0.3078
27598W        W45122  14.061   5.595  11.220  0.3710 -0.0117  0.0734
27599W        W45123   4.556   5.961  14.133  0.1523  0.2467 -0.0509
27600W        W45124  17.261   5.536   0.933  0.0870 -0.3241  0.1034
27601W        W45125  10.242   0.326  13.541  0.1104 -0.2799  0.1613
27602W        W45126  14.731   7.393   0.169 -0.0002 -0.2123 -0.0001
27603W        W45127   4.373   2.087  13.208 -0.1797 -0.1345 -0.2061
27604W        W45128  12.044   5.362  14.430  0.1045 -0.1168 -0.0838
27605W        W45129  16.367   0.660   1.909 -0.1231  0.0477 -0.0221
27606W        W45130  12.475   3.757  13.854  0.3131 -0.1539 -0.2234
27607W        W45131   2.371  11.442   1.426 -0.1218  0.1508 -0.4256
27608W        W45132   7.116  11.448   3.919  0.4376  0.0531 -0.0749
27609W        W45133   2.682  10.975   3.443  0.0239 -0.1242 -0.1492
27610W        W45134  13.866  13.636  16.018  0.1948  0.2901 -0.1537
27611W        W45135  11.463   8.989  13.938  0.0223  0.0502  0.0604
27612W        W45136   7.117   3.857  13.066 -0.0525 -0.0239 -0.0030
27613W        W45137  13.783  11.083   1.720  0.1274  0.2065  0.0059
27614W        W45138   7.494  16.550   4.104 -0.0666  0.1482 -0.1398
27615W        W45139  11.897   8.318   4.557  0.1238 -0.1239  0.0338
27616W        W45140  12.990  10.328   4.184 -0.3220 -0.2450 -0.1511
27617W        W45141  10.806   4.473   1.333  0.0642 -0.0154 -0.1981
27618W        W45142   9.594  11.016  11.892  0.3914  0.0210 -0.0473
27619W        W45143   5.163   7.319   2.701 -0.4368 -0.2113 -0.2267
27620W        W45144  13.578   0.439   1.691  0.0365  0.0527  0.3670
27621W        W45145   5.301   0.391  10.823 -0.1718 -0.0012  0.2003
27622W        W45146  15.609   1.944   0.182 -0.2014  0.0263 -0.1434
27623W        W45147  15.788   0.575  14.197 -0.3391  0.1350 -0.2325
27624W        W45148   5.168  14.195   3.680  0.1970  0.0742  0.0610
27625W        W45149   3.675   0.553  13.849  0.2122 -0.1016  0.1026
27626W        W45150   3.047   5.867  14.297 -0.0077 -0.0028  0.0355
27627W        W45151   0.469   6.751  12.268  0.2304 -0.0787  0.1781
27628W        W45152  13.341   9.431   4.343  0.0695 -0.1552  0.0249
27629W        W45153   5.549   4.523   3.474  0.2004 -0.0599 -0.1272
27630W        W45154   2.307  14.478   4.245  0.2430  0.1246 -0.1584
27631W        W45155  12.366   4.896   3.861 -0.0022  0.0127  0.2999
27632W        W45156  17.193   7.955   4.507  0.2963 -0.0941 -0.1417
27633W        W45157   8.191   1.174   0.866  0.0999 -0.1376  0.1614
27634W        W45158  14.727   4.521   2.315  0.1169  0.1691 -0.2941
27635W        W45159  15.329   0.028  13.460 -0.0252 -0.1014  0.0032
27636W        W45160   3.200   9.719   4.083  0.3454 -0.1566  0.3228
27637W        W45161   1.312   5.481  13.240 -0.1860 -0.0416  0.0700
27638W        W45162  13.009   6.954   0.713  0.0492  0.1081  0.0521
27639W        W45163   3.095  11.067   1.209  0.2267 -0.2795 -0.2357
27640W        W45164  11.321   2.267   2.029  0.1541  0.0607 -0.2318
27641W        W45165   5.237  13.561  13.784  0.0592  0.3190  0.0653
27642W        W45166  15.336   4.007   1.974  0.4846  0.1404 -0.0294
27643W        W45167  15.837  17.378   4.677 -0.2177 -0.0404 -0.1536
27644W        W45168   3.585  17.075   4.674  0.0664 -0.0501  0.0270
27645W        W45169   1.388   4.910  14.316  0.1725  0.2293  0.1666
27646W        W45170   7.484   1.037   4.242  0.2590  0.0829  0.0072
27647W        W45171   3.398   4.222  15.211 -0.1822  0.4317  0.0132
27648W        W45172  12.497  11.975   4.756 -0.0336 -0.1286  0.4446
27649W        W45173   2.301  11.644   5.297 -0.0362 -0.2044 -0.0889
27650W        W45174   1.678   0.581  14.658 -0.2367  0.0465 -0.2190
27651W        W45175   0.168  14.569   4.110  0.1010 -0.2311 -0.1007
27652W        W45176   5.259  15.437   3.950 -0.1151  0.0578 -0.2423
27653W        W45177  11.719   7.266   1.652 -0.2908 -0.1648  0.1145
27654W        W45178  11.363  11.789   0.749  0.0646 -0.3595 -0.1289
27655W        W45179  11.174   2.016  11.443  0.3849  0.1844  0.2723
27656W        W45180  16.295  13.722   0.099 -0.2601  0.0781  0.0954
27657W        W45181   2.742   2.065  15.340  0.1057 -0.0596 -0.0266
27658W        W45182  11.785   1.697   4.352 -0.4139 -0.2233  0.0933
27659W        W45183   5.041   6.093   1.844 -0.3997 -0.0945 -0.0168
27660W        W45184  13.261   7.496   1.386 -0.3827 -0.0410  0.1610
27661W        W45185  12.102   4.839  11.883  0.2532  0.2686  0.3049
27662W        W45186   2.656  14.069  16.064 -0.0630  0.1169 -0.0475
27663W        W45187  13.629   9.365  11.700 -0.0862  0.1638 -0.1788
27664W        W45188  10.648   8.866  11.797 -0.1240  0.0330  0.0797
27665W        W45189  14.918  16.808   2.900  0.0663 -0.2451  0.0376
27666W        W45190  15.439   7.068  14.182 -0.3513  0.0100 -0.2383
27667W        W45191  10.776  15.668  11.541 -0.0676  0.0061  0.1536
27668W        W45192   2.548   8.692   1.280 -0.3639  0.1224  0.0499
27669W        W45193  14.561  13.343   1.392 -0.0919  0.1883 -0.0664
27670W        W45194  16.420  16.303   5.396  0.0494  0.0002  0.1041
27671W        W45195  17.719  14.814  14.228 -0.1640 -0.2235 -0.0741
27672W        W45196   4.712  15.073   1.514  0.0085  0.1524  0.1089
27673W        W45197   4.996  17.562   0.113 -0.0063  0.0385  0.2640
27674W        W45198   8.879   2.503  14.318 -0.2821 -0.1259  0.0303
27675W        W45199  13.266   0.993  10.377  0.1417  0.0746 -0.2086
27676W        W45200   3.378  10.740  10.991  0.3413 -0.0960  0.1737
27677W        W45201   9.983   1.986  14.666 -0.0759  0.0585 -0.0729
27678W        W45202  13.179  16.261  13.347 -0.2122  0.1196  0.0131
27679W        W45203  13.863   1.079  12.301  0.2226  0.0198  0.2016
27680W        W45204  13.213   9.943   3.600 -0.1676 -0.3630  0.1524
27681W        W45205   4.917   0.672   4.556 -0.0545 -0.1493 -0.0061
27682W        W45206  16.703   2.397  11.561  0.0686 -0.1044  0.0889
27683W        W45207  17.131   7.511   2.069  0.1617  0.0307 -0.4378
27684W        W45208   6.078   7.251  11.637  0.0467 -0.2053  0.2844
27685W        W45209  17.550   1.695   1.613 -0.1811  0.0217 -0.0882
27686W        W45210   4.109   8.285   4.232  0.1393 -0.0413 -0.0104
27687W        W45211   1.768   5.569  12.952  0.0840  0.2116  0.2306
27688W        W45212   7.269   0.209  13.636  0.0385  0.0080  0.3745
27689W        W45213  17.196   2.306  15.561 -0.1893  0.0138 -0.0416
27690W        W45214  12.638  15.350  15.441  0.2640  0.1807  0.0018
27691W        W45215   4.167   9.246   5.170  0.5132 -0.1445  0.1807
27692W        W45216  15.089   7.703  10.174  0.2103  0.3640 -0.0727
27693W        W45217   3.589   7.525  14.097 -0.1934  0.0753 -0.0699
27694W        W45218  17.516  17.093  14.565 -0.0980 -0.3305 -0.1346
27695W        W45219   9.953  17.220   3.406 -0.3173  0.1762 -0.3547
27696W        W45220   6.289   0.840  14.977  0.0977 -0.2897  0.0659
27697W        W45221   9.887   5.467   3.189 -0.0406  0.2462 -0.1006
27698W        W45222   5.446  16.209   4.321 -0.1138  0.2346  0.2117
27699W        W45223   1.475   1.872  12.861 -0.1779  0.0385 -0.0094
27700W        W45224   7.138  17.744  16.207 -0.0920  0.2347 -0.1490
27701W        W45225  12.469  13.119  14.773  0.0718 -0.2200 -0.0578
27702W        W45226  11.336  15.763  13.057  0.0288 -0.0118 -0.0821
27703W        W45227   1.303  10.392   0.325  0.2823  0.0633  0.1368
27704W        W45228  16.444  13.187  13.273  0.1980  0.0409 -0.0376
27705W        W45229   5.676   6.668  13.962  0.2585  0.0845 -0.0451
27706W        W45230  16.089  10.508   3.208  0.0668  0.0581  0.0671
27707W        W45231   9.869  13.081  14.317  0.0054 -0.1208  0.2889
27708W        W45232   3.541   0.694  12.184 -0.1887 -0.0026 -0.0602
27709W        W45233   6.505   1.938  12.466  0.0052  0.2882 -0.1089
27710W        W45234   3.175  10.083   2.381  0.1761  0.0003  0.0593
27711W        W45235   3.995   0.909   2.835 -0.1826  0.2331 -0.5068
27712W        W45236   2.940   2.410   1.990  0.0301  0.5074  0.0312
27713W        W45237  14.371  13.294  15.954 -0.0367 -0.0783  0.0237
27714W        W45238   8.026   7.666   2.727  0.0860 -0.0006 -0.2373
27715W        W45239   9.013   9.101   2.798 -0.0180 -0.2459  0.0104
27716W        W45240  12.465  12.497   2.881  0.0243 -0.1463 -0.0232
27717W        W45241  15.780  12.425   1.835  0.1761  0.2224  0.0203
27718W        W45242   8.867   0.176   3.525  0.0095 -0.0337  0.0018
27719W        W45243  16.214  17.859  15.933  0.0157  0.3965 -0.0274
27720W        W45244   5.562   8.062  13.072 -0.1636 -0.0160  0.2386
27721W        W45245   4.739  11.796  13.905  0.0300 -0.3583  0.0344
27722W        W45246   2.398   6.181   1.980 -0.0871 -0.0295 -0.1052
27723W        W45247   4.871   7.858  15.431  0.1039  0.2708 -0.0700
27724W        W45248  12.602  16.974  14.893 -0.0485  0.2142 -0.0009
27725W        W45249  14.313  15.282   2.583  0.3281 -0.2482 -0.2392
27726W        W45250   6.398  15.764   3.365  0.1505  0.1641 -0.1213
27727W        W45251  17.153  13.122   4.065 -0.0655  0.0836  0.1282
27728W        W45252   0.712   7.600  14.786  0.0897 -0.0778 -0.1233
27729W        W45253   4.379  11.044  14.300  0.1741 -0.2628 -0.2182
27730W        W45254  14.683   8.424   3.768  0.1472  0.2072 -0.1280
27731W        W45255  11.487   6.104   4.940  0.2264  0.0616  0.0416
27732W        W45256   4.036   5.529   3.852 -0.1403  0.2399  0.0332
27733W        W45257  13.141  15.860   3.169 -0.0398 -0.2924 -0.0938
27734W        W45258  14.639   2.815   5.448  0.0358  0.2088 -0.0677
27735W        W45259   2.620  11.861   1.515  0.1603  0.0702 -0.1906
27736W        W45260   1.254  13.319   5.492  0.1122 -0.1403  0.1566
27737W        W45261  16.285  15.190  14.464  0.1688 -0.1318  0.0071
27738W        W45262  14.456   7.245  13.213 -0.5362  0.0564 -0.0279
27739W        W45263   4.892  15.151  15.088 -0.0731 -0.0437 -0.0650
27740W        W45264   3.449   9.006   0.554  0.0374  0.0328  0.0461
27741W        W45265   6.946  17.816   1.252 -0.2438  0.0194  0.0101
27742W        W45266   9.401   0.414  15.196  0.1114 -0.0345 -0.2479
27743W        W45267   4.036  16.841  13.865 -0.0437  0.2189  0.1660
27744W        W45268   5.445   2.969  14.707  0.0617  0.0881 -0.1710
27745W        W45269   7.770   4.922  15.585  0.2811 -0.0106 -0.1605
27746W        W45270   8.026  16.173   4.867 -0.0244 -0.0941  0.1535
27747W        W45271   3.262   3.013  12.950  0.1438 -0.1817 -0.0908
27748W        W45272  10.384   2.206   0.109 -0.1644  0.0099 -0.2254
27749W        W45273   9.516  11.273   3.013  0.1246 -0.0807  0.0960
27750W        W45274   1.267  14.885   5.086 -0.4855  0.0313  0.1365
27751W        W45275  11.977  10.682  11.226  0.1491  0.1441 -0.2049
27752W        W45276   9.814   3.355   2.691  0.1833 -0.4033  0.2073
27753W        W45277   7.255   8.436   0.682 -0.0025  0.1609  0.1407
27754W        W45278   9.501   9.935  13.101  0.0846  0.3628  0.0567
27755W        W45279   7.875  15.041  15.622  0.0915  0.2849  0.1253
27756W        W45280   2.528  13.152  15.249 -0.0890 -0.0431 -0.3024
27757W        W45281   4.252   3.160  11.599 -0.0104  0.1513  0.0302
27758W        W45282   4.509  12.846  16.068 -0.0716  0.0734  0.1269
27759W        W45283  13.372   5.116  15.339 -0.1185  0.2173  0.0452
27760W        W45284   4.990  15.249   4.392 -0.2600 -0.1950  0.0692
27761W        W45285   1.717   2.217  12.553  0.4552  0.1556 -0.0734
27762W        W45286  14.933  14.042   1.188  0.0498 -0.2014  0.1275
27763W        W45287  13.311  15.450   4.409  0.1873 -0.1067  0.1246
27764W        W45288   9.500   8.175   0.919  0.1079 -0.0390  0.0554
27765W        W45289   6.564  15.169  16.111  0.2912  0.1448 -0.1387
27766W        W45290   7.511  10.358  10.354  0.0573 -0.0257 -0.3003
27767W        W45291  17.011  15.331  10.099  0.0733  0.0011 -0.1291
27768W        W45292   5.367   9.620  15.834 -0.3726  0.0106 -0.1381
27769W        W45293   1.376  15.944   1.447  0.0737  0.2210 -0.0590
27770W        W45294  14.765   2.830   2.168 -0.1633 -0.0164  0.0464
27771W        W45295  12.977   6.835  15.607 -0.0880  0.1836 -0.0669
27772W        W45296  12.105  15.995  11.751 -0.3564  0.0300  0.1664
27773W        W45297  11.385   3.606   2.389  0.0357  0.3354  0.0921
27774W        W45298   2.394   5.825  13.984  0.1430  0.0993 -0.1069
27775W        W45299   3.405   2.525  13.233 -0.2092  0.0221 -0.3456
27776W        W45300   3.822   3.386  14.850  0.0623  0.2892  0.1173
27777W        W45301   0.711  15.453  13.526 -0.0217 -0.0834  0.0903
27778W        W45302   8.478   3.213  15.670 -0.2467  0.0061 -0.3061
27779W        W45303   8.872   9.818   0.222 -0.0953 -0.2654 -0.2940
27780W        W45304   7.938  11.703  11.105  0.1002 -0.0621  0.2685
27781W        W45305   6.466   6.439  15.714  0.2041  0.1754  0.0251
27782W        W45306   7.295   2.433   3.593 -0.0730  0.2535 -0.0573
27783W        W45307   5.987   1.138   4.063 -0.0150 -0.2423 -0.0862
27784W        W45308  12.808  17.530  12.412 -0.1971  0.2008 -0.1035
27785W        W45309   7.719  16.745  12.446 -0.3348  0.0053 -0.0755
27786W        W45310   4.131   3.940   4.585  0.2115 -0.0266 -0.0869
27787W        W45311   2.091  17.323  13.069  0.2942  0.0808 -0.0814
27788W        W45312   2.988   9.720  14.559  0.3107  0.2382 -0.1511
27789W        W45313   4.348   1.868   5.346  0.3466 -0.0123  0.0734
27790W        W45314  15.323   2.283   2.723 -0.2918 -0.1461 -0.3456
27791W        W45315  13.584  14.283  13.947  0.1140  0.1266 -0.2848
27792W        W45316   1.577   8.806   0.254 -0.2316 -0.0274  0.0070
27793W        W45317  16.606   4.796   3.037  0.1861 -0.0469 -0.0463
27794W        W45318   8.392  14.151   0.102  0.0879 -0.1395  0.1149
27795W        W45319  12.011  10.137   3.579 -0.0338 -0.0694 -0.1796
27796W        W45320   7.561  17.958  11.791  0.0761  0.0508  0.1527
27797W        W45321  14.233   7.152   0.024 -0.0894  0.1992  0.0964
27798W        W45322   8.802  17.857   2.512  0.1973  0.0721  0.0056
27799W        W45323   0.983   0.826   3.370  0.1540  0.0611 -0.1200
27800W        W45324   0.402   7.835   1.593 -0.3398 -0.0211  0.0013
27801W        W45325  12.811  12.364   5.050  0.4260  0.0749 -0.0995
27802W        W45326  17.833  14.820   2.867  0.0825 -0.4193  0.2806
27803W        W45327   1.319  11.810   5.169 -0.2896 -0.1806  0.1399
27804W        W45328   1.589  15.112  15.019  0.2514 -0.0318 -0.0743
27805W        W45329   0.317   2.609   0.609 -0.1421  0.3795 -0.1921
27806W        W45330  10.292   6.215  11.982  0.2352  0.0819  0.0918
27807W        W45331   7.339   1.872  15.079  0.0640 -0.1845  0.1582
27808W        W45332  12.536  17.022  11.120 -0.0382  0.2194  0.0549
27809W        W45333   6.548  17.518  12.020 -0.0982 -0.0362  0.2075
27810W        W45334  14.531   5.769   0.198  0.1068  0.1334 -0.0554
27811W        W45335  16.387   7.668  12.091 -0.2998  0.0056 -0.1553
27812W        W45336   6.828   7.363  16.031  0.1918  0.0990  0.1980
27813W        W45337   0.730   2.541   3.065  0.3207  0.1570  0.1578
27814W        W45338  15.630   7.850   0.257  0.0568  0.3632  0.1639
27815W        W45339   8.463   3.826   2.607 -0.0755  0.0310  0.2652
27816W        W45340  14.320  17.200  12.625  0.1558  0.0699  0.2943
27817W        W45341  15.533   1.492  13.865  0.0381  0.0480 -0.0297
27818W        W45342   3.312   7.226  13.168  0.2286  0.0135 -0.2703
27819W        W45343   4.410   3.398  16.119 -0.0673  0.0689 -0.1726
27820W        W45344   4.796   4.048   0.454 -0.1198  0.1708  0.0302
27821W        W45345  14.678   6.803   0.000  0.0646  0.1394 -0.0913
27822W        W45346  17.062   6.524   5.201 -0.0178 -0.0421 -0.1064
27823W        W45347   9.596  15.953  13.281 -0.0109 -0.1335 -0.0492
27824W        W45348  15.184   0.758   4.140  0.1524 -0.0212 -0.3281
27825W        W45349  13.699   7.580   0.560 -0.1817  0.0546  0.1374
27826W        W45350  13.993   0.544   0.297 -0.3332 -0.2059  0.0535
27827W        W45351   1.939  10.317  11.980  0.2080 -0.1375 -0.0379
27828W        W45352   0.761   1.126  13.332  0.0629 -0.3446 -0.0480
27829W        W45353   1.917  14.172   4.867  0.2176  0.1842  0.0733
27830W        W45354   8.352  13.886   1.028 -0.2418  0.0336 -0.1521
27831W        W45355   0.742   8.260   2.476 -0.1022 -0.1768  0.1758
27832W        W45356   2.219   8.542   2.857 -0.0110  0.1533 -0.1964
27833W        W45357  11.571  17.783   2.205 -0.0346  0.1912 -0.1908
27834W        W45358   6.214   0.458  15.276 -0.1247 -0.1581 -0.1519
27835W        W45359   5.882  14.248   5.060 -0.1647  0.2873  0.0056
27836W        W45360  13.586  11.451  12.888  0.3328 -0.2823 -0.1444
27837W        W45361   5.409   4.354  11.919 -0.5296  0.0152  0.1843
27838W        W45362   4.348  14.207   1.727 -0.1425 -0.0107  0.2239
27839W        W45363   8.364  16.427   3.948 -0.2376 -0.0109  0.0175
27840W        W45364   2.539  14.016  14.411  0.2221 -0.0942 -0.0724
27841W        W45365  12.254  11.976   0.409  0.0796 -0.0276  0.1034
27842W        W45366   0.308  12.993  16.222  0.1323 -0.2451 -0.0902
27843W        W45367  12.015  17.389   4.580  0.0945 -0.3108  0.1277
27844W        W45368   0.726   2.007   5.495 -0.1103 -0.2269  0.2751
27845W        W45369   4.101  10.201   2.951 -0.1361 -0.1611 -0.1580
27846W        W45370   9.311  14.281   4.749  0.0470 -0.1941 -0.0218
27847W        W45371   0.430  16.674   2.861  0.0981  0.1891 -0.2481
27848W        W45372   0.075   3.904   4.311  0.1626 -0.0267 -0.0890
27849W        W45373  11.250  14.511  16.125 -0.0952 -0.1608 -0.1228
27850W        W45374  13.266   5.561  12.242  0.1561 -0.1590 -0.2331
27851W        W45375  17.292  12.965   2.035  0.0001  0.0523  0.2440
27852W        W45376   6.472   1.980   0.135  0.1854 -0.1967  0.3316
27853W        W45377   5.937  17.033  12.830  0.0609 -0.2719  0.2894
27854W        W45378   1.100  16.336  14.372 -0.1168  0.0745  0.0323
27855W        W45379   0.317   5.636  13.141  0.1039  0.0324  0.2910
27856W        W45380   3.403   6.569  15.475 -0.2061  0.0138 -0.1764
27857W        W45381  13.254  17.615  13.384 -0.0924 -0.3305  0.1164
27858W        W45382  14.736   5.380   1.131 -0.0079 -0.0835 -0.1585
27859W        W45383   9.032  17.634   2.022 -0.1264  0.1446 -0.1502
27860W        W45384  11.241   7.778  16.246 -0.1615 -0.0126 -0.4590
27861W        W45385   6.619  10.549   4.138  0.0392 -0.3454  0.3470
27862W        W45386   9.467   8.375  11.848 -0.0784 -0.0541  0.2474
27863W        W45387   1.655   2.701   1.803  0.0339  0.1274  0.2889
27864W        W45388  12.064   5.806   4.322  0.0199 -0.2158  0.1108
27865W        W45389   0.609  13.938  14.890  0.4169  0.1795  0.3703
27866W        W45390  12.933   0.605  15.428  0.1314  0.0771  0.1973
27867W        W45391   7.957  14.461  14.358 -0.2064  0.0024  0.0432
27868W        W45392   0.059  10.905   2.543 -0.2265 -0.1234 -0.0852
27869W        W45393   6.921   9.221   0.179  0.0371 -0.0491  0.2825
27870W        W45394  16.966  14.040  15.372 -0.1441  0.0054  0.0782
27871W        W45395  10.426   6.757  15.198 -0.2829 -0.0785  0.1908
27872W        W45396   7.010  17.237  12.307 -0.3500 -0.0533 -0.2241
27873W        W45397  16.972   0.511  13.485 -0.0282 -0.4770  0.2504
27874W        W45398   9.756  15.133  12.634 -0.0733  0.0225 -0.2508
27875W        W45399  14.971   0.591  15.160  0.1584 -0.1400  0.0723
27876W        W45400   0.064   7.467  13.865 -0.0765 -0.1787 -0.0883
27877W        W45401  11.330   3.684  11.459 -0.2635 -0.0302  0.0491
27878W        W45402   9.944  12.421  11.739 -0.2475  0.0039  0.3476
27879W        W45403  15.564  13.061  14.785  0.0008  0.1901  0.3099
27880W        W45404  13.436  17.123  14.075 -0.3264  0.0334  0.1545
27881W        W45405   3.672   5.433  14.563 -0.1264 -0.3642  0.0752
27882W        W45406  16.146   4.601  14.259 -0.1356 -0.2347  0.3907
27883W        W45407   3.959  14.163   0.754  0.0171 -0.0965  0.1431
27884W        W45408  12.478   3.070  15.630 -0.0513 -0.4294  0.0889
27885W        W45409  16.721   9.958  15.287 -0.2119 -0.0855  0.0717
27886W        W45410   1.611   0.001  14.010 -0.1284  0.1807 -0.1350
27887W        W45411  15.498   8.452   0.303  0.5378  0.0696 -0.2691
27888W        W45412  14.175  13.978  11.387  0.1583  0.1496  0.0814
27889W        W45413   3.052  12.749  14.802 -0.0938 -0.1893  0.1398
27890W        W45414   6.847  15.431  13.584  0.2815 -0.1384  0.0667
27891W        W45415  13.749   1.668  14.945  0.2769  0.2505  0.0473
27892W        W45416  13.573  10.319   2.700  0.2024  0.1215 -0.0364
27893W        W45417  12.894   0.163  15.763 -0.1546 -0.1998  0.0289
27894W        W45418   8.121   0.953   3.984  0.0593  0.0832  0.1003
27895W        W45419   2.009  16.172   0.689 -0.0105 -0.0157  0.0594
27896W        W45420   3.869   1.799  14.392  0.1032  0.1318 -0.1973
27897W        W45421   6.881  11.781   3.446  0.0481  0.1385 -0.3122
27898W        W45422   8.347  14.803   2.079  0.0704  0.0080 -0.1887
27899W        W45423   5.668   7.004  15.217  0.0145  0.3642  0.1995
27900W        W45424   1.547  12.470  14.130  0.0378  0.0641 -0.0077
27901W        W45425   3.594   1.261   3.887  0.1166  0.0839 -0.1308
27902W        W45426   7.176   4.495   0.420 -0.1623 -0.1682  0.0851
27903W        W45427   6.014   7.764  15.597  0.0071  0.1827 -0.0206
27904W        W45428   3.074  14.148  15.241  0.2027  0.1915 -0.0494
27905W        W45429  15.717   9.476   1.204  0.0175  0.1070  0.0185
27906W        W45430   4.433  16.876  13.107 -0.3606  0.0023 -0.2417
27907W        W45431  12.807  11.943  11.871 -0.0951  0.3721 -0.1400
27908W        W45432   9.300   2.109  14.037 -0.3604 -0.0962 -0.0268
27909W        W45433   6.649   1.324  15.721  0.1173 -0.3723  0.1201
27910W        W45434   6.750   1.550  12.213  0.1084 -0.1985  0.0153
27911W        W45435  10.314   9.863  12.464 -0.1597 -0.1961 -0.0996
27912W        W45436   0.553   0.605  14.281 -0.2257 -0.3389 -0.0110
27913W        W45437   1.502   4.048  12.811  0.3485 -0.0915  0.0605
27914W        W45438   7.287   0.582   4.099 -0.1784  0.3101 -0.0109
27915W        W45439   3.181  10.869   4.164 -0.2656  0.1310  0.1086
27916W        W45440   7.112   6.912   0.591  0.2074  0.1312 -0.0564
27917W        W45441   0.167   7.060  14.196  0.0299 -0.0253  0.0618
27918W        W45442  12.080   4.186   0.029  0.0245  0.1978  0.0982
27919W        W45443   1.812  14.302  11.629  0.1200 -0.0414 -0.0060
27920W        W45444   5.451   7.684  11.896  0.1148  0.1729  0.0322
27921W        W45445  14.635  17.609  12.423 -0.0028 -0.2125 -0.0399
27922W        W45446   3.419   5.754  11.882  0.1974  0.0226 -0.0205
27923W        W45447   1.404  13.047   3.611  0.2212 -0.2921  0.1001
27924W        W45448   7.492  10.319  14.519 -0.0599 -0.1757 -0.0709
27925W        W45449  15.246   8.080   0.475  0.0789 -0.1633 -0.4360
27926W        W45450  15.673  14.589  15.365 -0.2920  0.1998  0.0105
27927W        W45451  11.551   2.014   1.397 -0.1495  0.1390 -0.2783
27928W        W45452   6.765  17.136   4.594 -0.2139 -0.1319 -0.1352
27929W        W45453   1.129  16.913  15.585 -0.0091  0.0274 -0.1182
27930W        W45454   1.949  15.703  13.798 -0.2707  0.1951 -0.0099
27931W        W45455   9.649   4.931   1.455 -0.2362 -0.0335 -0.0945
27932W        W45456  13.853   0.134  14.251 -0.0133  0.1958  0.0520
27933W        W45457   8.943   9.289   3.261 -0.2863 -0.0953  0.2368
27934W        W45458  10.654  15.186   0.028 -0.1905 -0.1153  0.0540
27935W        W45459   5.470   4.205   4.870 -0.1646 -0.3032  0.1701
27936W        W45460  14.747  16.231  15.404 -0.1949 -0.2320  0.1165
27937W        W45461   8.321  14.180  15.821  0.0478  0.0043 -0.2377
27938W        W45462   8.743   8.668  14.711  0.0070 -0.2583  0.0680
27939W        W45463  17.892  17.131   1.044 -0.0610 -0.1574 -0.3027
27940W        W45464   5.689   8.955   3.527  0.1241  0.0475 -0.0010
27941W        W45465  15.551   4.168  16.141 -0.2725 -0.1217  0.1492
27942W        W45466   9.965   9.441   4.537  0.2671  0.0622  0.1476
27943W        W45467   6.928  10.279   5.181  0.1171 -0.1462 -0.2304
27944W        W45468  10.943   4.328  14.619  0.1403  0.0529  0.2073
27945W        W45469   7.512   7.876   4.465  0.1917  0.2497 -0.1487
27946W        W45470  10.675   7.611   0.671  0.0217  0.1065 -0.1889
27947W        W45471  17.095  12.098   3.679 -0.2788 -0.3561  0.1191
27948W        W45472   6.744  14.788   0.681 -0.4482  0.0593  0.0442
27949W        W45473   8.515   0.237   1.401 -0.0492  0.0156  0.3028
27950W        W45474   7.938  14.055   1.817  0.1293 -0.2091  0.0219
27951W        W45475  11.389  10.646   4.808 -0.1912  0.0410 -0.1164
27952W        W45476  15.973   4.503  12.950 -0.1710  0.1192 -0.1727
27953W        W45477  15.058   6.925   2.116 -0.1221 -0.3254 -0.2126
27954W        W45478  15.561   5.230  12.692 -0.2117  0.1780  0.2084
27955W        W45479   6.833   6.808  14.875 -0.0242 -0.2091 -0.0749
27956W        W45480  10.298  16.322   3.823 -0.0802  0.1606 -0.1828
27957W        W45481   1.381   2.228  13.710 -0.1935 -0.0190  0.0421
27958W        W45482   3.210   2.048  12.222 -0.0276  0.2662 -0.1652
27959W        W45483  12.125  15.291  12.824 -0.1503 -0.0280 -0.0557
27960W        W45484   9.027  11.888  15.814  0.0470 -0.1449 -0.2034
27961W        W45485  13.378   6.384   4.132 -0.1532  0.0047 -0.1082
27962W        W45486  14.850   5.586  12.233  0.0856  0.3466  0.2100
27963W        W45487  12.600   1.904   1.414 -0.3059 -0.2419  0.0153
27964W        W45488  15.351  13.837   4.075 -0.3100 -0.0830  0.1327
27965W        W45489  17.962  12.325   3.835  0.0995 -0.1261 -0.2077
27966W        W45490  12.064  13.580  16.083  0.2942  0.0642  0.0829
27967W        W45491  13.703   3.773   0.043 -0.1006 -0.0739  0.0173
27968W        W45492   0.307   7.447   1.187  0.0635  0.0797  0.1850
27969W        W45493  12.119   2.236  13.097  0.3517  0.0778 -0.0167
27970W        W45494  11.776   2.412  10.622  0.2010  0.2926  0.0811
27971W        W45495  17.504   6.248  12.974  0.1697 -0.2152 -0.1336
27972W        W45496  12.263  17.521   2.310 -0.3617  0.1358 -0.2738
27973W        W45497  13.874  17.064  15.938 -0.0230 -0.0518  0.0888
27974W        W45498   9.877   4.083  14.104 -0.0254  0.0419  0.1315
27975W        W45499   9.381   4.530   3.822  0.0625  0.0325  0.0790
27976W        W45500  14.002  11.600   1.755  0.0753  0.0927  0.4273
27977W        W45501  13.718   5.879   4.776  0.3583 -0.2907 -0.0079
27978W        W45502   5.088   3.538  13.532 -0.1518  0.1406  0.0246
27979W        W45503  10.794  16.662  12.161  0.2400 -0.2233  0.1901
27980W        W45504  10.342  16.760  15.503 -0.1216  0.0889  0.1244
27981W        W45505   2.465  13.722  11.742  0.1305 -0.4218  0.1054
27982W        W45506   6.030  12.024  15.698  0.1163  0.6096  0.0054
27983W        W45507   4.584  12.373   0.556  0.3140  0.2686  0.0327
27984W        W45508  15.770  16.207  15.340 -0.2849  0.0931  0.0121
27985W        W45509   5.436   7.745   2.427  0.1450 -0.1181 -0.2303
27986W        W45510   9.929   9.796  13.885  0.0824  0.1889  0.2693
27987W        W45511   6.283   0.935  15.549  0.1406 -0.3931 -0.1229
27988W        W45512  16.056  14.281   1.533  0.2655 -0.1211 -0.0183
27989W        W45513  17.218  13.851  14.845 -0.2388 -0.0631 -0.1290
27990W        W45514  12.120  12.147   0.834  0.0253  0.1795  0.1007
27991W        W45515  11.956  16.442  13.620 -0.3220 -0.1240 -0.1453
27992W        W45516  11.793   0.929   0.485 -0.2203 -0.1396  0.1914
27993W        W45517  11.294  17.120  13.274 -0.1876  0.2459  0.0518
27994W        W45518   9.189  12.082   2.446  0.0178 -0.0528 -0.1074
27995W        W45519   1.033  12.878   0.474 -0.0776  0.1526 -0.0908
27996W        W45520  13.512  10.210   3.981 -0.1426  0.0813 -0.0839
27997W        W45521  10.981   2.295   1.253 -0.1754 -0.1216  0.2932
27998W        W45522   7.887  16.812  13.715 -0.0533 -0.4442 -0.3537
27999W        W45523   9.125  11.650   2.781  0.1375 -0.3278  0.2586
28000W        W45524  16.245  17.210  15.681  0.0629  0.2169 -0.0095
28001W        W45525  10.867   9.721   0.923  0.0487  0.1353  0.2475
28002W        W45526   6.316  12.179  16.149 -0.0210 -0.0936 -0.1698
28003W        W45527  10.012   8.562   2.418  0.0993  0.0352 -0.0576
28004W        W45528  14.422   3.507  12.350 -0.1335  0.0323 -0.0469
28005W        W45529   6.516   1.141   0.243 -0.0743  0.0964 -0.1349
28006W        W45530  10.968   0.052   4.141  0.3418 -0.1543 -0.0399
28007W        W45531   2.672  14.812   1.865 -0.1845  0.1649  0.0433
28008W        W45532   3.779   8.045  14.479  0.0573 -0.2106 -0.0107
28009W        W45533   7.248  14.170   2.624 -0.1281  0.0543  0.0934
28010W        W45534   6.911  10.046  12.955 -0.1284  0.1227 -0.1460
28011W        W45535   5.963  12.150  15.154  0.5129 -0.1724  0.1064
28012W        W45536  14.574   6.507   4.509  0.0930  0.1858 -0.0955
28013W        W45537   5.870   1.338   0.930  0.1573  0.0547 -0.0557
28014W        W45538  17.175  13.325  14.947 -0.0738  0.1692  0.3047
28015W        W45539  14.871   1.894  13.775  0.0369  0.3521 -0.1098
28016W        W45540   0.981   2.026   0.148  0.1878  0.1361  0.0020
28017W        W45541   8.260   8.383  13.537 -0.1458 -0.0145  0.0413
28018W        W45542   6.379  11.364   3.081  0.2269 -0.2533 -0.3878
28019W        W45543   2.869   8.428   1.026 -0.0067  0.3636  0.1162
28020W        W45544   5.974  11.707  14.995 -0.2259 -0.1037  0.0451
28021W        W45545  11.390  15.740  12.044 -0.0871 -0.1058  0.0986
28022W        W45546   3.119  11.031  14.921  0.3914  0.0001 -0.1222
28023W        W45547   0.589   5.655   0.337 -0.2203 -0.0643  0.0743
28024W        W45548  15.181   9.726   0.177  0.0766  0.1625  0.1715
28025W        W45549   0.486   6.464  11.452  0.3285  0.1470 -0.1299
28026W        W45550   8.938   4.398   0.945 -0.0116 -0.1964  0.0175
28027W        W45551  11.208   4.835   4.198  0.1118 -0.1487 -0.3442
28028W        W45552  15.142   8.581   3.873 -0.0333 -0.1421  0.3322
28029W        W45553  15.458   2.458  12.792  0.3381  0.1776  0.1401
28030W        W45554   0.412   4.075   0.869  0.0060  0.2442  0.1896
28031W        W45555  10.839  13.318  13.428 -0.1930  0.0585 -0.0456
28032W        W45556  14.465   6.309  13.256 -0.1495 -0.1316 -0.3136
28033W        W45557  14.995  13.356  15.895 -0.0478 -0.1033  0.4438
28034W        W45558  12.049   0.174  11.598 -0.1641 -0.1398 -0.0022
28035W        W45559   1.389  10.157  11.915  0.2211 -0.1485  0.2559
28036W        W45560   1.617   0.590   4.795 -0.2511  0.0619 -0.3384
28037W        W45561   7.364  16.048   4.291 -0.0727 -0.1263 -0.1876
28038W        W45562   0.918  15.865  14.329 -0.0259 -0.1731 -0.1415
28039W        W45563  12.353   9.376  12.804 -0.3596  0.1276 -0.0056
28040W        W45564   9.053   5.921   1.341  0.2131 -0.1684  0.0929
28041W        W45565   0.912   5.478  14.023 -0.1514 -0.0450 -0.0395
28042W        W45566   8.628  17.250   3.613 -0.0567 -0.1262 -0.0935
28043W        W45567   0.643  16.102   4.604  0.0971  0.0182 -0.1063
28044W        W45568   1.760   0.350  11.466  0.0971  0.0459 -0.0567
28045W        W45569  15.804   7.557   1.791  0.1055 -0.3395  0.2488
28046W        W45570  16.212  11.535  13.142  0.1144  0.1569  0.1230
28047W        W45571  11.123  10.557  15.485  0.0467 -0.4511  0.0114
28048W        W45572  11.529  12.888  10.399  0.2987  0.3539  0.2943
28049W        W45573   4.124  13.533  14.939 -0.3237 -0.0458  0.1771
28050W        W45574   2.962  17.319  16.042 -0.0396  0.0035 -0.0391
28051W        W45575   0.682  14.618  13.183 -0.2691 -0.1447 -0.3321
28052W        W45576   3.589   7.504  15.636  0.1061 -0.1034  0.3216
28053W        W45577   7.865   4.920  11.584 -0.1630  0.1619 -0.2760
28054W        W45578  11.486  13.082  14.988 -0.3214 -0.1680 -0.2747
28055W        W45579   1.207   8.933   4.535 -0.1717  0.0746 -0.0167
28056W        W45580  11.016   1.105  12.875 -0.2028  0.3132 -0.3089
28057W        W45581   8.722  14.538   1.863  0.0036 -0.3604  0.1134
28058W        W45582  13.438   5.176   0.884  0.0033  0.0526 -0.1259
28059W        W45583  12.168   7.350  13.558 -0.1231 -0.1717  0.0704
28060W        W45584  10.480   7.910  15.643  0.0121  0.1556 -0.1448
28061W        W45585  10.039  11.385   4.966  0.0240 -0.1304  0.1517
28062W        W45586   6.337  13.132   4.474  0.0056  0.2435 -0.0572
28063W        W45587  13.292   7.726   0.919 -0.0745  0.0684  0.0284
28064W        W45588  10.520  15.688   3.789  0.0093 -0.1998 -0.2122
28065W        W45589  15.575   9.793   3.074 -0.1838 -0.0071 -0.2214
28066W        W45590  12.794   1.599  15.192 -0.2107 -0.1143  0.0985
28067W        W45591   8.443  14.143   1.612  0.0087  0.0893 -0.0640
28068W        W45592   5.415  11.345   5.174 -0.1755  0.0567  0.1322
28069W        W45593   9.187   7.182  11.625 -0.0635  0.1495  0.1578
28070W        W45594  17.149  11.269  13.573 -0.0571  0.1656 -0.3909
28071W        W45595   9.938  15.690  15.406 -0.2054  0.2794  0.3478
28072W        W45596   9.568   7.190  13.649 -0.0912  0.1780 -0.2355
28073W        W45597  10.017   5.815  13.115 -0.1091 -0.0154 -0.0157
28074W        W45598  15.105  15.125   0.235 -0.1439 -0.3828 -0.1877
28075W        W45599  10.327  14.565   4.701  0.0732  0.0816 -0.1272
28076W        W45600  15.593  17.681  12.311 -0.0633  0.0177  0.1050
28077W        W45601   6.600   8.055  11.930 -0.1070 -0.0591 -0.3357
28078W        W45602   9.874   1.692  15.198 -0.1450  0.2357 -0.1163
28079W        W45603  13.917   4.170   0.450  0.0165  0.0892 -0.0550
28080W        W45604   2.721  15.796  15.641 -0.1681  0.1202 -0.0549
28081W        W45605   5.032  10.862   1.444  0.0668 -0.0657 -0.1431
28082W        W45606   8.192   1.687  15.422  0.0533  0.0694 -0.1204
28083W        W45607   1.353  14.097  12.800 -0.2518 -0.0975 -0.2511
28084W        W45608  17.185  11.578  13.923  0.1754  0.1048 -0.0956
28085W        W45609   7.432  11.620   1.788  0.0217 -0.0534 -0.0773
28086W        W45610  14.931   1.083  14.774  0.0367  0.1311 -0.2053
28087W        W45611  14.986   3.383  11.537  0.0114  0.0766  0.0817
28088W        W45612  17.373   7.294   5.054  0.1905  0.1395  0.1393
28089W        W45613  14.621   4.361  11.319  0.1891  0.4833 -0.0955
28090W        W45614  12.385  13.463   2.570 -0.1132  0.0373  0.1407
28091W        W45615   4.112  16.915  15.199 -0.0022  0.0349 -0.0891
28092W        W45616   4.584  15.477   4.607  0.2199 -0.0587  0.0326
28093W        W45617   1.866   6.960  10.175  0.1038 -0.1522 -0.2536
28094W        W45618  16.851   3.555  15.016 -0.1839  0.2459  0.1449
28095W        W45619  11.145  11.130  15.271 -0.1569  0.2255 -0.1427
28096W        W45620   5.139  15.975   1.214  0.1208 -0.0127  0.4313
28097W        W45621   9.798  13.486  13.713  0.1303  0.2298  0.2234
28098W        W45622  11.336   4.291   5.387 -0.1500 -0.0924  0.0348
28099W        W45623   6.865  11.636   1.360  0.0518 -0.2270  0.1399
28100W        W45624  15.499  13.343   2.966  0.1798  0.1239 -0.0941
28101W        W45625   0.795  15.452   4.055 -0.2038 -0.0952 -0.0282
28102W        W45626  17.942   0.532  13.471 -0.2647  0.0029 -0.2337
28103W        W45627   7.260   6.995   4.224  0.1035  0.2749 -0.2082
28104W        W45628  16.035   4.067   2.536 -0.2506 -0.2297 -0.0295
28105W        W45629   3.632   3.635  15.869  0.1320  0.0302 -0.0271
28106W        W45630   7.222  13.340  15.400 -0.1916  0.0554  0.4244
28107W        W45631   2.504   1.702   1.582  0.0754 -0.1337  0.2644
28108W        W45632  10.555   4.240   5.046  0.0539 -0.1034  0.0228
28109W        W45633  12.597   7.246  13.288  0.4676 -0.2405 -0.0888
28110W        W45634  17.115  10.328   4.830  0.3978  0.0436 -0.3442
28111W        W45635   4.822  12.271   1.958  0.0418 -0.1220  0.1809
28112W        W45636  12.411   8.022   0.536  0.0506  0.1594 -0.1647
28113W        W45637   8.871   8.349  11.236  0.1332 -0.3074  0.1048
28114W        W45638  17.473  16.627   4.155  0.1429  0.1978 -0.2156
28115W        W45639   0.604   4.026  13.389 -0.0673  0.2500  0.0371
28116W        W45640  17.435   9.117  13.601 -0.2340 -0.1046 -0.0239
28117W        W45641  14.017   4.730  10.456  0.0744 -0.0727  0.0056
28118W        W45642  16.820   6.555   0.996  0.0265  0.0405  0.0743
28119W        W45643  10.665   8.531  13.704  0.2099  0.1617 -0.0696
28120W        W45644   0.980   5.895   1.762  0.1473 -0.1469  0.1089
28121W        W45645   1.503  16.225   4.268 -0.1370 -0.0705  0.1410
28122W        W45646   4.927   4.483   0.266 -0.0203  0.1545 -0.1891
28123W        W45647   7.493   2.956   5.593  0.2150 -0.0191  0.2237
28124W        W45648  11.882  13.869  13.214  0.3178  0.2175 -0.3011
28125W        W45649  10.987   1.725   0.031  0.2905  0.1390 -0.1266
28126W        W45650   7.973  12.751  13.520 -0.1701  0.1464 -0.0739
28127W        W45651  11.611   0.103  15.212 -0.1847 -0.1559  0.2862
28128W        W45652   3.235   2.672   0.554  0.0567 -0.2582 -0.0562
28129W        W45653  17.855   7.862   2.749 -0.1038  0.0698 -0.0906
28130W        W45654   2.569  15.097  15.260 -0.1868  0.3135  0.2166
28131W        W45655  15.137   2.306  11.749 -0.0497 -0.1401  0.0332
28132W        W45656  14.825   3.077   0.584 -0.0233 -0.1989 -0.0057
28133W        W45657  16.075  11.330  12.439 -0.0451 -0.2568  0.2495
28134W        W45658  14.014  13.718   4.232 -0.0772  0.0359 -0.2631
28135W        W45659  13.091   4.287  13.559  0.3368  0.3245  0.1292
28136W        W45660  14.215  10.347  15.178  0.0927  0.1508 -0.2492
28137W        W45661   6.806   1.890  13.271 -0.2122  0.0750  0.0352
28138W        W45662  13.486   0.471  16.197  0.0864 -0.0216  0.2771
28139W        W45663  16.137   9.974   1.571  0.1932 -0.1135  0.3099
28140W        W45664   0.900   7.769   5.175  0.2680  0.1644 -0.2360
28141W        W45665  17.039   3.521   2.320 -0.2298 -0.0184  0.2429
28142W        W45666   6.644   9.766   4.486 -0.0697  0.1668  0.1094
28143W        W45667  17.791   5.211   0.567  0.2057  0.1721  0.2435
28144W        W45668   7.671  17.276   0.664  0.1085 -0.2570 -0.0618
28145W        W45669   1.951  12.842   3.524 -0.0817  0.0275 -0.1996
28146W        W45670  14.593  11.419  11.784 -0.0277 -0.1387 -0.0879
28147W        W45671  15.329   4.763   3.113  0.1339 -0.0304  0.1106
28148W        W45672  15.996  17.031   0.354 -0.1859 -0.1095  0.0443
28149W        W45673   4.274   4.613  16.046 -0.4248  0.0403 -0.0846
28150W        W45674  16.276  16.951   4.625 -0.3000  0.1355  0.0866
28151W        W45675   4.377  12.342  12.203  0.0953 -0.1099 -0.1729
28152W        W45676   0.353   0.596   2.804  0.0236  0.0653  0.0187
28153W        W45677  16.334   7.350  14.206  0.2968  0.1926  0.0013
28154W        W45678   0.281   3.968   3.217 -0.0093  0.1137 -0.0095
28155W        W45679   9.026  10.985  16.147  0.2915 -0.2648 -0.2302
28156W        W45680   0.918  13.172   3.158  0.1120 -0.3435  0.1245
28157W        W45681   7.187  12.723  15.191 -0.0347 -0.1632 -0.0516
28158W        W45682   8.287   0.838  14.254  0.0519  0.1011  0.0284
28159W        W45683  16.131   9.532   5.326 -0.0491 -0.0278  0.0317
28160W        W45684   4.569   0.562  14.055 -0.3233 -0.1239  0.1405
28161W        W45685   5.229   6.989  11.863  0.1402  0.0369  0.1440
28162W        W45686   5.805   1.098  12.047 -0.2676 -0.0561 -0.0607
28163W        W45687   6.355   9.564   1.539  0.0238 -0.3363 -0.3281
28164W        W45688   1.298  14.703   4.609 -0.1921 -0.1930 -0.0047
28165W        W45689   4.357  14.710   0.431  0.2753  0.2672  0.1079
28166W        W45690   5.449  10.558  13.023  0.0273  0.0313 -0.0494
28167W        W45691   5.300  10.419   4.543  0.0881  0.3302  0.0033
28168W        W45692   4.922   6.563   0.844  0.0008  0.0917  0.2294
28169W        W45693  16.711  17.841  16.229 -0.0400  0.2684 -0.4229
28170W        W45694  14.052   9.267  14.924 -0.2053  0.0282 -0.1467
28171W        W45695   3.542   8.788   5.412  0.1571  0.0490  0.3071
28172W        W45696   0.482  10.352   2.019  0.1058 -0.0047  0.0447
28173W        W45697   1.252  15.707   5.252  0.2977 -0.3468 -0.1585
28174W        W45698   8.568  10.136  14.264 -0.0399  0.3483 -0.1377
28175W        W45699  15.474  13.836   3.109 -0.0946  0.4436 -0.0110
28176W        W45700  11.613   7.935   5.193 -0.1712 -0.2324 -0.2991
28177W        W45701  17.283   9.930  10.961 -0.0205  0.0588  0.1448
28178W        W45702  16.028   2.063  16.136  0.1689 -0.1282 -0.0552
28179W        W45703  14.920  14.634  12.676 -0.1414  0.0046 -0.1823
28180W        W45704  10.167   7.858   0.766  0.2778  0.0253 -0.0785
28181W        W45705  11.994  17.932  13.409 -0.3615  0.2775 -0.3132
28182W        W45706   0.002   5.519  12.183  0.2759 -0.0302 -0.3058
28183W        W45707   6.405  10.383   5.153 -0.0088 -0.0178 -0.0270
28184W        W45708  16.771   3.796   1.353 -0.0236 -0.1860  0.4234
28185W        W45709  10.130  17.668   3.129 -0.1252 -0.0122 -0.0000
28186W        W45710   9.511   0.615   3.278 -0.0510  0.1629 -0.1147
28187W        W45711   1.161   7.281  15.483 -0.0082  0.0786  0.1056
28188W        W45712  17.121   1.302   3.275 -0.1419 -0.0364 -0.2353
28189W        W45713   1.965   1.393  13.098 -0.1599 -0.0811 -0.0085
28190W        W45714  16.059   0.019   2.260 -0.0680  0.1118  0.0114
28191W        W45715   0.151   1.585  12.305 -0.1496  0.2690 -0.0622
28192W        W45716   2.528  17.637   2.228  0.0093 -0.2461  0.1481
28193W        W45717   2.016   7.057   1.539 -0.2750  0.2274 -0.0016
28194W        W45718   2.577  13.154   1.650 -0.0498 -0.0340 -0.0659
28195W        W45719   4.576   5.020  11.569  0.0048  0.1886 -0.2802
28196W        W45720  16.337   7.132  15.581  0.0601 -0.1012 -0.1790
28197W        W45721  15.921  17.715   1.878 -0.3816 -0.1598  0.1726
28198W        W45722  12.947   6.359  11.241 -0.1529 -0.1419 -0.1560
28199W        W45723  12.103   5.481  13.313  0.1105  0.1313  0.2099
28200W        W45724   2.287   2.366  13.267 -0.1324 -0.1133  0.1349
28201W        W45725  11.386  14.128   0.130 -0.0988  0.0511  0.2823
28202W        W45726  17.098  12.899  14.409  0.1532 -0.0669 -0.1609
28203W        W45727   8.792   4.929  14.709  0.1829  0.1983  0.0300
28204W        W45728   9.596  14.014   5.030 -0.1809 -0.3532  0.0724
28205W        W45729   8.678   1.685   3.864  0.0649 -0.1178 -0.0769
28206W        W45730  11.088  10.897   1.590  0.1585  0.0171  0.0145
28207W        W45731  11.254  12.207   2.350  0.2095 -0.1014 -0.0728
28208W        W45732  17.576  16.662   1.055 -0.0313 -0.3814  0.0083
28209W        W45733   8.746   3.853   0.773 -0.2054  0.1125  0.1321
28210W        W45734  11.357   7.049   4.544  0.0119  0.0820  0.3536
28211W        W45735   5.272   6.396   0.523  0.0586 -0.1196 -0.1387
28212W        W45736  14.012   3.708   1.826 -0.1542 -0.3789 -0.3869
28213W        W45737   6.415   4.542   0.337 -0.0596  0.0530 -0.0428
28214W        W45738  13.602   5.112   4.053 -0.0342  0.1330  0.0508
28215W        W45739  13.309  14.730  13.689 -0.2525 -0.0054  0.0226
28216W        W45740   1.731   9.001  15.613 -0.0531 -0.0130 -0.0124
28217W        W45741  14.750   7.071   3.005 -0.0925  0.1194 -0.1478
28218W        W45742  14.754   8.485   2.674  0.0079 -0.0053 -0.0764
28219W        W45743   3.299  14.836   2.471  0.1591  0.4102  0.3241
28220W        W45744  10.778  15.796   2.856  0.0226  0.0924 -0.3154
28221W        W45745  14.921   1.441   0.523  0.3435 -0.0462 -0.2293
28222W        W45746   9.649   6.317   2.632  0.1065 -0.3328 -0.1262
28223W        W45747  12.531  15.021   3.746  0.1110  0.0190  0.0017
28224W        W45748  12.443   4.753  14.156 -0.2705 -0.0737  0.2119
28225W        W45749   7.517   6.766  12.457  0.1461  0.1053 -0.0354
28226W        W45750   5.474   3.742   5.070  0.1211  0.3314 -0.3487
28227W        W45751   7.198   5.508  11.235  0.0507 -0.0300  0.1666
28228W        W45752   4.050   7.451   5.063 -0.1348  0.0955  0.1654
28229W        W45753  14.375   8.359  12.445 -0.1899  0.0916  0.1838
28230W        W45754   4.323   6.288   4.348  0.0759 -0.0475  0.0613
28231W        W45755   4.814   6.184   3.982  0.1601  0.0439 -0.0487
28232W        W45756  14.443   3.105   4.252 -0.2657  0.1866  0.1718
28233W        W45757   9.648   6.535   1.527 -0.1125  0.1759  0.0474
28234W        W45758   9.023   1.457  12.255 -0.0584  0.1213 -0.0937
28235W        W45759  11.767   0.680  12.423 -0.0265 -0.0733  0.0135
28236W        W45760   7.707   5.032   3.493 -0.0924 -0.0155 -0.2234
28237W        W45761   8.792   7.601   0.682  0.1272 -0.0105  0.3267
28238W        W45762   1.938   9.511   4.140  0.1779 -0.2413 -0.4537
28239W        W45763   5.389   7.051  15.656 -0.0922  0.0819 -0.1886
28240W        W45764   1.414   3.324   2.275  0.0982 -0.1613  0.1058
28241W        W45765   5.020   0.667  12.375  0.0186  0.1254 -0.0036
28242W        W45766  11.287   8.514  14.654 -0.0572  0.1653 -0.2537
28243W        W45767  11.460   8.531   2.241 -0.0433 -0.1580 -0.1626
28244W        W45768   0.246   2.861  11.670  0.1590 -0.0274  0.3006
28245W        W45769  13.289   7.881   1.786 -0.1520 -0.1461  0.0854
28246W        W45770   0.923   7.093   4.542 -0.3266  0.1657  0.0345
28247W        W45771   4.544  16.608   4.826  0.2271  0.0463  0.0599
28248W        W45772   6.532   0.182   3.830  0.1249  0.1827 -0.0840
28249W        W45773   7.285   3.621  13.577  0.0866  0.0314 -0.1734
28250W        W45774   0.287   2.788   0.128 -0.2329 -0.0580  0.1423
28251W        W45775   8.714  14.926  11.785  0.1076 -0.2502  0.2902
28252W        W45776  14.792  15.111  16.066  0.2096  0.0525 -0.0287
28253W        W45777  10.554   5.892  14.423  0.0718 -0.1363 -0.1675
28254W        W45778  15.550  10.539  15.442  0.2049 -0.2084  0.1864
28255W        W45779  12.291   5.591  11.607 -0.0720  0.2280 -0.1137
28256W        W45780   0.888  14.658  11.763  0.1957 -0.2960 -0.2299
28257W        W45781  16.653   3.022  12.979 -0.1486  0.3323  0.1691
28258W        W45782  11.011   3.268   5.014 -0.1682  0.1050  0.1317
28259W        W45783   0.215  15.554  13.589  0.0272  0.4189  0.2421
28260W        W45784   0.790  13.109  14.661  0.1628 -0.4866 -0.0825
28261W        W45785  17.817   6.204  15.294 -0.0811 -0.0096  0.0374
28262W        W45786   4.710   4.283  12.676  0.1404 -0.0483 -0.1281
28263W        W45787   0.661  12.896  15.073  0.0630  0.4193  0.0053
28264W        W45788   4.675   2.600  10.878  0.0563 -0.2635  0.0363
28265W        W45789  15.406  12.139   2.674 -0.0122  0.0750 -0.0338
28266W        W45790   0.150   3.928  13.210 -0.0831  0.0917  0.4152
28267W        W45791   0.489  10.769  10.996 -0.1544 -0.3197  0.1119
28268W        W45792  14.799  10.905   2.629 -0.0780 -0.0047 -0.2552
28269W        W45793   3.363  10.367  12.455  0.2371 -0.1224 -0.2609
28270W        W45794   5.601   4.213   1.594 -0.1331  0.0401 -0.5614
28271W        W45795   7.009   6.596   1.110 -0.1870 -0.3817 -0.0041
28272W        W45796  10.257  16.232   5.183 -0.1893 -0.0242  0.0266
28273W        W45797   5.706  10.911   3.466  0.0581 -0.0569 -0.0467
28274W        W45798   7.543  16.751  15.537  0.3091 -0.4373 -0.0268
28275W        W45799   7.093   0.720  11.828  0.0572  0.1040  0.0455
28276W        W45800  17.882  11.793   4.834  0.1138 -0.3485 -0.0538
28277W        W45801  10.711   7.762   4.030 -0.1241  0.1606  0.0455
28278W        W45802  10.252   8.183   1.178  0.0836 -0.2013 -0.2243
28279W        W45803   9.831   1.473   0.506 -0.0015  0.1913  0.2011
28280W        W45804  16.846  14.180  13.304  0.0602  0.0260  0.2255
28281W        W45805   2.603  16.347   1.069  0.0878 -0.2839  0.0402
28282W        W45806  16.679  10.687   0.661  0.0605 -0.2357  0.0945
28283W        W45807   4.253   7.420  11.186 -0.1139 -0.2556  0.1135
28284W        W45808  15.352   5.790  12.466  0.0160  0.1480 -0.1524
28285W        W45809   9.301  10.174  15.576 -0.1478 -0.2136  0.2470
28286W        W45810  10.348   1.000  10.682  0.3255  0.2537 -0.0092
28287W        W45811   5.677   2.261  14.380 -0.0269  0.0176  0.1784
28288W        W45812  10.503  15.715  16.237  0.0187 -0.1390  0.1064
28289W        W45813   2.311   1.209   5.585  0.1269  0.6448 -0.2038
28290W        W45814   6.458   4.805  12.252 -0.0967  0.2036 -0.1598
28291W        W45815   4.782  15.694   5.456  0.1906  0.2380  0.0293
28292W        W45816   8.861  15.740  15.339 -0.1462 -0.2571 -0.1910
28293W        W45817   2.071  17.832  13.081  0.1257  0.2308  0.2169
28294W        W45818   2.197  12.806   2.612 -0.1228 -0.0903  0.3599
28295W        W45819   3.757  10.258   3.999  0.1748  0.0835 -0.0062
28296W        W45820   5.283   1.972   0.396  0.1631  0.2912  0.1313
28297W        W45821   8.247   9.721   1.072 -0.0159  0.2316  0.2137
28298W        W45822   3.614   9.049   4.822 -0.1494  0.1020 -0.1619
28299W        W45823  15.718   8.130   0.707  0.1982  0.2355  0.0569
28300W        W45824   8.589   2.516   1.137 -0.0305  0.0345  0.1909
28301W        W45825   0.471   1.836   2.774  0.1837 -0.0313 -0.1419
28302W        W45826   4.138   4.941   0.141  0.1678  0.2159 -0.1997
28303W        W45827   2.060  13.877  14.694 -0.4911  0.1603 -0.0290
28304W        W45828   3.827  17.061  16.244 -0.0835  0.0354  0.1420
28305W        W45829   3.901   5.144  14.903 -0.0026 -0.3014 -0.1042
28306W        W45830  15.620  17.510  11.427 -0.1759  0.4386  0.2115
28307W        W45831   0.856   8.065  14.702  0.2316 -0.2035  0.0388
28308W        W45832  16.225   3.623   3.173  0.4700  0.0466  0.0201
28309W        W45833  14.043  11.889  14.456 -0.0772  0.1681 -0.1243
28310W        W45834   5.455  14.255  12.867 -0.0462 -0.0033  0.0073
28311W        W45835   7.417  16.726  14.666 -0.1629  0.3090  0.2793
28312W        W45836   7.620   9.939  15.448  0.2662 -0.1272  0.0091
28313W        W45837  12.211  11.970   4.332  0.0803  0.2114  0.1010
28314W        W45838  16.510  16.303   3.293 -0.2828  0.0838 -0.0241
28315W        W45839  14.520   0.347   1.376 -0.0249 -0.1404  0.0410
28316W        W45840  17.425  14.585   3.373  0.0917 -0.0048  0.1296
28317W        W45841   8.691   8.474   1.050 -0.1041  0.0347 -0.2036
28318W        W45842   0.683  17.627  13.976 -0.1167 -0.0492  0.1062
28319W        W45843   3.197  17.509   3.144 -0.0996  0.1973  0.0088
28320W        W45844   6.368   9.232   2.753  0.1375  0.1637 -0.1562
28321W        W45845  16.839   0.694  11.409 -0.0042 -0.0608  0.0101
28322W        W45846   2.233   6.322  16.229  0.4779 -0.0121 -0.2534
28323W        W45847   4.737  10.409  12.452 -0.0357 -0.0300  0.3304
28324W        W45848   8.682  15.828   5.454 -0.0663 -0.0528  0.0247
28325W        W45849  11.015   2.690   2.183  0.1159  0.0991  0.0661
28326W        W45850  16.613  14.815  12.165  0.1357 -0.1625  0.1829
28327W        W45851   9.215  13.695  14.512  0.0910 -0.3345  0.0083
28328W        W45852  14.155   2.130   1.744  0.0162  0.1422  0.4105
28329W        W45853   2.113  17.233  14.017  0.0892  0.2557 -0.2137
28330W        W45854   4.455   7.311   4.203 -0.2230 -0.1774 -0.0648
28331W        W45855   6.484   0.679   0.616 -0.0456  0.3439  0.0126
28332W        W45856  10.592   0.959  16.075  0.3201 -0.0480  0.3544
28333W        W45857   6.263  16.263  15.244  0.0217  0.2275  0.0237
28334W        W45858   7.369  17.433  11.635 -0.1809 -0.0004 -0.5155
28335W        W45859   8.382  15.592  16.069  0.1606 -0.0711  0.0470
28336W        W45860   7.444   8.274   2.905  0.2198  0.1831  0.1239
28337W        W45861   6.330   8.756  12.665  0.3717 -0.0002  0.0854
28338W        W45862   7.859   5.738  14.967  0.1302 -0.2288  0.0799
28339W        W45863   4.750   7.132  15.794 -0.2430  0.1909  0.1761
28340W        W45864   5.941   5.860  10.808  0.2789  0.1203 -0.1707
28341W        W45865   1.374  17.517  11.268 -0.0411  0.1347 -0.2885
28342W        W45866   1.702   1.222  14.700  0.0341  0.1863 -0.2723
28343W        W45867   3.872  10.614   2.746 -0.2808 -0.0009 -0.0806
28344W        W45868   0.849  17.266   2.713  0.1085  0.1474 -0.3403
28345W        W45869  13.489   6.303   1.910  0.1725 -0.3164  0.1979
28346W        W45870  17.329  10.600  16.171 -0.1590  0.3269 -0.1191
28347W        W45871   5.640   6.073   2.561 -0.2400 -0.1081 -0.0958
28348W        W45872   4.433  14.780  12.667 -0.0396  0.0916  0.1592
28349W        W45873   5.878  12.416   5.947  0.2190 -0.1355  0.0979
28350W        W45874   7.801   8.789   4.148  0.0544  0.1903  0.0723
28351W        W45875  13.178  11.809  15.033  0.1602  0.4492 -0.0413
28352W        W45876   1.355  14.731   2.776 -0.2691  0.3648  0.0583
28353W        W45877  17.528  14.783   3.820 -0.0809 -0.0066  0.1976
28354W        W45878  14.457   3.700   4.762 -0.4106  0.0677  0.1389
28355W        W45879   5.004   9.164   3.302 -0.0782  0.0473  0.1079
28356W        W45880  10.436   7.570   1.679 -0.5549  0.2301  0.1183
28357W        W45881   7.893   7.958  14.173 -0.0137  0.0634  0.1578
28358W        W45882   3.894  12.287  16.121 -0.0311  0.0020 -0.0632
28359W        W45883   8.573   0.338   2.212 -0.2560  0.2497  0.0359
28360W        W45884   6.942   0.405  11.471  0.0560 -0.1284 -0.3455
28361W        W45885  10.651   4.788   1.793  0.0900  0.0819 -0.0495
28362W        W45886   7.026   3.289  14.963  0.0147  0.0499 -0.1281
28363W        W45887   8.025  17.097   3.394  0.1484 -0.2762 -0.3373
28364W        W45888   1.411  12.852   2.037 -0.0765 -0.1066  0.1826
28365W        W45889  12.753   9.050  15.457  0.0359 -0.1795  0.1176
28366W        W45890   7.022   3.147  11.428  0.0449 -0.3254  0.1836
28367W        W45891   0.001   3.039   1.293  0.0841  0.1330 -0.1420
28368W        W45892   4.186  12.321   5.181 -0.0294  0.1596  0.1949
28369W        W45893  17.143   2.040  13.872 -0.2308 -0.2479 -0.0097
28370W        W45894   2.265   9.090  15.802  0.0802 -0.1374  0.3800
28371W        W45895   0.177   3.169  15.159  0.3802  0.1426 -0.0341
28372W        W45896  16.030  11.769   4.997 -0.0752  0.2274 -0.2050
28373W        W45897   5.920   3.588   5.408 -0.0163  0.0991 -0.0818
28374W        W45898  16.870  16.971   0.276 -0.3748 -0.4592 -0.0461
28375W        W45899  11.474  17.343   2.061  0.1330  0.0855 -0.0002
28376W        W45900  13.010   9.534  14.732 -0.0577  0.1345 -0.1864
28377W        W45901  11.203   9.084   1.404  0.1919  0.1729 -0.2367
28378W        W45902   7.319  13.411   0.808  0.1181 -0.0799 -0.2175
28379W        W45903   3.418   0.647   6.316 -0.0679  0.0720  0.0759
28380W        W45904   2.444  11.047   5.562  0.0466  0.2951  0.1655
28381W        W45905   8.084  13.286   1.229  0.1066  0.1211 -0.0263
28382W        W45906  12.969  15.045  15.185  0.0617 -0.0667 -0.0593
28383W        W45907   6.155  12.733   0.976  0.0735  0.0234 -0.0678
28384W        W45908   2.387  14.905  13.231  0.1841 -0.0286 -0.0042
28385W        W45909   8.094  15.524  10.454  0.0228  0.0008 -0.0296
28386W        W45910  14.596  15.933  12.311  0.2408  0.0268 -0.0741
28387W        W45911   9.673   4.811   4.848  0.0613 -0.3198  0.1706
28388W        W45912  15.292   6.126  14.546 -0.2527 -0.1336 -0.0503
28389W        W45913  14.077  16.083   4.207 -0.0729  0.1299  0.1159
28390W        W45914   8.944   3.545  12.439  0.3773 -0.0045 -0.0731
28391W        W45915   4.297  14.767   1.629 -0.1612 -0.1091  0.1247
28392W        W45916   2.882   6.406  12.936  0.1781 -0.1214 -0.2815
28393W        W45917   8.211  16.653  12.464 -0.2209  0.0617  0.2802
28394W        W45918  14.526   5.474  12.991  0.3471  0.0440  0.1228
28395W        W45919  16.720  15.312   3.790  0.1294 -0.0238 -0.1128
28396W        W45920  12.144  15.019   1.181 -0.3027  0.1942 -0.3057
28397W        W45921  16.282  15.090   4.699 -0.2654 -0.1278  0.0783
28398W        W45922  13.156   1.648  15.587  0.1431  0.3757 -0.0994
28399W        W45923   7.802   0.288  12.214  0.0828 -0.3275 -0.0812
28400W        W45924   3.943  12.664  12.045 -0.2544  0.0575 -0.0204
28401W        W45925  17.225   0.418   3.453 -0.0069 -0.0676  0.1151
28402W        W45926   4.318   8.817   3.368 -0.0093 -0.2054  0.1553
28403W        W45927   9.846  13.917   0.254 -0.2734  0.0400 -0.0887
28404W        W45928  17.201  10.204   5.367  0.1543  0.0195  0.0017
28405W        W45929  16.597  15.446  15.729  0.0260  0.0553 -0.1229
28406W        W45930  15.786   4.883   2.434  0.0688 -0.1465 -0.1111
28407W        W45931   6.282  16.938   4.488  0.0473  0.2788  0.0344
28408W        W45932  17.902  11.437   3.996  0.0683  0.1651  0.1654
28409W        W45933   8.818   9.658   2.844  0.1026 -0.0916  0.1712
28410W        W45934   5.057  11.956   2.765 -0.2833 -0.0345 -0.2178
28411W        W45935  14.068   3.611   0.406  0.1059  0.0453  0.2005
28412W        W45936  13.178   8.425   1.428 -0.1109  0.1760  0.0061
28413W        W45937  11.784  13.125   1.253 -0.1440 -0.2761 -0.0962
28414W        W45938  15.215  17.799   4.410 -0.0300 -0.1457  0.2518
28415W        W45939   1.682  15.219  12.156  0.1426  0.2174  0.0532
28416W        W45940   2.133  12.772   3.081  0.1662  0.0927 -0.1938
28417W        W45941   5.064   6.868   2.581  0.0372 -0.1153 -0.0248
28418W        W45942   3.609  12.052   0.297 -0.3411  0.2577  0.2308
28419W        W45943   2.365   0.031   1.289  0.0200  0.1330  0.0114
28420W        W45944   4.569  11.108  15.893 -0.1071  0.0525 -0.2455
28421W        W45945   1.638   8.918   1.534 -0.1263 -0.2551  0.2237
28422W        W45946   1.480   8.727   3.156 -0.2326  0.0231 -0.1455
28423W        W45947  17.718   6.332   2.979 -0.4070  0.4435  0.1208
28424W        W45948   9.554   8.334   0.079 -0.1226  0.2995 -0.2277
28425W        W45949   8.213  14.816  14.103 -0.0118 -0.4721 -0.0579
28426W        W45950   8.085  12.249   4.694 -0.0196  0.1809  0.0236
28427W        W45951   3.572  11.826   1.031  0.0004 -0.0064  0.0753
28428W        W45952   7.879  11.670  16.258 -0.0188  0.0939 -0.1981
28429W        W45953  16.446  10.393   0.331  0.1901 -0.0468  0.0550
28430W        W45954  12.693   6.953  16.048 -0.1508 -0.0378  0.0025
28431W        W45955  11.942   6.637  11.689  0.0972 -0.1928  0.1203
28432W        W45956  10.081  15.974   0.046  0.0641 -0.3090  0.0080
28433W        W45957  14.616  10.161  14.177  0.0442  0.1573  0.0133
28434W        W45958  14.933  16.376   0.716  0.0224 -0.0548  0.1357
28435W        W45959  12.285  10.498   3.317 -0.0741 -0.1125  0.0468
28436W        W45960  12.014  17.262   1.352  0.1143 -0.0371  0.4602
28437W        W45961   3.867  16.558  10.514  0.0968 -0.2014  0.1949
28438W        W45962   5.763   1.154   5.873 -0.1424 -0.0022  0.0602
28439W        W45963   0.393   6.251   2.358  0.3430  0.0976 -0.0222
28440W        W45964   2.327   4.888  15.643  0.0702 -0.1413 -0.0843
28441W        W45965  16.915   2.688   2.459 -0.0347 -0.0407 -0.2314
28442W        W45966   0.260   3.355   0.218 -0.0698  0.1513 -0.0011
28443W        W45967  10.562   6.417  14.504 -0.0829  0.0314  0.0796
28444W        W45968   0.917  12.825   1.486 -0.1688 -0.1155 -0.4804
28445W        W45969   3.232  12.581   4.828 -0.1012 -0.0572 -0.3799
28446W        W45970   2.691  11.386  14.972 -0.0082 -0.0555  0.1937
28447W        W45971   9.991  14.992  15.865 -0.2113 -0.1049  0.1125
28448W        W45972   8.741  16.242  15.083 -0.0276  0.0905 -0.0039
28449W        W45973   4.712   7.057   1.840  0.0472 -0.0650 -0.2949
28450W        W45974   0.328   4.283   2.417  0.0108  0.0718  0.0070
28451W        W45975  12.973  17.204   1.744  0.0306 -0.0492 -0.0641
28452W        W45976   7.913  12.589  12.299 -0.0805  0.0580  0.0846
28453W        W45977   6.297  14.190  15.173  0.0884  0.1749  0.0676
28454W        W45978   8.904   5.808  14.054 -0.0179  0.1895 -0.1267
28455W        W45979  16.733   8.687  16.074 -0.0153  0.0071  0.0100
28456W        W45980   6.938   1.707   1.453  0.0610 -0.0737  0.0424
28457W        W45981  11.751  14.769   1.097  0.2321 -0.1050 -0.0017
28458W        W45982   5.027  14.541  12.443  0.1864 -0.0403 -0.0666
28459W        W45983  13.764   1.098   3.292  0.0463 -0.0823  0.1507
28460W        W45984  11.211   0.180  16.060 -0.5105 -0.3240 -0.1265
28461W        W45985   1.358   0.955  13.214 -0.0103  0.0162 -0.1770
28462W        W45986   7.479  15.589  11.128 -0.0918 -0.3774 -0.2241
28463W        W45987  13.715   2.960   1.359  0.1003 -0.3073 -0.3593
28464W        W45988  16.428  11.710   0.972  0.1615  0.0350  0.0152
28465W        W45989   7.371   4.245   5.230  0.0025  0.0617 -0.0635
28466W        W45990   6.899  12.992   2.517 -0.2028  0.0190  0.2425
28467W        W45991   2.442   3.718  12.775 -0.1547 -0.0107  0.1173
28468W        W45992  13.756   3.365   5.432  0.4134 -0.0892 -0.1956
28469W        W45993  14.948   0.193   0.055  0.2200 -0.0911  0.1876
28470W        W45994   7.447  13.589  13.836 -0.1294 -0.1670  0.1659
28471W        W45995   2.612   1.185   3.395 -0.1302 -0.0529  0.0239
28472W        W45996  15.318   6.020   1.630 -0.0120  0.0270 -0.1366
28473W        W45997  11.458  11.331   3.327 -0.0273 -0.0314  0.1417
28474W        W45998  15.732  13.521   3.441 -0.0335  0.0092 -0.1706
28475W        W45999  15.175   9.820  12.450  0.0990 -0.0054 -0.1681
28476W        W46000  16.722   4.263   3.887 -0.3679  0.2428  0.1716
28477W        W46001  14.012  13.074  11.979 -0.2424  0.0483  0.1432
28478W        W46002   0.697  12.103   4.796 -0.1681 -0.5934 -0.1203
28479W        W46003   6.502   3.263  14.988  0.0767  0.2192  0.0805
28480W        W46004  15.152  14.142   4.503 -0.2375 -0.1906  0.2436
28481W        W46005   0.343  16.737  11.543 -0.0415 -0.1064 -0.0930
28482W        W46006  13.096   2.151  14.636  0.0524 -0.0091 -0.0007
28483W        W46007   9.526   1.324   2.871 -0.3201 -0.2914  0.2389
28484W        W46008  15.555  10.120  13.350 -0.0202 -0.1552 -0.0068
28485W        W46009  14.769   3.299   2.505 -0.1112 -0.0168 -0.1238
28486W        W46010   4.622  13.264  12.217  0.0733  0.0350 -0.0546
28487W        W46011  17.612   5.759  15.282  0.2587  0.1049  0.4359
28488W        W46012   0.998  15.179   1.587  0.0066  0.1857 -0.1803
28489W        W46013   2.647   8.586   0.426  0.0556 -0.1142  0.2165
28490W        W46014   2.730  15.343   2.874  0.2251 -0.2111  0.1663
28491W        W46015   0.580  10.156   0.824  0.0256 -0.1461  0.2601
28492W        W46016   2.130  12.080   4.067 -0.0510 -0.0483  0.0822
28493W        W46017   3.042   7.179  15.008  0.2726  0.3225 -0.2479
28494W        W46018   6.041   8.467   5.975  0.2003  0.1073  0.1339
28495W        W46019  17.393   0.595  14.953 -0.0357 -0.0551 -0.0617
28496W        W46020  16.447  12.438  13.306  0.4118  0.1835  0.1127
28497W        W46021  13.716   9.590   2.179  0.0473  0.1210  0.2353
28498W        W46022   9.950   9.118   5.832 -0.1347 -0.1692  0.0116
28499W        W46023   9.225  13.535  11.994 -0.1389  0.2324  0.3164
28500W        W46024  12.467  17.449  12.792 -0.0260  0.0764 -0.0146
28501W        W46025  12.882   3.446  13.818  0.0562 -0.2042  0.1452
28502W        W46026   9.283  15.471   0.443  0.0112 -0.2634  0.0018
28503W        W46027  14.938   6.982  10.105  0.1000 -0.0672  0.0449
28504W        W46028  17.832  15.777   1.351  0.2280 -0.0124  0.1153
28505W        W46029  17.260   5.097  15.449  0.0128  0.0273 -0.3727
28506W        W46030  14.884  10.006  13.779  0.3999  0.0959  0.0911
28507W        W46031  13.428  17.922  13.831 -0.0126 -0.0110 -0.3567
28508W        W46032   5.818  11.071  11.540  0.0005  0.1314 -0.2862
28509W        W46033  12.654   8.087  13.866 -0.0819  0.0879  0.1761
28510W        W46034   0.010   1.280  13.987  0.3889 -0.2351  0.2879
28511W        W46035  13.204  11.029   2.954  0.2308  0.1105 -0.0480
28512W        W46036  13.541   9.521  14.990  0.0749  0.1197 -0.1514
28513W        W46037   1.707   6.278  14.613  0.0034 -0.1180 -0.0863
28514W        W46038   9.103   9.431  16.097 -0.0876  0.0530 -0.1530
28515W        W46039   1.498   5.723   5.398 -0.0182  0.1610  0.1709
28516W        W46040   6.084  14.055   0.917  0.0213 -0.4682 -0.1245
28517W        W46041   9.291  17.303  12.097  0.2054 -0.3228  0.3319
28518W        W46042   9.846   4.818  11.048  0.0595 -0.1820 -0.1352
28519W        W46043   5.191   7.817  12.771 -0.1508 -0.1304 -0.1436
28520W        W46044   3.862   3.648   3.829  0.0795 -0.2230 -0.0869
28521W        W46045   2.192   7.917  11.835 -0.2509  0.3189  0.0630
28522W        W46046   0.946   0.537   1.221 -0.2761 -0.1529 -0.1642
28523W        W46047   5.553  15.844  10.825 -0.1111  0.3330 -0.0331
28524W        W46048   4.229  14.633  11.644  0.0189  0.1312  0.1776
28525W        W46049  10.438  13.607   3.821  0.2760 -0.0403 -0.1866
28526W        W46050   8.117   1.580   4.352 -0.0729 -0.0814  0.1705
28527W        W46051  11.978  13.230   1.670  0.0691  0.0214 -0.0017
28528W        W46052   4.644   4.471  10.431  0.0268  0.5402  0.2615
28529W        W46053   7.462  13.246   3.539  0.1920  0.0227  0.0062
28530W        W46054  12.295  17.704   1.438 -0.0207 -0.0609  0.0622
28531W        W46055   4.458   3.793   6.334 -0.1432 -0.0747 -0.0140
28532W        W46056  15.843   3.337   3.031 -0.3833  0.0551 -0.0818
28533W        W46057  10.713  14.830   2.330  0.2815 -0.0993 -0.1813
28534W        W46058   7.549   7.104  10.854 -0.1757 -0.2550 -0.0751
28535W        W46059   1.407   9.011  16.055 -0.1610  0.0862  0.3008
28536W        W46060   8.120  10.952   5.370  0.1223  0.1929 -0.3300
28537W        W46061   9.620   5.221   0.940 -0.0560 -0.1442  0.1156
28538W        W46062  12.958   5.228  15.691  0.4332 -0.1802 -0.0502
28539W        W46063  11.883   4.281  14.606  0.1284  0.0276  0.1990
28540W        W46064  11.356  15.732   4.508 -0.0061 -0.1967  0.1152
28541W        W46065  15.064   3.255  14.254 -0.2679 -0.0386 -0.1270
28542W        W46066   6.984   7.956   0.329  0.0499 -0.0369  0.0845
28543W        W46067   9.600  10.169  12.104 -0.3299  0.0735  0.0118
28544W        W46068  15.757   1.281  12.224 -0.1103  0.0287  0.3229
28545W        W46069  12.622  17.002   4.328  0.1307 -0.1050 -0.2176
28546W        W46070   7.554   6.153  10.710  0.5987  0.2355 -0.1523
28547W        W46071   5.212   9.820  11.886 -0.0069  0.1668 -0.3719
28548W        W46072  12.515   7.143   2.456  0.2911 -0.0071 -0.1669
28549W        W46073   9.665   4.627  13.002  0.2460 -0.0769 -0.0582
28550W        W46074  15.920  11.674   2.289  0.5679 -0.1614  0.2218
28551W        W46075  10.859  16.214   3.686 -0.2480 -0.1019  0.1361
28552W        W46076  15.225  12.483   0.823 -0.1412 -0.1473 -0.0601
28553W        W46077  12.075  12.506   4.143 -0.0249 -0.2647 -0.1318
28554W        W46078   0.963  14.898   4.233  0.0062  0.1808  0.3565
28555W        W46079   5.513   2.363   5.309 -0.1805 -0.0335 -0.2508
28556W        W46080  16.752   4.799   3.583  0.0702  0.0408 -0.0577
28557W        W46081  11.759  15.680   0.639  0.1216 -0.2479 -0.1009
28558W        W46082   1.950  10.399  16.180  0.2836  0.1751 -0.3930
28559W        W46083   6.449  13.092   2.253  0.2603  0.2643 -0.2279
28560W        W46084   2.765  12.858  12.893 -0.0947 -0.0630 -0.1618
28561W        W46085   4.216  13.453   5.942  0.1178  0.3103  0.1318
28562W        W46086  16.871   2.100   4.824 -0.1660 -0.1912  0.1639
28563W        W46087   5.928   8.074  15.145 -0.0226 -0.1332  0.1818
28564W        W46088   0.029  14.841   2.339  0.5324 -0.3428 -0.2709
28565W        W46089   9.635  10.132   4.975  0.3710 -0.0911  0.0822
28566W        W46090  10.611   3.341  11.926 -0.1237 -0.1861 -0.0873
28567W        W46091  13.640  16.033  13.059 -0.1406  0.0080  0.0436
28568W        W46092   3.264  15.941   0.790  0.0436 -0.3298 -0.1132
28569W        W46093  13.876  16.281   1.597 -0.0283  0.2874  0.0076
28570W        W46094   7.903   5.267  14.710  0.0268 -0.1633 -0.1526
28571W        W46095  14.148   0.564   1.538 -0.0733 -0.1237 -0.1359
28572W        W46096  13.284   5.448  11.709  0.0554 -0.3471  0.1619
28573W        W46097   1.523   5.738   3.942 -0.0718 -0.3524  0.0901
28574W        W46098   2.929   8.030  14.758  0.0788  0.1252  0.0713
28575W        W46099  13.532  17.929   3.163  0.1822  0.0811 -0.1243
28576W        W46100   9.804   8.705  11.144 -0.0863 -0.1379 -0.2076
28577W        W46101   2.811  13.409  14.888 -0.2097  0.0424  0.2682
28578W        W46102  14.300  15.952  15.101  0.3397  0.0339 -0.2202
28579W        W46103  15.219  16.485  13.140 -0.1184 -0.0227  0.1268
28580W        W46104   4.739   5.635   3.975  0.1295 -0.0481  0.1092
28581W        W46105  16.050  12.244  15.051 -0.1277 -0.0027 -0.0273
28582W        W46106   5.638   6.070  12.024 -0.0050 -0.2364 -0.1572
28583W        W46107   7.628   7.459   2.397  0.2557  0.2883  0.2643
28584W        W46108  11.244   0.189   0.276  0.3447  0.1790 -0.1200
28585W        W46109   0.516   7.416  13.983 -0.0139 -0.5268 -0.1959
28586W        W46110   7.732  10.593  14.985  0.0503  0.0680 -0.1621
28587W        W46111   5.740  10.488   0.803  0.2352  0.0651 -0.2525
28588W        W46112   8.976  17.940   1.662  0.0219  0.1037  0.0625
28589W        W46113  16.729  12.215   2.436 -0.0178  0.0421 -0.0966
28590W        W46114  11.206  16.551  12.496  0.2272 -0.1551  0.0704
28591W        W46115  12.504   5.682  16.222  0.0768 -0.0047  0.0580
28592W        W46116   8.569  13.339  13.884  0.3221 -0.0063 -0.1150
28593W        W46117   4.682  11.541   5.156 -0.2896  0.0948 -0.2060
28594W        W46118  10.979   8.550   2.389  0.0164  0.0752  0.0254
28595W        W46119  12.356  17.690  12.285  0.0427 -0.0226 -0.0019
28596W        W46120  12.363  15.285   4.722  0.1020 -0.2104  0.1309
28597W        W46121  17.122   4.971   0.134 -0.0135  0.0532 -0.3028
28598W        W46122   8.292   1.016  12.356 -0.0296  0.0770  0.0597
28599W        W46123  10.966  14.046  14.971  0.3911  0.2818 -0.4148
28600W        W46124  11.335   0.356   2.979 -0.0669 -0.0694  0.0771
28601W        W46125  17.246   7.458   2.582  0.0965  0.0074 -0.0614
28602W        W46126  11.041   4.427  16.122  0.0047 -0.1567  0.1741
28603W        W46127  13.961   5.902   2.067 -0.1634  0.0237  0.0457
28604W        W46128  15.089   2.052  12.591 -0.1911 -0.2133  0.1121
28605W        W46129   0.814   4.321  12.072  0.2266  0.2322 -0.1159
28606W        W46130   0.229   9.195  12.302  0.1295  0.2993  0.2057
28607W        W46131  16.369   3.498  15.951  0.1830 -0.0313 -0.0074
28608W        W46132  11.231  13.815  13.130  0.1034 -0.1236 -0.2495
28609W        W46133   6.896   1.472   4.360  0.3065 -0.1241  0.0289
28610W        W46134  14.724   6.358  12.773  0.2516 -0.1053 -0.0863
28611W        W46135   1.944   8.680   2.325 -0.0053 -0.1855 -0.0453
28612W        W46136  13.648  15.372  11.668  0.0962  0.2243 -0.2349
28613W        W46137   5.478  15.614  12.511 -0.3247 -0.3689  0.0027
28614W        W46138   7.971   6.054   2.053  0.0930  0.2473 -0.2400
28615W        W46139  10.054  11.360   1.516 -0.0046 -0.2539 -0.2017
28616W        W46140   7.464  15.316   4.721 -0.2482 -0.0097  0.0797
28617W        W46141   0.776  14.304   6.139  0.2782 -0.2080  0.3609
28618W        W46142  15.763   9.680   4.087 -0.1782 -0.0565 -0.0654
28619W        W46143  17.277   0.555  12.924 -0.0845 -0.0912 -0.1388
28620W        W46144   0.164   3.153   4.253  0.1497 -0.0910 -0.1630
28621W        W46145  12.131  17.596  14.583 -0.0485 -0.3058  0.1281
28622W        W46146   3.589   1.283  14.277 -0.1590  0.1630 -0.0878
28623W        W46147   4.786   5.545  14.262  0.0607 -0.2475  0.0680
28624W        W46148   3.928   5.979  15.989  0.1785 -0.2919 -0.0624
28625W        W46149   8.538  16.133  11.809  0.1057  0.1730 -0.0147
28626W        W46150  14.721  17.026   4.274 -0.3154  0.0005  0.2206
28627W        W46151   3.832   9.880   0.627  0.1493 -0.0354  0.1002
28628W        W46152   0.129   6.840   2.427 -0.2274  0.0335 -0.2257
28629W        W46153   0.274  14.571   4.942  0.1236  0.0363 -0.1809
28630W        W46154  16.273  12.930  10.447 -0.0431 -0.2202  0.1920
28631W        W46155   0.276   0.135   3.038  0.2711 -0.0128 -0.1450
28632W        W46156  17.633  11.359   3.468  0.0839  0.0063 -0.0615
28633W        W46157   1.653   3.157  15.795  0.2582  0.0783  0.0254
28634W        W46158  15.259   7.635  16.194  0.0035 -0.0933 -0.2180
28635W        W46159   4.635  17.710  12.269 -0.2165  0.0354 -0.1736
28636W        W46160   1.650  17.145  11.016  0.1291  0.1318 -0.1756
28637W        W46161   2.312  14.170  11.467  0.0812 -0.1348 -0.2542
28638W        W46162   3.653  14.143  13.555  0.0261  0.0944 -0.1496
28639W        W46163   0.484   4.281  12.874  0.1964  0.0210  0.0863
28640W        W46164  14.503   9.669   1.519  0.0812 -0.0858  0.3307
28641W        W46165  12.613  16.713  10.634 -0.2793 -0.1836 -0.0303
28642W        W46166  10.580  13.571   2.404 -0.0754 -0.0400  0.0864
28643W        W46167  15.570  10.090  12.057 -0.2525 -0.2299 -0.1626
28644W        W46168  13.561   1.166   1.041 -0.1716 -0.3088 -0.2169
28645W        W46169  15.068   2.619   3.009 -0.3142 -0.3101 -0.0904
28646W        W46170   8.060  15.858   4.017  0.0072  0.0227  0.3044
28647W        W46171  15.562   8.123  12.458  0.1477  0.1892 -0.0016
28648W        W46172   0.357  11.799   5.070  0.0664  0.0575  0.1766
28649W        W46173   3.664  12.601  11.582  0.0740 -0.0596 -0.3078
28650W        W46174   7.701  11.307  15.498  0.0227  0.0580 -0.1806
28651W        W46175   3.045   0.919   2.525 -0.1460 -0.1206  0.1541
28652W        W46176   4.751  17.601  15.449 -0.1262 -0.3509  0.3025
28653W        W46177  13.024  10.097   2.724 -0.1809  0.1766 -0.1573
28654W        W46178   3.306   8.566   4.448 -0.1438  0.1773  0.1157
28655W        W46179  13.372   4.124   0.813  0.1942  0.1413  0.2654
28656W        W46180   0.149  17.738   4.072  0.0885  0.0902 -0.2683
28657W        W46181   0.477   7.314  11.435  0.0145  0.1602 -0.2681
28658W        W46182  15.141  11.165   1.880 -0.0234  0.0526 -0.2836
28659W        W46183  10.214   4.014   3.711  0.0811 -0.2301  0.1513
28660W        W46184   4.213   2.592   0.884  0.0126 -0.0101 -0.0244
28661W        W46185   0.946  14.339   0.970  0.2811 -0.1140  0.2689
28662W        W46186  14.877   6.182  14.083 -0.0122  0.0750  0.0936
28663W        W46187   8.703  17.728   3.826 -0.0575  0.0849 -0.0406
28664W        W46188  11.246  12.982   2.241  0.3622  0.2332  0.1816
28665W        W46189  14.301  12.462   1.605  0.1356  0.0323  0.0753
28666W        W46190  16.721   5.182   5.893 -0.0015  0.0080  0.0173
28667W        W46191   8.218  10.548  13.262 -0.2034  0.0362 -0.2268
28668W        W46192   6.112   0.558  13.166  0.1118  0.1863  0.3031
28669W        W46193   0.377   1.541  13.334  0.0142  0.0230  0.2638
28670W        W46194   5.042   4.713  15.496 -0.1944 -0.2138 -0.2019
28671W        W46195   2.001  10.230   0.946 -0.1084  0.2003  0.0778
28672W        W46196   2.861  16.381  14.089 -0.0506  0.1197  0.0722
28673W        W46197   0.653   9.194  11.037 -0.1916  0.0023  0.0231
28674W        W46198   7.539   4.161   0.575  0.0700  0.1311  0.3805
28675W        W46199  10.367  17.307   0.186 -0.1572 -0.1142  0.1343
28676W        W46200   7.412   0.038  12.341  0.0077 -0.0330 -0.0302
28677W        W46201  12.015  14.899   5.342  0.0585  0.0220  0.0218
28678W        W46202   7.290   4.463  12.579 -0.2075 -0.1219 -0.1937
28679W        W46203  11.242   3.703   4.850  0.0154  0.0235  0.0397
28680W        W46204  13.212   2.667   1.864 -0.1164  0.2805 -0.3328
28681W        W46205   9.898  11.350   3.300 -0.1644 -0.0545 -0.0682
28682W        W46206   0.527  11.090   0.595 -0.2080  0.1857  0.2478
28683W        W46207  17.081   7.511  11.629  0.0900  0.1377 -0.1253
28684W        W46208   2.669   1.936  11.524  0.0426 -0.0188  0.1567
28685W        W46209  10.308  16.898   5.837 -0.1301  0.1011  0.0541
28686W        W46210  13.370  11.186   3.863  0.2702 -0.1862 -0.0163
28687W        W46211   6.528   4.665  11.405  0.2672  0.0783  0.2496
28688W        W46212  16.554   1.200  12.803  0.0757  0.0896 -0.1378
28689W        W46213  10.184  10.749   6.188 -0.0238 -0.0899 -0.0071
28690W        W46214   4.763  12.686  13.405 -0.0175  0.2624  0.1198
28691W        W46215   3.976   2.280  15.188  0.3464 -0.0107  0.2503
28692W        W46216   5.479  12.666   2.046  0.1639 -0.1467  0.3415
28693W        W46217  17.028   2.584  14.094 -0.2786  0.1735 -0.0488
28694W        W46218   1.949  16.321   4.996  0.0577 -0.1072 -0.0033
28695W        W46219  16.196  15.449   3.418  0.0264  0.2031  0.0951
28696W        W46220   2.117   6.948  13.994 -0.0840 -0.3956  0.2218
28697W        W46221  17.708   1.664   4.545  0.2167  0.1354  0.1251
28698W        W46222  11.108   1.846   2.246  0.4133 -0.2774 -0.3136
28699W        W46223  13.587  14.039   3.118  0.1253  0.2961  0.1940
28700W        W46224   6.497   5.799   0.879  0.2361  0.1530  0.4822
28701W        W46225   4.470   8.535  13.453 -0.2529 -0.0121  0.0594
28702W        W46226   5.188  14.887  15.430  0.0699 -0.1437 -0.0133
28703W        W46227   3.223  11.905  14.910 -0.3871  0.2938  0.1108
28704W        W46228  14.016   0.032   0.616 -0.2553 -0.3038 -0.1112
28705W        W46229  16.200   2.081  15.627  0.3058  0.0681  0.4684
28706W        W46230   0.281  15.720  15.705  0.0663 -0.2155 -0.2141
28707W        W46231  15.007   6.132  13.294 -0.0888 -0.1965  0.0453
28708W        W46232  11.426   6.015  15.572  0.3096  0.1734  0.0298
28709W        W46233   7.697   6.929   2.281 -0.0823 -0.1970  0.2570
28710W        W46234   7.933   0.241  14.972  0.0951  0.1084 -0.1736
28711W        W46235   1.431   2.073   3.576  0.0548  0.0039  0.1240
28712W        W46236   4.548   3.298   4.002  0.1715 -0.1931 -0.1789
28713W        W46237   5.656   7.632   0.301  0.2674  0.0106  0.1244
28714W        W46238  16.617  14.268  15.682 -0.3575 -0.1560  0.4571
28715W        W46239  14.434  17.396   2.931 -0.2086 -0.0267  0.0322
28716W        W46240   9.272   7.488   1.609  0.2002 -0.1093 -0.2156
28717W        W46241   5.891   5.412   0.383  0.1296 -0.0966 -0.0713
28718W        W46242   4.374  11.014  13.806 -0.2384 -0.3368  0.2005
28719W        W46243  13.633  14.743   2.394 -0.1323 -0.0587  0.3878
28720W        W46244   3.843   1.496  12.111 -0.1134 -0.0034  0.1245
28721W        W46245   3.729   6.355   3.053  0.1658 -0.2712 -0.0751
28722W        W46246  15.320   3.828  15.010 -0.2374  0.1662  0.1197
28723W        W46247   8.259   7.716  16.089 -0.3866  0.0990  0.1819
28724W        W46248   2.422   1.114   0.735  0.0454  0.0254 -0.0324
28725W        W46249   7.163  11.344   5.172  0.0279 -0.2336 -0.1642
28726W        W46250   2.480   3.241   1.876  0.0116 -0.0199 -0.1735
28727W        W46251  17.033   9.062  12.593  0.0189 -0.0578 -0.1339
28728W        W46252  16.176  16.883   1.891 -0.1310  0.0658  0.2228
28729W        W46253   1.872  11.305  15.818 -0.1732  0.0631 -0.2211
28730W        W46254  10.084  11.280  12.725 -0.0014 -0.2432 -0.0997
28731W        W46255   2.559   6.866   3.649 -0.0977 -0.1286  0.0724
28732W        W46256   7.658  14.261  14.695  0.0273 -0.1367  0.3003
28733W        W46257   4.272  11.589   4.241 -0.1056  0.0123  0.1283
28734W        W46258   9.716   9.675   4.147 -0.0535 -0.0182  0.1598
28735W        W46259  16.859  15.840  13.189 -0.0850 -0.0195  0.0296
28736W        W46260  14.862  14.250  14.419  0.0884 -0.1108 -0.1335
28737W        W46261   8.474   5.430   1.272 -0.1446 -0.0892 -0.1863
28738W        W46262   2.207   8.074  13.178  0.1054  0.1642  0.2380
28739W        W46263   0.196  16.232   2.829 -0.1063  0.0944 -0.2055
28740W        W46264   3.429   7.896   0.933 -0.0046 -0.0674  0.0170
28741W        W46265   7.444  11.855  11.171 -0.0194  0.0017  0.0747
28742W        W46266   2.137   2.832  14.363 -0.2243 -0.3778 -0.3803
28743W        W46267   8.625  17.593   0.688 -0.1700  0.0987 -0.1031
28744W        W46268   4.538  15.006  11.834  0.0566 -0.1770 -0.6445
28745W        W46269  17.946  11.267   2.066 -0.1122 -0.1226 -0.1216
28746W        W46270   3.299  14.318   2.276 -0.0323 -0.4777  0.0358
28747W        W46271  12.361   2.070   2.567  0.1239 -0.0952  0.0738
28748W        W46272   0.599   4.623   2.077 -0.0115  0.0142  0.0524
28749W        W46273   7.863   9.372   3.863  0.1545 -0.0024 -0.0636
28750W        W46274  11.648   8.161  15.657  0.0301  0.0808  0.2723
28751W        W46275   3.221   7.542  14.791  0.2342 -0.0999 -0.1271
28752W        W46276  17.202   7.046  10.993 -0.2870  0.0178  0.2150
28753W        W46277   8.606  13.349   6.219  0.1046  0.0986  0.1462
28754W        W46278  13.056  10.521  16.120  0.0520  0.1246  0.0133
28755W        W46279  11.536   9.052   0.391  0.2961 -0.0024 -0.1582
28756W        W46280   9.220   5.435   0.615  0.1220 -0.1919 -0.1395
28757W        W46281  14.319   4.109   4.354 -0.0725 -0.1131  0.0103
28758W        W46282  17.891  13.702  13.007  0.0684 -0.1796 -0.3578
28759W        W46283  10.730  10.291  15.355  0.3053 -0.3610 -0.2498
28760W        W46284   9.764   6.212   0.246  0.1075  0.2039 -0.1181
28761W        W46285  15.979   8.926  11.780  0.0523 -0.3448 -0.0092
28762W        W46286  15.864   7.686  12.192  0.1103  0.0233  0.1292
28763W        W46287   8.702  14.601   0.013  0.1562 -0.1599  0.2568
28764W        W46288   2.352  15.622  12.179  0.1598  0.2483  0.1031
28765W        W46289   7.125  12.910   0.023 -0.2247  0.0665 -0.2144
28766W        W46290   7.406   8.696  12.635  0.1212  0.1245 -0.2563
28767W        W46291   8.645   4.545   3.561  0.2673  0.1652 -0.0697
28768W        W46292  16.322  12.465   0.195  0.1472 -0.3631  0.1143
28769W        W46293   0.628   4.818  15.432  0.1067  0.0940  0.0815
28770W        W46294   8.228  14.674  15.967 -0.1432 -0.1560 -0.0785
28771W        W46295  13.225  15.732   1.239 -0.1251 -0.0630  0.1408
28772W        W46296  15.556  10.328  16.224 -0.0313 -0.0724  0.0899
28773W        W46297  15.733   5.587  14.113 -0.2009  0.1630 -0.0530
28774W        W46298   1.269   1.101  11.740 -0.0066 -0.1062 -0.0517
28775W        W46299   9.263  12.333   1.479  0.0951  0.0153 -0.0215
28776W        W46300  10.504   2.350   1.080 -0.4283  0.0361  0.0217
28777W        W46301  16.783   5.072   0.759 -0.1565 -0.0917 -0.0501
28778W        W46302   4.958   4.339   3.658  0.1895 -0.0959  0.2216
28779W        W46303  15.265   3.680   4.254  0.3551 -0.2840  0.3087
28780W        W46304   0.025   7.486  11.798  0.1442 -0.3101  0.1089
28781W        W46305  15.159   2.280   0.185 -0.0472  0.0634  0.1126
28782W        W46306   3.290  17.167  15.319  0.0585 -0.2521  0.4738
28783W        W46307  15.579  17.469  12.940 -0.1980 -0.2359  0.0165
28784W        W46308  13.865   3.465   2.264 -0.0903  0.3296  0.0529
28785W        W46309   8.115   2.322   3.753  0.1234  0.1280  0.1350
28786W        W46310  16.091  12.652  14.719 -0.1284 -0.0601 -0.1446
28787W        W46311   6.020   2.499   1.562 -0.1052 -0.1357 -0.0478
28788W        W46312  12.658   4.154   4.500  0.0381  0.3560 -0.3451
28789W        W46313   7.076  13.978   0.879  0.0424 -0.1179 -0.1586
28790W        W46314  14.389   2.405   1.343  0.0599  0.3688  0.3319
28791W        W46315  14.502  10.041   1.023  0.2260 -0.0291 -0.2285
28792W        W46316  11.707   4.919   4.391 -0.0058  0.0495  0.1063
28793W        W46317   0.290  17.813  13.688 -0.2974 -0.2697 -0.2205
28794W        W46318   2.865  17.129   3.005 -0.4105  0.1096  0.2991
28795W        W46319  12.019  16.742  15.724 -0.1835  0.1447  0.0281
28796W        W46320   7.286   6.607   0.046  0.0841  0.0204 -0.3669
28797W        W46321  13.682   2.544  15.300 -0.1016 -0.1642  0.0272
28798W        W46322  13.755  16.489  12.592  0.2380  0.2935  0.2018
28799W        W46323  16.241   8.710  12.406  0.0393  0.2444  0.1884
28800W        W46324   1.195   7.323   3.039  0.0293  0.0187  0.0858
28801W        W46325   6.306  16.678  14.108 -0.5121  0.1269  0.2675
28802W        W46326  16.565   7.491  11.668  0.0402  0.0155  0.0972
28803W        W46327  13.915   6.131  15.065  0.3582  0.3341 -0.0673
28804W        W46328   3.102   7.132   4.610 -0.2885  0.0815  0.0054
28805W        W46329  12.940   3.675  15.783  0.3195  0.0076  0.0686
28806W        W46330  13.602  14.984  14.548  0.0303  0.0042 -0.0726
28807W        W46331   8.563   7.257  13.309  0.0346 -0.3406  0.2278
28808W        W46332   6.121  11.672   4.619  0.1134 -0.2465  0.1165
28809W        W46333  15.969  10.409  12.364 -0.0435  0.1191 -0.1339
28810W        W46334  11.588   3.193   2.558  0.0504 -0.2690  0.0573
28811W        W46335   1.082   2.669  13.467 -0.1220 -0.4427 -0.0255
28812W        W46336   9.675   8.903  14.343  0.1268  0.0773  0.0342
28813W        W46337   9.768   4.297  14.507  0.5280 -0.3212 -0.1599
28814W        W46338   1.570   5.368   0.106  0.0138  0.1455  0.0715
28815W        W46339  17.114  16.856   4.409  0.2571  0.4131 -0.2337
28816W        W46340   9.289   0.835   2.780 -0.1796 -0.1882  0.1498
28817W        W46341  17.701  17.098   4.404 -0.3513 -0.0567  0.1195
28818W        W46342   8.672  13.237   3.186  0.1471 -0.0402 -0.1569
28819W        W46343   8.437   5.715  10.853 -0.1557  0.2212 -0.2117
28820W        W46344   0.008  12.544   5.613 -0.2560 -0.1675 -0.0196
28821W        W46345   3.936   3.070  15.619 -0.2250  0.2680 -0.3129
28822W        W46346  17.097  14.250  14.509 -0.1814  0.1724  0.0099
28823W        W46347  11.645   2.063  10.939 -0.1197  0.0863 -0.0668
28824W        W46348  14.430   9.698  13.877 -0.2816 -0.0277 -0.2341
28825W        W46349   2.838  10.288   0.428 -0.1631  0.0512 -0.0645
28826W        W46350  16.647   4.837  14.746  0.2529 -0.3287  0.1863
28827W        W46351   9.994   0.923   3.373  0.1733  0.1427 -0.1054
28828W        W46352   9.208  11.472   1.011 -0.0700 -0.1577  0.2897
28829W        W46353   3.862   5.291   2.300  0.1716  0.3418 -0.3695
28830W        W46354  16.532   4.798  15.628  0.0160  0.1988 -0.0035
28831W        W46355  10.173  11.509  14.186  0.1131 -0.1890  0.1011
28832W        W46356   0.976   5.377  11.869  0.1657  0.1246 -0.1143
28833W        W46357  10.473   9.953  16.134 -0.1353 -0.0007  0.0683
28834W        W46358   6.867   7.250   1.585 -0.0338 -0.0053 -0.2079
28835W        W46359   8.453  10.286   4.228 -0.1380  0.3668  0.1329
28836W        W46360   8.549  10.209  16.035  0.1150 -0.1466 -0.0283
28837W        W46361   4.247  13.459  10.766  0.1092 -0.0751 -0.0878
28838W        W46362  13.589   6.670  14.366 -0.2445  0.2540  0.0911
28839W        W46363   7.058  13.005   4.535 -0.0985  0.2624  0.0550
28840W        W46364   4.678  11.382  14.996 -0.2841 -0.1222  0.0154
28841W        W46365  16.763   3.130   1.605  0.1744  0.2214  0.1025
28842W        W46366   1.337   5.093   1.886 -0.1037  0.0154 -0.0745
28843W        W46367   5.189   7.780   0.125  0.2129  0.2391 -0.0939
28844W        W46368   8.686   1.182  14.653  0.2318 -0.1233  0.1939
28845W        W46369   8.627  11.367  13.705  0.1014  0.2137  0.1698
28846W        W46370   9.980  12.707  15.093 -0.0764 -0.1290  0.0822
28847W        W46371  11.867   6.069   2.776  0.0216 -0.1989  0.2440
28848W        W46372  16.723  15.505   0.403  0.1457  0.0924  0.0351
28849W        W46373   4.048  11.136  12.658 -0.4240 -0.2423 -0.3442
28850W        W46374  12.661  11.918   2.148  0.2341  0.2160 -0.2644
28851W        W46375   2.165   6.997  13.440  0.3034  0.0716  0.1419
28852W        W46376   9.170  14.402   2.258 -0.0138 -0.0943 -0.0013
28853W        W46377  12.097   7.775  12.155  0.0008 -0.2767 -0.1496
28854W        W46378   3.630   6.719   3.828 -0.1776  0.3582 -0.0399
28855W        W46379   6.276   8.093   1.973 -0.0927 -0.1459 -0.2028
28856W        W46380   8.897  13.715  11.003  0.1099  0.0018 -0.0212
28857W        W46381   3.079   4.300   0.558 -0.0528 -0.3279 -0.2738
28858W        W46382   5.604   5.732  11.417  0.1803 -0.0847  0.1775
28859W        W46383  13.411  11.418   2.716 -0.0042 -0.0841 -0.3051
28860W        W46384   8.746   4.472  12.389  0.2216  0.3266  0.0245
28861W        W46385   0.935   0.346   4.242 -0.1595  0.4053 -0.1951
28862W        W46386  16.992  12.160   1.740 -0.1406 -0.2248  0.2099
28863W        W46387   9.139   8.001   0.621 -0.1044 -0.0377 -0.0802
28864W        W46388  11.098  15.274  12.276 -0.0880  0.1225  0.1424
28865W        W46389  15.861   7.638  15.570  0.1472  0.1142  0.1011
28866W        W46390   8.930   7.581   3.462 -0.1148  0.1694  0.1629
28867W        W46391   4.343   9.522   4.510 -0.0618 -0.0404 -0.0126
28868W        W46392  16.733   5.022  16.107 -0.1536 -0.5610 -0.1538
28869W        W46393   0.691  10.514   3.753 -0.1043 -0.2112  0.0768
28870W        W46394  17.281   7.018  15.796  0.0244  0.1171  0.0576
28871W        W46395   9.727   7.721   3.023  0.0718 -0.2192  0.1586
28872W        W46396  11.872   3.381   1.213  0.1442 -0.0161 -0.2400
28873W        W46397  13.193   9.524   3.354 -0.1145  0.1511  0.3211
28874W        W46398   3.477  12.056  14.203  0.0431  0.0775  0.1197
28875W        W46399   5.824   1.464  15.924 -0.0650  0.0094  0.1976
28876W        W46400   4.272  15.382  13.440 -0.1138  0.0986 -0.4008
28877W        W46401   1.666   3.146  14.326  0.3825 -0.1392 -0.0146
28878W        W46402  17.881   4.250   3.084 -0.1380  0.0499  0.2813
28879W        W46403   0.104  15.711   2.872  0.0959 -0.4189  0.0444
28880W        W46404  13.165   2.743  14.537 -0.2099  0.4029 -0.4661
28881W        W46405   7.026   3.141   1.370 -0.1047 -0.0233  0.0055
28882W        W46406  17.750   1.433   0.213 -0.1664  0.0321  0.0767
28883W        W46407   0.355   8.275  12.881  0.0031  0.2549 -0.0448
28884W        W46408  17.149  11.038  14.565 -0.0249 -0.1818 -0.1451
28885W        W46409  15.872   3.256  12.235 -0.0384 -0.0665 -0.1666
28886W        W46410  11.405   7.610   4.777  0.3134  0.0173 -0.1534
28887W        W46411   1.078  17.174   4.989 -0.1431  0.1258  0.0002
28888W        W46412   0.117   3.895  14.355  0.0429  0.0646 -0.1527
28889W        W46413   7.518   6.239   2.322  0.4806  0.0863 -0.0141
28890W        W46414   9.259   6.806   1.784 -0.1173 -0.1634  0.1004
28891W        W46415   0.469  12.209  11.364 -0.2596 -0.1071  0.1603
28892W        W46416   2.121  11.399   3.216  0.1008 -0.0817 -0.1006
28893W        W46417  12.770  14.557  15.250 -0.0999  0.3345  0.2918
28894W        W46418  12.842  13.890  10.985  0.1424  0.1769  0.1801
28895W        W46419   6.679   0.618  15.424  0.1417 -0.5134 -0.1390
28896W        W46420   7.841  11.156  15.018  0.2235  0.1207  0.1908
28897W        W46421  11.125   6.072  10.378  0.1607  0.1473 -0.0951
28898W        W46422   8.047   0.358  13.952 -0.0013 -0.0312  0.3824
28899W        W46423  10.640   0.750  14.711  0.0982 -0.0464 -0.0293
28900W        W46424  17.716   6.761   3.350  0.0680 -0.1138  0.5048
28901W        W46425  16.160   0.158   2.836  0.0339 -0.1249  0.0036
28902W        W46426  15.485  11.898  12.327 -0.1233 -0.0417 -0.0960
28903W        W46427   3.742  12.940  13.214 -0.1893  0.1361 -0.3230
28904W        W46428   2.400   6.505   4.358 -0.0230 -0.1599  0.2464
28905W        W46429   2.585  11.785   2.346  0.0817  0.1509  0.0745
28906W        W46430  11.736   2.820   1.912 -0.1920 -0.1094  0.3590
28907W        W46431  10.470  17.557   0.629 -0.3034 -0.0896  0.3371
28908W        W46432  16.558   1.722   5.224  0.2015  0.0942  0.0742
28909W        W46433   3.906   4.747  11.776  0.0275  0.0230 -0.1721
28910W        W46434   5.971  15.707   5.906  0.3287 -0.0109  0.0371
28911W        W46435   4.937   7.493   4.689  0.2766 -0.1382  0.0955
28912W        W46436   4.691   6.529  11.515 -0.2992  0.0735  0.1826
28913W        W46437   1.338   8.492  16.226 -0.0483 -0.1598 -0.0755
28914W        W46438   7.666  11.819   0.934  0.0940  0.1435  0.1092
28915W        W46439   2.819   8.391   5.160 -0.0480 -0.1425  0.0547
28916W        W46440  13.329  12.584  12.148  0.2124  0.4007  0.1321
28917W        W46441  13.450   5.695   0.688 -0.0543 -0.1966  0.2039
28918W        W46442   9.237   8.913  15.970  0.1711 -0.1256  0.0281
28919W        W46443   5.706  11.969  14.544 -0.0843  0.3210  0.2220
28920W        W46444   3.523   2.140   3.990 -0.0900  0.1448 -0.0778
28921W        W46445  11.340  13.411   1.273  0.2827 -0.3105 -0.2233
28922W        W46446   1.381   4.596  14.805 -0.0272 -0.0390  0.1664
28923W        W46447   4.801  16.329  15.020  0.0749 -0.2347 -0.0542
28924W        W46448   1.530   1.717   2.696 -0.1986 -0.1543 -0.0904
28925W        W46449  17.338  17.566  15.675 -0.1470  0.3108 -0.3764
28926W        W46450   8.461   5.578   0.751  0.0811 -0.2328 -0.0540
28927W        W46451  10.286  16.885   3.282  0.2342 -0.1447 -0.1691
28928W        W46452   6.139   9.046   4.835  0.0462  0.2101 -0.4719
28929W        W46453   5.578  16.328  11.029  0.1302  0.0105 -0.0493
28930W        W46454   1.540  10.979   2.346 -0.3407  0.0971 -0.0755
28931W        W46455  15.341   6.834   3.950 -0.3128 -0.2709  0.0455
28932W        W46456   4.785  16.694   4.378  0.0084 -0.3143 -0.0919
28933W        W46457  11.431   4.272  13.724 -0.1172  0.3065 -0.1280
28934W        W46458  13.750   8.346  11.762  0.1481  0.0242  0.2508
28935W        W46459   7.376   8.605   3.341  0.2217 -0.0493  0.0030
28936W        W46460  10.807   5.314   1.478 -0.2141  0.1174 -0.2489
28937W        W46461  12.538  12.136  12.332 -0.0321  0.0254  0.0149
28938W        W46462  10.754   5.166  14.685 -0.4651  0.2232 -0.1194
28939W        W46463  10.653   9.061  15.806 -0.1945 -0.3946  0.1104
28940W        W46464  16.281  17.476   4.560  0.1439 -0.0800 -0.1601
28941W        W46465  15.840   7.477   3.495 -0.0448 -0.1019 -0.2412
28942W        W46466  13.734  12.419   4.455  0.1169  0.1879  0.0277
28943W        W46467   5.100   4.812   2.181 -0.1298 -0.0488  0.2373
28944W        W46468   1.191  14.221  15.483  0.0063  0.1878 -0.0751
28945W        W46469   9.524  17.043   2.389 -0.2555 -0.3853 -0.0153
28946W        W46470   9.217  16.611   4.443  0.1902  0.0842  0.1341
28947W        W46471  15.996  17.341  13.891  0.1625 -0.0798 -0.0306
28948W        W46472  12.038   0.988  13.493 -0.0278 -0.1077  0.0104
28949W        W46473  15.965   5.953  10.728 -0.1063  0.3040  0.0755
28950W        W46474   2.126   9.948  12.311  0.2576 -0.3603  0.1614
28951W        W46475   9.617   8.224  13.100  0.0360 -0.1937 -0.0409
28952W        W46476   4.631   7.885  12.981  0.2755 -0.0020  0.0938
28953W        W46477   4.699   1.185   4.716  0.2565 -0.3709 -0.3055
28954W        W46478  11.094  15.213   4.126 -0.0184 -0.1017 -0.3266
28955W        W46479   6.571   6.973   4.574 -0.1432 -0.0681 -0.0566
28956W        W46480   7.388  10.601   3.959  0.1418  0.0768  0.0871
28957W        W46481  16.238  15.685  14.114  0.4010 -0.3341  0.3696
28958W        W46482   8.895  17.452   1.220 -0.1859 -0.2293  0.2173
28959W        W46483   3.676   2.151   2.207  0.3998  0.1720  0.2600
28960W        W46484  14.286  16.586   4.312  0.1141 -0.3930 -0.2342
28961W        W46485   3.082   0.720   2.984 -0.1592 -0.3036  0.1547
28962W        W46486   2.046  17.102   2.926  0.0575  0.0211 -0.1045
28963W        W46487   4.296  17.265   4.005  0.1276  0.1842 -0.0202
28964W        W46488   4.102   2.777   3.470  0.1079 -0.2019 -0.1484
28965W        W46489  13.817   7.370  13.765 -0.0070 -0.0560  0.0581
28966W        W46490   6.660   0.781  13.946 -0.1224 -0.1296 -0.0896
28967W        W46491  14.066   4.619   3.056  0.0975 -0.0835 -0.1971
28968W        W46492   5.655   1.499  13.741 -0.0737  0.2049  0.1517
28969W        W46493   4.821  16.106   5.188  0.0195 -0.1507  0.2123
28970W        W46494   7.949   7.154   3.610 -0.1393 -0.1202  0.0327
28971W        W46495   6.829   7.725   3.901  0.1018 -0.0914 -0.3421
28972W        W46496   2.656   4.628  13.818 -0.2250  0.3457  0.3715
28973W        W46497  10.601  14.299  11.572 -0.0170  0.1751 -0.1889
28974W        W46498   1.534  10.507  13.677  0.2571 -0.0855  0.0385
28975W        W46499   6.808   8.322   3.974  0.0030  0.0118 -0.1607
28976W        W46500  12.983  15.844  10.678 -0.1501 -0.1554 -0.1426
28977W        W46501   9.425  15.680   4.628 -0.0292 -0.1757 -0.0065
28978W        W46502   9.609   1.026   0.365 -0.0332 -0.1835 -0.0560
28979W        W46503  15.713  13.222   3.804  0.2977 -0.2303 -0.3566
28980W        W46504  13.569   8.641  10.183 -0.3416  0.1110 -0.0376
28981W        W46505   9.221   1.389  15.713 -0.2881 -0.0062 -0.1371
28982W        W46506   0.281   1.094   2.644  0.1981 -0.2159 -0.1353
28983W        W46507   9.821  11.938  11.924 -0.0653  0.3525  0.3433
28984W        W46508  12.466   1.898  13.034 -0.0570 -0.0297 -0.3049
28985W        W46509  10.160   4.830   1.925 -0.2337 -0.0377  0.0380
28986W        W46510   5.629  13.057   2.803  0.0223 -0.0289 -0.0362
28987W        W46511  15.435  14.849  14.945 -0.1073  0.0032  0.3098
28988W        W46512  11.553   6.904  16.123 -0.0112 -0.1651  0.0585
28989W        W46513  16.780   7.909   1.970 -0.2221 -0.0863  0.1280
28990W        W46514   6.741  15.094  14.936  0.0328 -0.0359 -0.2868
28991W        W46515  16.394   5.305  15.914  0.1272 -0.0744  0.1259
28992W        W46516  14.294   8.416  10.879  0.1416 -0.1646 -0.0386
28993W        W46517  13.319  10.925   4.811  0.1955 -0.0188  0.2288
28994W        W46518   9.783  12.444  11.184 -0.0032 -0.0793  0.0558
28995W        W46519   9.924  10.040  13.433  0.0198  0.0978 -0.1985
28996W        W46520  14.434  11.958  14.779  0.1567  0.2925  0.0983
28997W        W46521   6.872   4.553   2.558 -0.0556  0.2393  0.1899
28998W        W46522   4.381   4.974  15.130 -0.1714  0.2497 -0.0931
28999W        W46523   9.918   7.249   4.940 -0.2747 -0.5200 -0.0784
29000W        W46524   7.826   2.580  12.027  0.3189 -0.0684  0.0872
29001W        W46525  10.682  12.956   4.293  0.1886  0.2120 -0.1973
29002W        W46526   6.838  16.809   2.642 -0.1028 -0.0682 -0.1052
29003W        W46527  11.311   7.461   5.260 -0.0718 -0.5025 -0.1991
29004W        W46528  14.848  15.287   2.594  0.1933  0.1360  0.2084
29005W        W46529   5.885  17.351  13.774 -0.2165 -0.0254 -0.0986
29006W        W46530  12.898   5.341  14.863 -0.1256  0.1909 -0.0000
29007W        W46531   9.346  13.658  13.807  0.0467 -0.1681  0.0079
29008W        W46532  11.186   4.354   4.460  0.0014 -0.0750 -0.1423
29009W        W46533  11.254  12.063  15.254  0.0276 -0.1275  0.1914
29010W        W46534  17.690  15.329   3.026 -0.2092 -0.2771 -0.2336
29011W        W46535   5.734   8.902   1.743  0.0968 -0.0006  0.2509
29012W        W46536   2.366  17.650   4.655 -0.1381 -0.3395  0.0171
29013W        W46537  12.490  15.902  12.674 -0.1474 -0.1187 -0.0266
29014W        W46538   5.114  11.839  16.161  0.1116 -0.3664  0.2611
29015W        W46539   1.029  10.430   3.366  0.0611 -0.0589 -0.0927
29016W        W46540   9.475  10.415   2.575  0.0278  0.1607  0.1185
29017W        W46541  17.450  11.400   2.974  0.0962 -0.1046  0.1588
29018W        W46542   6.480   9.094   0.575 -0.1182 -0.4147 -0.0811
29019W        W46543   4.014  13.287   2.353 -0.1843 -0.0002 -0.1907
29020W        W46544   2.793   3.286  11.663 -0.1434 -0.5158 -0.2668
29021W        W46545   8.616  15.956   3.928 -0.1351 -0.4772 -0.0954
29022W        W46546  16.379  17.899   0.464 -0.2388  0.0027 -0.0042
29023W        W46547   2.552   4.534   1.114  0.0993  0.3319 -0.1470
29024W        W46548   7.161   7.132   1.173  0.1102 -0.0852 -0.2111
29025W        W46549  10.448   7.560   4.717 -0.1102  0.1567  0.2463
29026W        W46550  13.264   5.389   4.248 -0.0165 -0.1898 -0.1094
29027W        W46551   0.380   8.552   0.966  0.2062 -0.2132 -0.0997
29028W        W46552   6.853   2.395   0.575  0.1082 -0.0067  0.0709
29029W        W46553   3.742   1.037  11.857 -0.2561 -0.3467 -0.0958
29030W        W46554  14.001   2.798  16.246 -0.0787 -0.2435 -0.1284
29031W        W46555   8.108   9.770  12.109 -0.1121  0.1424 -0.1544
29032W        W46556   4.412  17.224   2.014 -0.0667  0.1698  0.1471
29033W        W46557  14.265   2.503  13.344  0.2558 -0.3900 -0.0172
29034W        W46558   4.735   5.752   2.266 -0.0544 -0.0180 -0.2139
29035W        W46559  14.123  13.517   1.176  0.2034 -0.0864 -0.1088
29036W        W46560  11.014  11.073   2.165  0.2365 -0.0280  0.0934
29037W        W46561  11.866   9.202  11.653 -0.0363 -0.0846 -0.0649
29038W        W46562   1.680   1.207   3.118  0.0566 -0.0116  0.2197
29039W        W46563   6.834  11.648   2.967  0.2116  0.0616  0.0450
29040W        W46564  11.251  17.379  12.486  0.4920  0.0348 -0.2624
29041W        W46565   2.464  17.429   2.908 -0.1617 -0.1179  0.1307
29042W        W46566   3.316   5.660   4.941 -0.3297 -0.2068 -0.0742
29043W        W46567  12.802   7.155  14.805  0.1069 -0.2146  0.2392
29044W        W46568  10.765  12.051  11.882 -0.0755  0.2127  0.0203
29045W        W46569   5.522   5.360  10.404  0.3271  0.0024 -0.1529
29046W        W46570  12.077   4.592   1.993 -0.0480  0.3635 -0.1945
29047W        W46571   0.835   2.694   0.738 -0.0455 -0.2432 -0.0217
29048W        W46572  10.962   1.352  12.276  0.1249 -0.0853  0.1603
29049W        W46573  17.928   4.816   4.222 -0.1221 -0.0720 -0.1622
29050W        W46574   3.763  10.074   3.473  0.0061  0.0863 -0.0732
29051W        W46575   5.822   0.472  13.768  0.0985  0.2785  0.0151
29052W        W46576  12.037  11.262  15.638 -0.1897 -0.1420 -0.1156
29053W        W46577   1.028   3.154   4.006 -0.0055 -0.1026 -0.0107
29054W        W46578  15.019   4.939  14.114  0.1708  0.0047  0.1191
29055W        W46579  14.176   1.658   4.848  0.0719  0.3759  0.0714
29056W        W46580  14.563   4.237   1.297  0.0959  0.0221  0.1126
29057W        W46581   1.707   0.598  11.913 -0.0073 -0.0990  0.0110
29058W        W46582  12.583   1.079  13.529 -0.1915  0.1204  0.0141
29059W        W46583  14.825   7.483   4.061  0.0785 -0.2806 -0.1173
29060W        W46584   7.388  17.770   2.381  0.0516  0.0788  0.0809
29061W        W46585  12.981   3.961   4.835 -0.0538  0.4439 -0.2416
29062W        W46586  12.863   1.582  16.100  0.1342  0.1771  0.1714
29063W        W46587   5.950   7.240   4.465  0.2257  0.2886  0.4531
29064W        W46588   7.143   5.359   3.821  0.2576  0.1566 -0.0354
29065W        W46589  10.600  16.065   4.165  0.1270  0.1014 -0.0345
29066W        W46590  12.863   1.386  12.465  0.2653 -0.2154 -0.1720
29067W        W46591   0.898   3.315   3.390 -0.0644 -0.0395 -0.1127
29068W        W46592   2.290   7.675   4.751  0.0981 -0.0069  0.2190
29069W        W46593   6.972   5.798  11.631 -0.0259 -0.0666 -0.0844
29070W        W46594  14.244  15.683   2.107  0.2312 -0.1686  0.2515
29071W        W46595  16.104  13.707  14.577  0.0056 -0.0884 -0.0188
29072W        W46596  15.523   7.137   4.728  0.1426  0.2159  0.1890
29073W        W46597   6.628   9.754   3.412  0.0184  0.0553  0.0418
29074W        W46598  17.903   9.681   3.443 -0.1204  0.1404  0.0375
29075W        W46599  11.158   4.334   2.299 -0.3045 -0.0409  0.0181
29076W        W46600   5.250   4.788  16.242  0.3600 -0.0672  0.0128
29077W        W46601   6.432   2.518  12.705  0.0225  0.1701  0.1012
29078W        W46602  17.774   4.726  14.340 -0.0816  0.0965  0.1753
29079W        W46603  12.228  14.761  10.985 -0.0733  0.1801  0.0741
29080W        W46604  12.117  11.503   1.663 -0.1874 -0.0660  0.1262
29081W        W46605  13.277  17.315  12.452  0.0087 -0.3703 -0.2602
29082W        W46606  15.790   1.076  14.085  0.1636  0.0630 -0.1460
29083W        W46607   4.688  16.758   2.277  0.0731 -0.2658  0.2791
29084W        W46608   5.313  13.181   4.169 -0.1312 -0.1414 -0.2523
29085W        W46609   4.080  16.338  13.726 -0.1351 -0.0269  0.2159
29086W        W46610  10.168  10.234  11.391  0.2725 -0.0107 -0.2484
29087W        W46611   8.627   1.383  13.176  0.1277  0.3055  0.1055
29088W        W46612   3.290  15.481  11.413  0.0700 -0.3680 -0.4376
29089W        W46613  15.282   1.594   1.996 -0.2155  0.3534  0.0290
29090W        W46614   1.979  13.719  11.579  0.3332  0.2161 -0.0163
29091W        W46615  15.883   6.734  15.641 -0.0227 -0.1800  0.3040
29092W        W46616   6.138   8.241  11.934  0.3380 -0.2647 -0.2061
29093W        W46617   2.524  10.491  12.842 -0.0606 -0.0868 -0.3568
29094W        W46618   5.257  15.406   4.791  0.1001 -0.0448 -0.3277
29095W        W46619   3.305   5.390  14.176 -0.1944 -0.0259 -0.3366
29096W        W46620   8.359  13.057   4.197  0.3193 -0.0799 -0.2308
29097W        W46621  17.380  15.750   1.557 -0.0872 -0.0869  0.1915
29098W        W46622  13.488   6.942   1.859 -0.0681 -0.1642  0.1403
29099W        W46623   3.639  15.404   4.600 -0.1521  0.2067  0.1150
29100W        W46624  12.274  14.027  15.306  0.0377  0.0996  0.1924
29101W        W46625  11.915  10.052  12.158 -0.0308 -0.0416 -0.2905
29102W        W46626   1.167  17.580   0.317  0.0805  0.2723  0.2826
29103W        W46627  12.158   7.145   1.965  0.2172  0.2322  0.0280
29104W        W46628   2.275   5.388   2.052 -0.1602  0.0181  0.1667
29105W        W46629   3.976  12.145   3.719 -0.0773  0.0591  0.1307
29106W        W46630   3.000  11.817  11.892 -0.1969  0.0494  0.0660
29107W        W46631   2.077   9.861   0.437  0.3232 -0.0232  0.2191
29108W        W46632  12.908  15.139  13.740 -0.4238 -0.0342 -0.1127
29109W        W46633   5.311   8.351   1.534  0.1441 -0.1342  0.0476
29110W        W46634  13.180   3.702  14.707 -0.0066 -0.0928 -0.0195
29111W        W46635  14.664  11.209  11.192 -0.1901  0.4155  0.3354
29112W        W46636  13.848   3.705  13.843 -0.0277 -0.2776 -0.0923
29113W        W46637   1.229  16.144   3.300 -0.0524 -0.1940  0.0746
29114W        W46638  11.710   3.720  15.504 -0.0124  0.2046  0.1598
29115W        W46639   3.948   0.886   4.075  0.1233 -0.2205  0.3079
29116W        W46640   2.485   8.410  13.424 -0.3087 -0.1058 -0.2586
29117W        W46641   0.132  10.997   4.188  0.0813  0.1822  0.1425
29118W        W46642   1.469   8.683  14.346 -0.3713  0.4185 -0.0008
29119W        W46643   7.365   5.773   2.183  0.3024  0.0582 -0.1035
29120W        W46644   2.369   4.667   4.452  0.2417  0.1559  0.1525
29121W        W46645  12.424   8.330   4.615  0.0129  0.0421  0.1570
29122W        W46646   1.256  16.277   6.199  0.1771  0.1176  0.1697
29123W        W46647   4.861   1.659  10.730 -0.4161 -0.2123  0.0323
29124W        W46648   0.214  11.708   0.291  0.0602  0.0009  0.1256
29125W        W46649  14.668  16.799   5.184  0.1900 -0.1412  0.0853
29126W        W46650   6.139   4.920  11.673  0.3394 -0.1863 -0.2278
29127W        W46651  17.459  15.840   1.002 -0.2343  0.2382  0.1022
29128W        W46652   7.202  11.096   2.738  0.1036 -0.1568 -0.1914
29129W        W46653   4.859  17.382  13.599  0.0542  0.1586  0.1573
29130W        W46654   9.938  17.576   4.697 -0.1530 -0.1304  0.3055
29131W        W46655  17.671   0.103  11.543 -0.0173  0.2753 -0.1482
29132W        W46656  13.455  11.718   3.742 -0.3944 -0.3801 -0.1137
29133W        W46657  12.887  10.289  14.004  0.2325  0.0719  0.0024
29134W        W46658   1.353  13.425   3.115  0.5669  0.1157 -0.1661
29135W        W46659  13.400  10.851  16.183 -0.1309  0.1327  0.3372
29136W        W46660  12.531  11.686   2.565 -0.0227  0.0239 -0.1342
29137W        W46661   3.344  12.452   1.014 -0.1500 -0.2031 -0.1796
29138W        W46662   6.542  12.942  13.283  0.0001  0.0664  0.1085
29139W        W46663   7.441   9.227  14.204  0.0720  0.2802  0.0299
29140W        W46664   6.617  12.946  14.581 -0.0931  0.3336  0.2073
29141W        W46665   1.808  10.333   0.431 -0.2906 -0.1467 -0.1686
29142W        W46666   9.026   1.314   2.673  0.4109 -0.0929  0.2063
29143W        W46667   2.679  16.097   5.062 -0.2763 -0.1747  0.2736
29144W        W46668  14.503  16.728   4.731  0.0552 -0.0106  0.0242
29145W        W46669  17.200   0.383   1.423  0.0201  0.2415 -0.1955
29146W        W46670  12.764   5.494  11.348 -0.0488  0.0052 -0.1921
29147W        W46671  15.231  15.509  12.762 -0.0159  0.5953 -0.0584
29148W        W46672  13.153  15.463  15.473  0.1127  0.2541 -0.0997
29149W        W46673  13.724   1.913   3.132  0.0025  0.1151 -0.2397
29150W        W46674   2.826   9.996   2.044  0.3773  0.0135  0.1867
29151W        W46675  17.376  11.214   6.099 -0.2568  0.0161  0.3472
29152W        W46676   8.820  13.130  16.257 -0.0059 -0.1045  0.0373
29153W        W46677  11.438   6.050   1.828  0.0336  0.2700 -0.1382
29154W        W46678  17.068  12.806  13.746 -0.0834  0.1196 -0.3976
29155W        W46679   0.430   8.688   2.585  0.2393 -0.1039 -0.2456
29156W        W46680  15.156   4.699  14.863 -0.0060 -0.0375 -0.3086
29157W        W46681   3.740  14.150   3.703  0.2934 -0.1307  0.2375
29158W        W46682   5.687  14.475   4.009 -0.1113 -0.1211  0.0561
29159W        W46683   7.428   3.780  11.248  0.1527  0.2876 -0.2664
29160W        W46684   3.979  12.030   4.343  0.2491 -0.1021 -0.0834
29161W        W46685  14.038  15.534   1.671  0.1435  0.0174  0.0064
29162W        W46686   3.621  13.981  14.088 -0.0027  0.0254 -0.2935
29163W        W46687   2.912   6.253   4.226  0.0210 -0.0209  0.0776
29164W        W46688  16.914   6.214  14.747  0.2857  0.0150 -0.2371
29165W        W46689   8.888  13.681   0.734  0.1986  0.2011 -0.5251
29166W        W46690   6.517  17.843  14.714 -0.0505  0.1551 -0.0072
29167W        W46691   4.649   9.209   2.903 -0.1419 -0.0266 -0.3608
29168W        W46692   1.993  12.840   4.533  0.3770  0.0849  0.0290
29169W        W46693  10.128  13.790  13.375  0.0150  0.0059 -0.0476
29170W        W46694  15.888   1.994  13.048  0.2138  0.1754 -0.1580
29171W        W46695  12.730   7.207  11.898  0.0414 -0.0632 -0.1461
29172W        W46696   6.082   8.960   2.074 -0.0223  0.0123 -0.1447
29173W        W46697   4.411   5.566   4.733 -0.0032 -0.1101 -0.1968
29174W        W46698   3.447   8.862   1.873  0.2929  0.3216  0.0622
29175W        W46699  12.559   3.370   2.151  0.2638 -0.1136 -0.2559
29176W        W46700  17.314   9.643   4.531 -0.0735 -0.1719  0.2631
29177W        W46701   3.973  17.219   2.195  0.5710  0.0742  0.1804
29178W        W46702   3.227  15.315   5.899  0.0805 -0.3694  0.0431
29179W        W46703   5.351  14.018  15.241  0.0168 -0.0414  0.0735
29180W        W46704  13.011  16.788   1.505 -0.2751  0.0895  0.0098
29181W        W46705   2.390   1.554  15.819 -0.1410 -0.0594 -0.0262
29182W        W46706   2.678   3.147  15.637 -0.3702  0.0831  0.1218
29183W        W46707  10.745   7.420  12.225 -0.0553  0.2636  0.1446
29184W        W46708   9.174   1.028   3.322  0.1636  0.0341 -0.1884
29185W        W46709   0.850   0.132  11.846 -0.0632  0.2996  0.2342
29186W        W46710   5.687  12.569   1.253 -0.0186  0.0334  0.2066
29187W        W46711   5.710  17.698  11.238 -0.3122  0.1870 -0.2435
29188W        W46712   2.773   8.049  13.197 -0.1662  0.2237  0.3043
29189W        W46713   1.119  11.414   3.072  0.2433  0.2344  0.1003
29190W        W46714   5.761   8.983  14.059  0.0676  0.0724 -0.1953
29191W        W46715  10.590   5.344  13.555 -0.0815 -0.0829 -0.1522
29192W        W46716   3.763   1.089   0.510 -0.1561  0.0809 -0.2969
29193W        W46717  14.949   3.586   0.494 -0.2988 -0.0495 -0.0507
29194W        W46718  11.479  11.159   1.375 -0.1075 -0.0805 -0.1666
29195W        W46719   1.740  12.575   1.798 -0.2886  0.1829 -0.1883
29196W        W46720  15.301   2.370  14.202 -0.3684 -0.3521 -0.1039
29197W        W46721  11.487  15.240   4.426  0.0678  0.0871  0.0404
29198W        W46722   4.956   1.954   4.130 -0.2897  0.0670  0.2156
29199W        W46723   4.291  11.887   4.885 -0.0162  0.1711  0.1176
29200W        W46724   5.716   2.540   3.822  0.0153  0.1202 -0.0361
29201W        W46725  13.265   1.529  11.154 -0.3968  0.1440  0.0751
29202W        W46726   3.380   9.261   1.506  0.1374 -0.1159  0.0345
29203W        W46727  13.420   8.204  15.336 -0.0223 -0.1763 -0.2291
29204W        W46728  15.073   0.024  15.858  0.0659  0.0691  0.1055
29205W        W46729  17.534   9.933  12.843  0.0891 -0.2643  0.2808
29206W        W46730   0.422  14.584  15.478 -0.0216  0.0130  0.1945
29207W        W46731  12.000   3.728  12.216 -0.0626  0.0095 -0.0437
29208W        W46732   8.794   2.988  16.002 -0.2145 -0.1686 -0.1716
29209W        W46733   3.717   3.037   3.832 -0.2481 -0.0856  0.3040
29210W        W46734  13.607   5.828  15.305 -0.3843  0.0116  0.0292
29211W        W46735   3.684   6.352   1.872 -0.1463  0.0174  0.1337
29212W        W46736  16.281  14.414  11.181  0.0512  0.0125 -0.2848
29213W        W46737  17.756  11.580  10.225 -0.4143  0.0305  0.1495
29214W        W46738  14.213  12.516  11.953  0.0962 -0.1047  0.1189
29215W        W46739  14.410   4.738   2.690  0.3349  0.0212  0.0766
29216W        W46740  16.537   0.076  14.354 -0.0275 -0.1220  0.1711
29217W        W46741  16.268  14.615   3.875  0.3032  0.1555 -0.1809
29218W        W46742   3.793   5.244  15.386 -0.3631 -0.0358  0.2455
29219W        W46743  11.920  11.666   0.699  0.1832 -0.2473  0.1491
29220W        W46744  17.532   7.977   3.173  0.3307  0.1875 -0.0297
29221W        W46745  12.971  15.449   5.906  0.1343  0.2680  0.1809
29222W        W46746   6.306  14.353   1.237 -0.0918 -0.2404 -0.0286
29223W        W46747   0.536  16.482   4.179 -0.0989  0.1621  0.1638
29224W        W46748  17.478  16.216   4.531  0.1235  0.3323  0.0858
29225W        W46749  13.884   1.746  13.222  0.0617  0.3366 -0.1054
29226W        W46750   6.200  11.389  11.422 -0.0622 -0.2044 -0.4050
29227W        W46751  17.404   9.851   1.389 -0.1187  0.0923 -0.0576
29228W        W46752   3.187   0.450   1.764 -0.2263  0.0225 -0.0706
29229W        W46753  12.253   9.296  15.481  0.1148  0.0772  0.2065
29230W        W46754  15.812   3.565  14.938 -0.0140  0.0868 -0.0111
29231W        W46755   8.746   9.061   4.704  0.1907 -0.2451 -0.0967
29232W        W46756   8.945  14.109   0.222  0.0796 -0.0047  0.0148
29233W        W46757  15.786   1.391   5.172  0.3299  0.0508 -0.3824
29234W        W46758  17.402  15.467  16.116 -0.0728  0.1901  0.0384
29235W        W46759  16.193  13.263   3.926 -0.1720 -0.1016 -0.1086
29236W        W46760   1.521   8.002   4.708  0.0705 -0.0748 -0.1628
29237W        W46761  15.651   5.642   5.307  0.1603  0.1738 -0.2494
29238W        W46762  12.458  11.422   3.617 -0.0207  0.3334  0.3174
29239W        W46763   6.981   1.338   5.066  0.1487  0.1607 -0.0318
29240W        W46764   8.801  14.103   2.169  0.1142  0.0417 -0.1159
29241W        W46765  12.886   2.427  11.173  0.0391  0.3967 -0.0344
29242W        W46766  14.214  10.809  12.272  0.1293  0.0372 -0.0402
29243W        W46767  11.138   7.717  12.360 -0.1525  0.1719 -0.1829
29244W        W46768  17.409   4.905  14.005  0.1109  0.1307  0.0158
29245W        W46769   0.716  10.611  11.459 -0.1083 -0.1900  0.0583
29246W        W46770   2.499   8.568  12.366  0.3343  0.0338 -0.0702
29247W        W46771   9.551   1.995  14.967 -0.0548  0.0964 -0.4231
29248W        W46772   6.165  11.088   1.870 -0.1376 -0.2241 -0.0124
29249W        W46773   8.717   5.653   4.487  0.0547 -0.0295  0.0187
29250W        W46774  15.565  14.167  15.063  0.1942 -0.4162 -0.2242
29251W        W46775   2.260   2.266  14.381 -0.0140  0.0163  0.1875
29252W        W46776  11.118  11.265   0.555 -0.1733  0.0515  0.2224
29253W        W46777  15.649  14.617   2.576 -0.1684 -0.1934  0.2037
29254W        W46778   6.448  15.157  13.456 -0.3791  0.3024  0.0956
29255W        W46779   5.659   9.688   0.777  0.0054 -0.1983  0.3387
29256W        W46780   0.418   9.920  14.252  0.1071 -0.0084 -0.0718
29257W        W46781  13.497   7.573   4.242  0.1293  0.1187  0.2910
29258W        W46782  14.880  10.007  11.681  0.0915 -0.0455 -0.0785
29259W        W46783  16.075   7.313  10.209  0.3581  0.2651  0.2943
29260W        W46784  13.723  14.210  13.450 -0.0839  0.2523 -0.1121
29261W        W46785  17.399   8.474  12.488  0.1025 -0.0112  0.0981
29262W        W46786   4.018  13.428   4.334  0.0655 -0.1496 -0.0902
29263W        W46787   5.303   8.914  11.608  0.0045  0.0465 -0.1660
29264W        W46788  11.243   5.291  14.657 -0.0856 -0.2299  0.2554
29265W        W46789   0.399  13.089   4.906  0.3670  0.2864 -0.2821
29266W        W46790   6.486  14.334  14.279  0.3423 -0.0288  0.2494
29267W        W46791   2.556   0.577  13.062  0.0440 -0.0088  0.0018
29268W        W46792  15.449   4.311  14.992  0.0346 -0.1014 -0.2484
29269W        W46793   6.128  12.902  13.570  0.0915 -0.1767 -0.2416
29270W        W46794   5.660   5.268   3.021 -0.0216 -0.2776  0.0354
29271W        W46795   7.276   7.677  12.440  0.0373 -0.0965  0.3054
29272W        W46796  12.041   6.840   0.906 -0.0036  0.1813 -0.1715
29273W        W46797  11.858  13.895  12.154  0.1010 -0.0453  0.2078
29274W        W46798   9.290  14.766  11.843  0.0243  0.3661 -0.1847
29275W        W46799  16.140   9.235  14.210 -0.1734 -0.2831  0.1846
29276W        W46800   8.781   6.320   1.036  0.1559 -0.2817 -0.1004
29277W        W46801  17.599  17.299  15.326 -0.0318 -0.3525  0.0839
29278W        W46802   6.569  12.861   3.265 -0.4241 -0.0618 -0.0562
29279W        W46803   7.641  14.707   5.344  0.1499 -0.0875 -0.4886
29280W        W46804   0.853   6.389  12.267  0.0602 -0.0259 -0.0590
29281W        W46805  14.304  16.933  15.452  0.1552  0.2025 -0.2501
29282W        W46806  16.695   8.461   6.006  0.1185 -0.3173 -0.0222
29283W        W46807   4.869   3.317   4.465 -0.0753  0.1276 -0.0090
29284W        W46808   9.967  16.867   1.569 -0.0782  0.2444 -0.3950
29285W        W46809  13.049   6.659  12.955 -0.0151  0.2336 -0.0731
29286W        W46810  16.368  11.011   2.900  0.0790 -0.1670  0.2808
29287W        W46811   1.094  14.969  14.322  0.0360 -0.0502  0.0316
29288W        W46812   5.232   4.873  11.207  0.0794 -0.3263  0.4294
29289W        W46813   6.130   5.140   5.618  0.2325 -0.0340 -0.1313
29290W        W46814   8.244   3.886   4.407 -0.1455  0.0317 -0.0456
29291W        W46815  10.534  17.258   1.930  0.0025 -0.0851  0.2039
29292W        W46816  15.347   2.868  14.342 -0.0453  0.2734 -0.0325
29293W        W46817   2.261   9.157  14.448  0.4504 -0.2071  0.1745
29294W        W46818   2.251  17.840   0.415 -0.2162 -0.0004 -0.1589
29295W        W46819  11.979   2.736   2.550  0.2702  0.3511  0.3328
29296W        W46820   9.705   9.366   3.328  0.2400  0.3640  0.2086
29297W        W46821  10.777  10.265  15.848 -0.0530  0.1249  0.0767
29298W        W46822  10.358   2.362  14.720 -0.1763 -0.1619 -0.0286
29299W        W46823  16.715   3.747   2.690  0.1425  0.2541 -0.0955
29300W        W46824   5.009  11.296  16.220  0.1335  0.3061  0.1170
29301W        W46825  14.322   0.572  11.535  0.1448 -0.0519  0.0313
29302W        W46826   2.422   0.927   5.126 -0.1451 -0.0567  0.2237
29303W        W46827   7.320  10.646   0.908 -0.0690  0.0368 -0.0622
29304W        W46828   8.222   9.190   2.431  0.1030 -0.0549  0.0559
29305W        W46829  15.257  17.379   4.740 -0.0471  0.1642 -0.0473
29306W        W46830  16.148   2.352  14.011  0.1347 -0.2917  0.1124
29307W        W46831  11.719   7.562  13.824  0.1234  0.0786 -0.0226
29308W        W46832   0.315   1.731  15.642  0.0312 -0.3279 -0.1483
29309W        W46833   4.543  12.847   4.618 -0.1102  0.1688 -0.3635
29310W        W46834  10.886  12.764   3.452  0.1048  0.2802 -0.2175
29311W        W46835  16.343   3.090   5.873 -0.0256  0.0832 -0.0699
29312W        W46836   8.439  15.090   2.470  0.0560 -0.0444 -0.0983
29313W        W46837  14.224   0.234   3.637  0.1345  0.6103  0.1031
29314W        W46838   7.453   1.217   5.055  0.0677 -0.1084  0.1475
29315W        W46839   3.822   4.201  13.304 -0.0516  0.1526 -0.2171
29316W        W46840   4.306   2.230  13.667  0.1430 -0.1622 -0.2138
29317W        W46841   4.583   3.031  12.489 -0.0963 -0.1878  0.0274
29318W        W46842   0.120  10.443   2.365  0.4327  0.1601  0.0242
29319W        W46843  12.376  11.675  13.937  0.0253 -0.3001 -0.2354
29320W        W46844   1.217  14.780   1.208  0.0830  0.1601 -0.3040
29321W        W46845  15.044   6.954  14.603  0.0671  0.0330 -0.1853
29322W        W46846   8.080   3.792   3.533  0.0327  0.1749  0.1799
29323W        W46847   0.754  11.853  14.230 -0.0423 -0.1648  0.1329
29324W        W46848   3.777  13.175   0.062  0.1655  0.2349  0.1735
29325W        W46849  17.476   0.765   4.779  0.0092  0.2018 -0.0354
29326W        W46850  11.618   1.585   3.334  0.0758  0.1052  0.0401
29327W        W46851  17.932  10.645   1.225 -0.0870 -0.1827 -0.1613
29328W        W46852   8.208  11.473   3.348  0.5219  0.1328  0.4660
29329W        W46853   4.262  12.750   0.347  0.0888  0.0453  0.3155
29330W        W46854   2.975  11.127  14.323 -0.3192  0.1308 -0.2073
29331W        W46855   0.226   8.394  13.598  0.0146 -0.1722  0.2870
29332W        W46856   8.432   7.888  14.260  0.1262  0.0048 -0.0713
29333W        W46857   0.121   6.713  13.831  0.0116  0.0463 -0.0983
29334W        W46858  14.558   6.570  10.239  0.0673  0.0503  0.1290
29335W        W46859   7.160  12.614   3.757 -0.2652 -0.0786  0.0526
29336W        W46860   6.861  11.944  14.081  0.1573  0.0198 -0.3131
29337W        W46861  13.293   2.926   1.054 -0.0266  0.1079 -0.2314
29338W        W46862  13.768   1.867   2.112  0.1893 -0.0575  0.1479
29339W        W46863  14.410   3.260  15.420 -0.2507 -0.0322 -0.0127
29340W        W46864   8.997   8.830  13.196 -0.0777 -0.0545  0.0750
29341W        W46865   6.925  10.366   2.834 -0.0163  0.1507 -0.2274
29342W        W46866   7.579   1.955  13.716 -0.0598  0.0650  0.0512
29343W        W46867   1.783   8.384  15.581  0.0977 -0.1304 -0.1319
29344W        W46868   4.467  14.331  15.370  0.2143 -0.0505  0.1664
29345W        W46869   4.789   1.415   0.285  0.2371 -0.0010  0.2942
29346W        W46870  11.006   6.595   3.921 -0.1149  0.2885 -0.0153
29347W        W46871   8.723   3.765   4.757 -0.2558  0.2242 -0.0790
29348W        W46872   7.053   8.577  15.134 -0.4166  0.3605  0.1974
29349W        W46873   5.782  12.836  12.676  0.2743 -0.1639  0.0774
29350W        W46874   5.895  12.632  15.257  0.1212 -0.0033 -0.2792
29351W        W46875   4.004   9.352   4.193  0.1083 -0.2370 -0.0289
29352W        W46876  17.637   6.296   3.478  0.2365  0.2786  0.1598
29353W        W46877  15.851   0.201  15.419 -0.0978 -0.1121  0.3850
29354W        W46878   1.224  15.472  14.498  0.0435 -0.1654  0.1358
29355W        W46879  17.583  13.187   1.056 -0.1940  0.1548 -0.1391
29356W        W46880  14.325  11.425   1.351 -0.0670 -0.1408  0.1353
29357W        W46881   4.702  13.489   3.542 -0.1994 -0.1298 -0.0307
29358W        W46882  14.837  17.361  11.379 -0.1525  0.4247  0.1060
29359W        W46883   9.040   8.043  12.448 -0.1249  0.2888 -0.2855
29360W        W46884  12.773   1.775   1.950 -0.1275 -0.0876  0.0048
29361W        W46885  11.183   2.686  15.673  0.1245 -0.0684  0.0117
29362W        W46886   5.283  14.873   0.278  0.2268  0.2819  0.1683
29363W        W46887  12.732   2.956   3.768  0.2588  0.2628 -0.2705
29364W        W46888  15.802   8.050   1.911 -0.0677  0.1298  0.1154
29365W        W46889  12.936  12.426  11.876 -0.3622 -0.2169  0.4046
29366W        W46890   4.688   9.131  16.227  0.0198 -0.2590  0.0764
29367W        W46891  16.698  12.759  14.105 -0.2991 -0.1751 -0.1361
29368W        W46892   7.675  11.614   0.463  0.2508 -0.0790 -0.0643
29369W        W46893   3.138   6.842  11.666 -0.1804  0.0350 -0.2867
29370W        W46894   8.799  10.666   5.908 -0.1549  0.1479  0.1946
29371W        W46895   5.517  11.416   4.260  0.1501 -0.2901  0.0966
29372W        W46896   2.798  10.994   1.702  0.1103 -0.3165 -0.1030
29373W        W46897   6.987   5.940  12.116  0.1591  0.0108 -0.0852
29374W        W46898   4.561  17.401  13.103 -0.0427 -0.1551 -0.0493
29375W        W46899  16.161  15.253  11.342 -0.0929 -0.0897 -0.0091
29376W        W46900   3.912   0.438  13.349  0.0910 -0.0920 -0.3119
29377W        W46901   9.811  16.735  12.347 -0.3471 -0.0142 -0.3401
29378W        W46902   9.367   5.023  15.521  0.0389 -0.2785  0.1247
29379W        W46903  13.551  16.596  13.147 -0.2529  0.0443 -0.0600
29380W        W46904   7.322   9.422   3.676 -0.0355  0.1103 -0.1439
29381W        W46905   0.968   6.180  11.622 -0.2464 -0.1859 -0.0115
29382W        W46906   7.637   7.362   4.613  0.0479  0.2298 -0.1344
29383W        W46907  16.177   5.741   4.670 -0.0830  0.4385  0.0085
29384W        W46908   3.871  15.970  12.559 -0.1220  0.1249 -0.0318
29385W        W46909  13.465  17.874  14.475  0.3499 -0.2077  0.1263
29386W        W46910   4.982  10.003  12.288 -0.1154 -0.0240 -0.3290
29387W        W46911   8.096   3.538  13.210  0.0596  0.2921  0.1589
29388W        W46912   7.613   9.665   4.225  0.0911  0.1551  0.1267
29389W        W46913  12.498   0.022  14.479 -0.0035  0.1614 -0.1538
29390W        W46914   3.412  13.910  12.299  0.0065  0.0334  0.2088
29391W        W46915  17.863  16.926  14.979  0.0519  0.0642 -0.0231
29392W        W46916  14.108  13.642   1.684  0.0884  0.0378  0.1314
29393W        W46917  17.293  14.106   3.094 -0.2236 -0.2746  0.4420
29394W        W46918  13.379  16.220  11.617 -0.0029  0.0760 -0.0868
29395W        W46919  11.419  16.372   2.340  0.2793  0.1709  0.0583
29396W        W46920  11.030  12.844  13.079 -0.1433  0.2111 -0.0464
29397W        W46921  11.522   6.040   3.562 -0.0814  0.2010 -0.0731
29398W        W46922   0.856   7.589   3.316  0.0218 -0.1069  0.0769
29399W        W46923   3.278   9.789   2.785 -0.1114 -0.0327  0.2821
29400W        W46924  12.858  13.647  13.672  0.0417 -0.1581  0.0770
29401W        W46925   1.081   0.916  15.957 -0.2968 -0.3791  0.1851
29402W        W46926  10.974   9.707  13.194  0.2229  0.1351 -0.0044
29403W        W46927   2.699   0.334  15.701  0.1253  0.1121  0.1507
29404W        W46928  10.025  15.571  14.939  0.0662  0.0246  0.0522
29405W        W46929   8.310  16.473   1.429 -0.1117 -0.1095  0.1661
29406W        W46930  10.702   9.104  12.267 -0.2125 -0.0329 -0.0997
29407W        W46931   9.150   3.671   3.766  0.2337  0.1266 -0.2851
29408W        W46932  10.776   5.267   4.470  0.1033 -0.0425 -0.1379
29409W        W46933   6.618  12.964  16.064  0.0582 -0.2631 -0.0657
29410W        W46934   3.312  16.934  16.190 -0.0042  0.0237 -0.1962
29411W        W46935  16.120   1.181   1.040  0.2054 -0.0499 -0.2002
29412W        W46936   8.262   3.915   0.852  0.0718  0.3633 -0.0152
29413W        W46937  14.457   3.821   1.704  0.1897 -0.1829 -0.0823
29414W        W46938   9.851   0.082  14.312 -0.3143 -0.1561  0.0800
29415W        W46939  11.751   8.626  15.503 -0.1556 -0.2566  0.0337
29416W        W46940   9.315  14.372   5.326  0.0282  0.1691 -0.0496
29417W        W46941   6.513  10.104   2.922  0.0208 -0.0844 -0.0757
29418W        W46942  10.505   8.910   4.272  0.0540  0.0835 -0.2142
29419W        W46943   6.320   3.031   2.217 -0.1442 -0.2222  0.0672
29420W        W46944   0.829   6.133   0.110  0.1569 -0.1586 -0.0203
29421W        W46945   2.015  17.810  16.114 -0.1036 -0.3564  0.1164
29422W        W46946  15.153   1.508  12.152 -0.1790 -0.0188  0.1118
29423W        W46947  16.440  12.209   0.989 -0.2973 -0.1396 -0.1004
29424W        W46948  12.092  14.740  12.054 -0.3887  0.0154  0.1197
29425W        W46949  16.808   6.573   3.575  0.1994  0.0629 -0.4967
29426W        W46950  12.580  14.580  10.285  0.0244 -0.0782 -0.0338
29427W        W46951   2.539   4.916  15.163  0.1551 -0.4067  0.2793
29428W        W46952  12.705  12.459   3.490  0.2120  0.0416  0.1963
29429W        W46953   2.489   0.748   3.064  0.1424 -0.1654  0.1025
29430W        W46954   4.320  15.377   0.999  0.0907 -0.1126 -0.2605
29431W        W46955  17.227   2.474   3.862  0.0438  0.0271  0.0777
29432W        W46956  12.032  12.155  12.297 -0.0986 -0.1336  0.3436
29433W        W46957  16.473   2.676   0.657  0.0258  0.2559  0.1498
29434W        W46958  10.472   2.407  15.864  0.2917 -0.2382  0.1164
29435W        W46959  15.626   2.698  13.295  0.0318  0.1271  0.0892
29436W        W46960   1.515   2.156  15.757  0.0715 -0.0360  0.1907
29437W        W46961   2.243   5.735   4.816 -0.2486  0.2647  0.0229
29438W        W46962  10.206   5.114   2.897  0.1491  0.0447  0.2359
29439W        W46963  11.923   3.019   4.207 -0.2112 -0.0130 -0.2255
29440W        W46964   4.336  14.177   0.379  0.1778  0.0743  0.2066
29441W        W46965   3.409   1.917   4.647  0.1494 -0.1110  0.1105
29442W        W46966  12.249  16.518  15.291  0.3234 -0.3206 -0.0773
29443W        W46967  10.670  13.066   0.391  0.0069 -0.4708  0.3198
29444W        W46968  13.551   9.528   3.042 -0.3237  0.0624 -0.0884
29445W        W46969  15.554   3.365   2.627  0.2402  0.0572  0.1806
29446W        W46970  13.166   8.481   2.410  0.4337  0.2045 -0.1472
29447W        W46971  15.434  17.105  16.114 -0.1000 -0.0096  0.1831
29448W        W46972  15.287  14.895   3.989 -0.1953 -0.2034  0.0112
29449W        W46973  11.061   1.429   2.593  0.0719  0.2670  0.0027
29450W        W46974  10.041   1.492  14.388  0.0351 -0.0520 -0.1650
29451W        W46975   8.334   2.041  14.684  0.1073 -0.1201 -0.0948
29452W        W46976   8.515  11.788  14.963  0.1442  0.0717 -0.4087
29453W        W46977   9.549  15.249  14.066  0.0432  0.1538 -0.2182
29454W        W46978  10.737  11.941   0.426  0.0457 -0.0740  0.0136
29455W        W46979  13.789  14.646   4.126  0.0771 -0.1781  0.1294
29456W        W46980   3.853   0.938  14.625 -0.1025 -0.2184  0.0536
29457W        W46981  11.770   5.713   2.008 -0.1823 -0.0585 -0.0663
29458W        W46982  17.404   0.943   2.213 -0.0621 -0.3058 -0.0069
29459W        W46983  17.930   7.217  12.225  0.1079 -0.0045  0.1866
29460W        W46984   5.186   2.663  15.339  0.2900 -0.2056 -0.1614
29461W        W46985  11.780   9.155  15.761  0.4185 -0.1031  0.0561
29462W        W46986  17.100   7.681   4.061  0.0861 -0.1916 -0.0921
29463W        W46987  17.073  17.115  15.797 -0.0102 -0.0814 -0.3003
29464W        W46988   9.749   1.535   3.914  0.3474  0.1974 -0.1943
29465W        W46989  11.629  13.299  12.079 -0.2897 -0.1387  0.0964
29466W        W46990   4.072   7.458  13.322  0.1789 -0.2209 -0.2220
29467W        W46991  12.518   4.008  11.381 -0.0252  0.0896  0.0993
29468W        W46992  16.594   5.509  12.286  0.3704  0.2356  0.1816
29469W        W46993  10.661  17.678   2.918 -0.0749 -0.1514  0.0472
29470W        W46994   3.694   2.840  16.020  0.1529 -0.0340  0.1106
29471W        W46995  11.148  16.024  14.629 -0.1290 -0.0742  0.0600
29472W        W46996  16.652  16.614  12.508  0.0772  0.0887  0.3269
29473W        W46997  13.697   5.340  14.497  0.2429 -0.0862 -0.1538
29474W        W46998  15.071  10.223   2.314  0.2726 -0.0759  0.1940
29475W        W46999   7.133   7.885   2.986 -0.0675 -0.2138 -0.0402
29476W        W47000  10.933   7.855   1.713  0.1688  0.1842 -0.1256
29477W        W47001   4.964  14.675   1.661 -0.0249  0.1172  0.0958
29478W        W47002   2.990  13.706   0.115 -0.0860  0.2146 -0.1097
29479W        W47003   0.455   3.058  13.179 -0.0145  0.0893 -0.0678
29480W        W47004  12.305   7.345  16.048  0.0662 -0.4589 -0.3601
29481W        W47005  14.338  10.447  12.619  0.1473  0.0641  0.0709
29482W        W47006   8.173   6.669  14.916  0.0996  0.1054 -0.2938
29483W        W47007   1.809   7.979  14.642 -0.1010  0.1997  0.1863
29484W        W47008  10.297   1.574   1.716 -0.2366 -0.0835 -0.0520
29485W        W47009  13.528  16.887  13.620  0.2276  0.1300 -0.0678
29486W        W47010   2.785  12.187  11.649 -0.0525 -0.0174  0.1143
29487W        W47011   1.789  16.593   2.639  0.0663 -0.0538  0.0895
29488W        W47012  16.681  13.188   0.805  0.3646 -0.1779 -0.3562
29489W        W47013   9.142   0.998  14.499 -0.1116 -0.1150 -0.2547
29490W        W47014  17.091   0.549   2.543 -0.2065  0.0409  0.1492
29491W        W47015   5.352   0.174   0.462 -0.0043 -0.1411  0.2973
29492W        W47016  14.672  10.770  12.450  0.0644  0.0130 -0.0821
29493W        W47017   9.793  16.388   3.822 -0.0250 -0.1141 -0.2335
29494W        W47018  10.463   7.989  13.922 -0.0922 -0.0989 -0.1437
29495W        W47019  17.490  10.168  15.931 -0.0160 -0.0764  0.2826
29496W        W47020   9.689   5.417   0.481 -0.1724  0.1301 -0.0244
29497W        W47021  17.639   8.380  15.378 -0.1131 -0.2502  0.1085
29498W        W47022   5.605   1.442  14.581 -0.0133 -0.1030 -0.2310
29499W        W47023  10.505  14.314   0.942 -0.1161 -0.1791  0.1631
29500W        W47024  14.336   9.067  12.946 -0.0045 -0.0428  0.2098
29501W        W47025   6.596   8.294  16.025  0.0488  0.0804  0.0091
29502W        W47026   8.225   7.107   1.256 -0.1180 -0.1934 -0.1454
29503W        W47027  13.864  13.137  15.916 -0.2803  0.0704 -0.1160
29504W        W47028   0.536   2.732  12.718 -0.2720  0.0865 -0.0367
29505W        W47029   8.125   1.716  12.163  0.1600  0.3268  0.0625
29506W        W47030   7.905   7.915   2.314  0.0320  0.2710  0.1027
29507W        W47031  17.402  13.906  12.145 -0.1232  0.0030 -0.2603
29508W        W47032  15.775   4.599   0.431 -0.2914  0.0173 -0.3127
29509W        W47033  15.158  11.669   1.937 -0.0716  0.0487  0.0628
29510W        W47034  17.523   3.901   2.878  0.1053  0.0932  0.0410
29511W        W47035  15.931  14.941   3.344 -0.1102  0.3349 -0.0496
29512W        W47036   3.293   3.915   2.014  0.3217  0.1592  0.0419
29513W        W47037   9.350   8.551   4.851 -0.0374 -0.0146 -0.0400
29514W        W47038  10.520   8.073  14.952  0.1190 -0.3242  0.0532
29515W        W47039   8.498  15.518   4.149  0.0248  0.2075 -0.1011
29516W        W47040  10.849  10.656   5.550  0.3497  0.1001  0.2304
29517W        W47041  17.148  15.208  14.806  0.1481  0.3829 -0.4897
29518W        W47042   2.680  10.546  11.877 -0.2314 -0.0369  0.0196
29519W        W47043  11.472   5.221   5.366  0.0855  0.0938 -0.0412
29520W        W47044   6.188  16.298   1.768  0.0539 -0.1940 -0.0284
29521W        W47045  11.405   7.224  10.545 -0.0742  0.0971 -0.2340
29522W        W47046  13.511   2.993  11.818  0.0406  0.1639  0.0634
29523W        W47047   0.199  12.814  13.131  0.1635  0.3315 -0.1026
29524W        W47048   5.377   8.378   4.912 -0.1944 -0.1529 -0.1440
29525W        W47049   6.858   6.967   0.150  0.1168  0.1050  0.4759
29526W        W47050   3.242  10.413  13.867 -0.0929  0.0026 -0.0628
29527W        W47051  16.938  15.380   4.369  0.0144  0.0223  0.3447
29528W        W47052   8.194   0.293   5.099 -0.1142 -0.1353  0.1579
29529W        W47053   6.674   2.954   3.042 -0.1254  0.0765 -0.2108
29530W        W47054   1.534   6.477  15.063  0.1499  0.1003  0.0901
29531W        W47055   6.483  17.652   1.116  0.1461  0.1656  0.2683
29532W        W47056   3.397   4.620  13.048 -0.0371  0.1174  0.0863
29533W        W47057  14.121   9.587  15.343  0.1150 -0.0856 -0.1039
29534W        W47058   8.350   7.312   1.850  0.3991  0.3717 -0.1772
29535W        W47059  17.524  10.750   0.986 -0.0909 -0.0667  0.2821
29536W        W47060   6.513   0.696   4.653  0.1512 -0.0655  0.0144
29537W        W47061   1.093  17.882  16.123  0.0758  0.1088 -0.0575
29538W        W47062   8.132  12.993   5.199  0.1807  0.2582  0.0929
29539W        W47063   8.162   7.954  15.036  0.0447  0.2899  0.3165
29540W        W47064   7.699   1.216   1.026 -0.2472 -0.3305 -0.4221
29541W        W47065  11.823   1.913   3.036 -0.1653 -0.2855  0.1736
29542W        W47066   6.946   6.012   2.890  0.3853  0.0474 -0.0152
29543W        W47067   6.930   0.064  13.077  0.0116 -0.0342 -0.1860
29544W        W47068   2.524  17.403  10.563  0.2697 -0.3342  0.0012
29545W        W47069  15.636   5.142   2.882  0.0652 -0.0035  0.2169
29546W        W47070  14.466   2.231  15.546  0.1156 -0.2997 -0.0331
29547W        W47071   9.678  13.229   2.826  0.0678 -0.1426 -0.0722
29548W        W47072   1.991   3.876   1.435 -0.1271 -0.0274 -0.2229
29549W        W47073   7.851  13.313   5.413 -0.0715 -0.1409 -0.0832
29550W        W47074  10.641   9.527  15.958 -0.0954  0.2109 -0.0275
29551W        W47075   1.101  16.359   2.380 -0.1156  0.1737 -0.0696
29552W        W47076  15.609  11.507  15.041  0.3445 -0.0206 -0.1784
29553W        W47077   0.531   4.494   4.968  0.2189  0.1709 -0.3612
29554W        W47078   6.902   4.807   1.159  0.3965 -0.1752 -0.0134
29555W        W47079  13.798  17.920  12.850 -0.2700  0.1297 -0.0293
29556W        W47080   3.923  13.267  13.522  0.1587 -0.1307  0.0610
29557W        W47081  15.069   7.097  15.183  0.1023  0.0203 -0.5816
29558W        W47082  16.850  16.234  14.520  0.0811  0.0203  0.3584
29559W        W47083   3.159  12.204   1.378 -0.1947  0.1734 -0.0090
29560W        W47084   9.290  11.008  12.441  0.4527 -0.1648  0.1514
29561W        W47085   1.790   5.458  11.938  0.2951 -0.0584 -0.2621
29562W        W47086  13.745  16.885   0.859 -0.0126  0.0209 -0.1933
29563W        W47087   2.591   1.073  15.863  0.0383 -0.0015  0.2913
29564W        W47088  12.126  10.535   1.707 -0.0801 -0.2289  0.0983
29565W        W47089  17.686   7.060  13.943  0.0049 -0.1448 -0.2295
29566W        W47090  15.256  12.250  15.013 -0.2080  0.1003 -0.0626
29567W        W47091  10.383   3.408   1.989  0.3545 -0.0317  0.0107
29568W        W47092   8.514  14.777   3.329 -0.1052 -0.0124  0.0454
29569W        W47093  15.913   4.113   0.240  0.1844  0.0680  0.3552
29570W        W47094  12.767   5.739   0.436  0.0873  0.0552 -0.1238
29571W        W47095  12.301  10.977   0.373 -0.0722 -0.2289  0.0068
29572W        W47096  11.494  10.725  15.181 -0.2350  0.1173  0.0683
29573W        W47097  15.997  10.597   0.072  0.0670 -0.0178 -0.1039
29574W        W47098  15.931  17.744  11.829 -0.0926 -0.2617 -0.0644
29575W        W47099   9.529   2.600   2.659 -0.4790  0.0254  0.1165
29576W        W47100   3.319  12.746   4.212  0.0013  0.0642  0.0478
29577W        W47101   0.363   4.447  11.935 -0.0347 -0.2024 -0.1781
29578W        W47102   8.781   1.809   0.589 -0.0587 -0.1109 -0.1397
29579W        W47103   3.733  17.375  14.325 -0.0720  0.1454 -0.0113
29580W        W47104   9.883   8.265   1.538  0.3823  0.0486 -0.0430
29581W        W47105   2.414   6.488   5.548 -0.0325 -0.0703 -0.0025
29582W        W47106   8.506   6.557  11.542  0.2526 -0.1385  0.1322
29583W        W47107   6.757   0.303  13.915 -0.0395 -0.2188  0.1604
29584W        W47108   4.577   0.772  14.829 -0.1289 -0.0497  0.0091
29585W        W47109   9.750   5.290  11.275 -0.3059 -0.0314 -0.0936
29586W        W47110   4.120  13.665   2.690  0.1328 -0.0934  0.0494
29587W        W47111   9.266  14.072   3.100  0.0838  0.2393  0.0160
29588W        W47112   0.506  12.435   4.534 -0.0958  0.2223  0.3325
29589W        W47113  14.850  12.332   4.446 -0.2088  0.1806 -0.1276
29590W        W47114   0.787   3.629   4.635  0.1085 -0.0816 -0.1078
29591W        W47115  15.378  10.472  14.479  0.0769 -0.2693  0.2723
29592W        W47116   3.006   1.645  13.208  0.0438  0.0164 -0.0214
29593W        W47117  11.244   0.382  15.424 -0.1999  0.1522  0.0379
29594W        W47118   4.706  13.533   2.175  0.1235 -0.3292 -0.1738
29595W        W47119   5.908  15.786   3.280 -0.2179 -0.1927 -0.0307
29596W        W47120   1.903   6.658   5.672 -0.1431 -0.0473 -0.1724
29597W        W47121  12.081  11.838   5.029  0.0415 -0.0554  0.1267
29598W        W47122  11.717   3.375  12.017 -0.0129 -0.1125  0.0320
29599W        W47123   0.994  15.434   3.490 -0.1134 -0.0800  0.2123
29600W        W47124   0.243  12.028  15.396  0.0803  0.3279 -0.1747
29601W        W47125  10.687  12.993  15.040 -0.0644  0.3345 -0.0613
29602W        W47126  16.550   2.587   4.454 -0.0790  0.3920  0.1156
29603W        W47127  11.483  17.717   1.692  0.0629  0.1947  0.0877
29604W        W47128   4.186   0.558   5.375 -0.1445  0.0830 -0.1284
29605W        W47129  11.585   7.792  12.219 -0.1531 -0.1687  0.1172
29606W        W47130  10.472  14.483  12.502  0.2079  0.1127  0.2202
29607W        W47131  13.220   6.423  15.810 -0.4611 -0.0659  0.0004
29608W        W47132   1.396   3.355  11.547  0.1937 -0.2167  0.1157
29609W        W47133   3.118  16.139  13.228  0.0354 -0.0131 -0.0045
29610W        W47134   7.884  11.676  15.768 -0.3288  0.0577 -0.0263
29611W        W47135  14.624   0.182  14.947  0.0137 -0.1785 -0.1039
29612W        W47136  17.930   7.058   5.019 -0.4749  0.0023 -0.0777
29613W        W47137  15.120   7.577   3.598 -0.0942 -0.0936 -0.0967
29614W        W47138   3.329  14.526  14.847  0.3433  0.0176 -0.0243
29615W        W47139   5.254  12.491  13.576 -0.0705  0.3513  0.1603
29616W        W47140  10.867  17.909  15.839  0.0758  0.1706  0.0338
29617W        W47141  15.912   1.338   0.617 -0.0555 -0.1192  0.0411
29618W        W47142   4.283   6.251  15.750  0.0355 -0.1633 -0.0365
29619W        W47143  10.595   1.765  15.948  0.0147  0.0817 -0.1497
29620W        W47144  15.200   8.962   5.123  0.1327  0.0143  0.2373
29621W        W47145   4.096  11.195   4.540  0.0316 -0.0305  0.0372
29622W        W47146   7.119   0.813   1.474 -0.0405 -0.0917 -0.1945
29623W        W47147  16.259   2.802  14.512 -0.1072 -0.0429 -0.0892
29624W        W47148  11.297   5.752   2.272  0.3307 -0.1403  0.2114
29625W        W47149   8.303   8.133   5.128  0.1436 -0.0949 -0.0082
29626W        W47150  11.701  17.774  12.540  0.3701 -0.1143  0.2051
29627W        W47151  17.093  16.485   2.136 -0.0103 -0.0639  0.3392
29628W        W47152   5.569   9.744   3.761 -0.4116  0.2726 -0.1423
29629W        W47153   2.778  15.174  14.241 -0.0609  0.2498  0.1616
29630W        W47154  13.017  16.712  12.995 -0.0197  0.3045 -0.0435
29631W        W47155  17.345  12.748   1.014  0.2055 -0.1016  0.0233
29632W        W47156  11.017   4.048  15.774  0.0293 -0.1554 -0.0836
29633W        W47157   1.845   7.641  16.026 -0.3300 -0.2387  0.1121
29634W        W47158   1.531   1.806  12.368  0.1857 -0.0703 -0.0758
29635W        W47159   8.079   1.653  11.650  0.0614 -0.0782 -0.0935
29636W        W47160  15.409  14.038  12.306  0.0008  0.6018 -0.0665
29637W        W47161  10.572  15.276  13.270 -0.0186  0.5115 -0.1855
29638W        W47162  10.402  10.655  15.761  0.0823  0.0019  0.0366
29639W        W47163  17.759  11.669  13.895 -0.0647  0.1920  0.4310
29640W        W47164   7.284   2.943   1.838 -0.2379  0.0533 -0.3058
29641W        W47165  11.884   6.063  15.128 -0.0428 -0.1102 -0.4274
29642W        W47166  11.430   3.758  15.926 -0.1181 -0.1251 -0.0269
29643W        W47167   2.458  15.870   2.188 -0.2312 -0.2124  0.1604
29644W        W47168   8.440   3.956  11.979 -0.0174 -0.0602 -0.1233
29645W        W47169  11.668  14.757   4.456 -0.0396  0.1359  0.1170
29646W        W47170   1.463  13.133   0.245 -0.0027  0.2734  0.3410
29647W        W47171   9.996  16.650  11.897 -0.3979 -0.1299 -0.0857
29648W        W47172   0.523  17.249  15.497  0.2761 -0.0232 -0.2491
29649W        W47173   4.262   3.391  12.867 -0.2076  0.1725  0.0715
29650W        W47174   0.034  11.808  13.396 -0.0562  0.0032  0.3707
29651W        W47175   5.281   2.434   4.861  0.1806  0.1932 -0.0262
29652W        W47176   7.318  14.821   0.405  0.1430  0.2181 -0.3543
29653W        W47177  11.853   4.103   3.907  0.1118  0.2446  0.1034
29654W        W47178   8.173   5.828   3.915 -0.1130  0.1834  0.0064
29655W        W47179   7.231  12.691  12.828 -0.0468 -0.1231  0.0956
29656W        W47180  17.047   9.738   5.158 -0.0871  0.1247 -0.4129
29657W        W47181   5.080   2.727   2.589 -0.1402 -0.0528  0.1105
29658W        W47182  17.285  17.692   0.043 -0.0772 -0.0836 -0.1512
29659W        W47183   3.090   5.179   1.530 -0.0975  0.0055  0.0062
29660W        W47184   0.911   1.801   4.046 -0.2057  0.2282  0.1113
29661W        W47185  17.119  16.064   1.298  0.0580 -0.1969  0.0462
29662W        W47186   3.725  14.485   4.596 -0.0153 -0.0924 -0.0441
29663W        W47187   8.837  15.804   0.736  0.1995 -0.2483  0.2160
29664W        W47188   7.611  11.424  14.711  0.1078  0.1296  0.0248
29665W        W47189  13.731  14.363  15.149 -0.0359  0.2090 -0.2056
29666W        W47190  17.960  16.337  11.372  0.1917 -0.2666  0.0787
29667W        W47191   7.974  10.097   1.317 -0.1277 -0.2017  0.2538
29668W        W47192   0.684  17.940   0.342  0.0383 -0.2405  0.1141
29669W        W47193  14.269  17.787  14.764 -0.0798  0.1894  0.1070
29670W        W47194  12.188  15.056   0.075 -0.0226 -0.0936  0.2827
29671W        W47195   2.572  11.542   4.840  0.1155 -0.1627 -0.3236
29672W        W47196   7.610  17.589   3.975 -0.1950 -0.4736 -0.0900
29673W        W47197   4.009   1.657  10.716  0.3596  0.0628 -0.2217
29674W        W47198  15.189   6.021  11.672 -0.1368 -0.1035 -0.1633
29675W        W47199  13.589   9.660   0.996 -0.1514  0.0426 -0.1022
29676W        W47200   4.932  13.821  15.429  0.0442  0.1817  0.2135
29677W        W47201  17.632   8.450  11.807 -0.0671  0.0354  0.1534
29678W        W47202   9.575   6.149   4.520 -0.2791  0.1595 -0.1363
29679W        W47203   0.720   5.092  12.593 -0.0852  0.0574  0.1304
29680W        W47204  16.474  13.541  14.229 -0.1286  0.3057  0.0180
29681W        W47205   0.297  17.901   2.093 -0.0891 -0.0383 -0.0661
29682W        W47206   0.048   6.562  11.718  0.0262 -0.1854 -0.0678
29683W        W47207   6.275  16.886   1.772 -0.1923  0.3020 -0.1297
29684W        W47208   8.524   2.986  11.888 -0.0996  0.2234 -0.0281
29685W        W47209  15.386   2.113  15.902  0.1464 -0.2548  0.0499
29686W        W47210  16.647  12.707   2.530  0.0879 -0.0069  0.0135
29687W        W47211   0.318   4.273   0.451 -0.0724  0.0679  0.2876
29688W        W47212   8.530   2.520  14.620 -0.0427  0.0452  0.1836
29689W        W47213   4.621  17.587   2.812  0.0319 -0.0826  0.0580
29690W        W47214  11.827  17.022   3.117 -0.1615  0.1492 -0.0717
29691W        W47215   0.705  12.443   3.254  0.0974  0.2393 -0.2337
29692W        W47216   3.882  17.113   4.287 -0.0793  0.2812  0.0156
29693W        W47217   6.125   2.753   6.054 -0.0837  0.0821 -0.0199
29694W        W47218   4.530  12.033   4.423 -0.0683  0.1137  0.0550
29695W        W47219  16.086  10.277  13.940 -0.0579  0.2171  0.2409
29696W        W47220  12.890  16.222  12.212  0.1137  0.0733 -0.0421
29697W        W47221  17.205   7.166   5.918 -0.0029 -0.1117 -0.0098
29698W        W47222   6.157  13.673  14.895  0.0053  0.0767 -0.0738
29699W        W47223   2.146   3.780   2.940 -0.1295 -0.0915  0.1110
29700W        W47224   6.871   2.063  15.371  0.0106  0.0368 -0.3031
29701W        W47225   2.557  12.659   1.726 -0.0635 -0.1760  0.0332
29702W        W47226  12.518  16.757  12.822  0.2105 -0.1351  0.2486
29703W        W47227   8.960   3.291   1.958 -0.1641 -0.1296 -0.2684
29704W        W47228   2.908  13.169   0.299  0.3143 -0.2407  0.1839
29705W        W47229   4.032  17.753  15.392  0.0620 -0.2732 -0.2772
29706W        W47230   0.477  11.289   6.115 -0.0402 -0.1592  0.1500
29707W        W47231   1.944  10.320   2.036  0.0829 -0.0399 -0.1063
29708W        W47232  14.337  11.799  15.276  0.0870 -0.0262 -0.1995
29709W        W47233  12.216   1.042   1.618  0.0908  0.4252 -0.0889
29710W        W47234   1.221  11.851  13.392  0.2484  0.0828  0.0482
29711W        W47235   4.486  10.231  12.083  0.3946  0.2443  0.0366
29712W        W47236   9.188  15.354  15.501  0.0253  0.1862 -0.3468
29713W        W47237   9.410   9.269  15.231 -0.0048  0.0979  0.0523
29714W        W47238   0.942   3.023  15.706  0.0247 -0.1425  0.0054
29715W        W47239  16.274   9.136   3.473  0.3204  0.2580  0.1927
29716W        W47240  13.633  15.085   2.049  0.0824 -0.1098 -0.0811
29717W        W47241   2.341   6.183   3.095 -0.1734  0.1584 -0.0352
29718W        W47242  14.833   6.004  16.065 -0.1669  0.0959  0.0109
29719W        W47243   0.440  17.002   2.256 -0.0150  0.0639  0.3119
29720W        W47244   4.467   0.242   3.105 -0.0028 -0.2970  0.2477
29721W        W47245   3.207  14.932   4.114 -0.0400  0.3863  0.0950
29722W        W47246   4.513  16.000  11.287 -0.1791 -0.1664 -0.0708
29723W        W47247   9.285   6.246   0.107  0.2104  0.0953  0.0766
29724W        W47248  17.611  11.351  11.777 -0.1694 -0.0116  0.1626
29725W        W47249   8.105   2.629   0.789  0.2492 -0.0077 -0.0726
29726W        W47250   0.171   7.865  15.872  0.0815  0.1633  0.2879
29727W        W47251  14.502   1.544   0.265  0.3142 -0.0358 -0.1272
29728W        W47252   6.414   3.115  15.439  0.1389 -0.2281 -0.0366
29729W        W47253   6.349  17.529   0.595 -0.0723 -0.0371 -0.0566
29730W        W47254   6.690   9.439  12.203  0.1892  0.1710 -0.1259
29731W        W47255   4.727   8.315   0.385  0.1717  0.1281 -0.2160
29732W        W47256   3.728   5.590  13.428 -0.2320 -0.0793 -0.0557
29733W        W47257  10.083  17.538   0.931 -0.0728  0.0399  0.1976
29734W        W47258  10.179   2.254   4.723  0.3322 -0.0405  0.2150
29735W        W47259   7.126  17.540   4.772 -0.0836 -0.0035  0.1897
29736W        W47260  14.078   8.718  13.707  0.0183  0.1646  0.0067
29737W        W47261   7.716   3.835  13.434 -0.0607 -0.1100  0.0478
29738W        W47262   6.192  13.691  14.366  0.1638  0.1155  0.0270
29739W        W47263   7.007   3.703   1.606  0.2358 -0.1238 -0.1091
29740W        W47264   7.426   5.035   4.518 -0.0144  0.2850  0.1345
29741W        W47265   0.205   8.117  14.585 -0.0478 -0.0613  0.1047
29742W        W47266  16.876   3.553   3.711 -0.0364 -0.3131 -0.0964
29743W        W47267   2.472  15.397  13.261 -0.1442  0.0329 -0.2302
29744W        W47268   4.418  14.441  13.899  0.0037  0.0684 -0.2358
29745W        W47269   0.713   5.193  14.718  0.4188 -0.0870  0.0963
29746W        W47270   5.250   6.639   4.227  0.1428 -0.0786  0.0941
29747W        W47271   2.690  10.890  15.707  0.3754 -0.1078  0.1811
29748W        W47272   6.620   3.131   1.002  0.0992 -0.0953 -0.1310
29749W        W47273   0.459   0.405   4.417 -0.0475 -0.0592  0.1652
29750W        W47274  15.337  14.047  12.886 -0.3213 -0.5224 -0.0934
29751W        W47275   2.146   1.720   5.500 -0.1874  0.1471  0.4290
29752W        W47276  11.787   0.066   2.839 -0.0846 -0.2050 -0.3462
29753W        W47277  12.949  12.404   1.307  0.1223 -0.0917  0.0018
29754W        W47278   0.084  13.467   3.774 -0.0079  0.0241 -0.0159
29755W        W47279  15.087   4.702   4.540  0.2366  0.0798  0.0722
29756W        W47280  12.917   8.231   4.658 -0.0997 -0.4236 -0.0899
29757W        W47281   4.763   0.242   2.142  0.1471 -0.0440 -0.1136
29758W        W47282   1.167   1.610   1.743 -0.1391 -0.1207  0.2042
29759W        W47283   2.382   7.346   2.489 -0.1113  0.1939  0.1603
29760W        W47284   0.346   8.772  11.339 -0.0785  0.2090  0.2859
29761W        W47285   8.739   2.779  12.315  0.0374 -0.1335  0.2276
29762W        W47286   6.642   1.345  13.803  0.1732  0.1264 -0.1983
29763W        W47287  11.711  14.432   0.419 -0.1283 -0.1390 -0.3110
29764W        W47288  12.817   5.388  11.822 -0.2418 -0.3983  0.2323
29765W        W47289  15.365  11.135   4.681  0.0890  0.3066  0.1617
29766W        W47290   0.297   8.366  12.382  0.2357  0.1341 -0.2882
29767W        W47291   5.776   9.476   4.692  0.0106 -0.0218  0.0755
29768W        W47292   8.250  14.492  15.427  0.1949  0.1601  0.2081
29769W        W47293   4.174  14.137   2.375 -0.0042  0.1868  0.3266
29770W        W47294  15.973   4.904   1.438  0.1809  0.0644 -0.3118
29771W        W47295   2.402   4.150   4.433 -0.0460  0.2798 -0.1160
29772W        W47296   1.056  15.562  15.567 -0.2605  0.0943 -0.0380
29773W        W47297  10.493  11.916   5.273 -0.4527 -0.0984 -0.1857
29774W        W47298   3.010   7.789   2.097  0.0574 -0.0497  0.1432
29775W        W47299   6.467   9.376  13.496  0.1979 -0.1401 -0.0342
29776W        W47300   3.820   9.696  12.926  0.1703 -0.0625  0.0501
29777W        W47301   3.329   7.973  16.111 -0.2065  0.3174  0.1902
29778W        W47302   4.182  14.805   4.002  0.0950 -0.1749 -0.1064
29779W        W47303   4.135   0.521  11.330 -0.0885  0.0327 -0.1966
29780W        W47304   7.597  13.888  12.385  0.3385  0.0922  0.1162
29781W        W47305   7.013   1.764  13.807 -0.0663 -0.2292  0.0887
29782W        W47306   6.283   7.655  15.194 -0.1870 -0.0592 -0.2208
29783W        W47307   3.830  15.766   4.292 -0.0047  0.0380  0.1357
29784W        W47308   1.043   6.592   0.322 -0.1556  0.2739 -0.0440
29785W        W47309  14.570  12.611   2.549 -0.0168 -0.3582  0.1293
29786W        W47310  13.250  11.470   5.348  0.0551  0.4858 -0.0582
29787W        W47311  15.014   8.177   4.659 -0.0374 -0.3161 -0.2315
29788W        W47312  16.292  17.145  14.788  0.0165 -0.1899  0.1960
29789W        W47313  10.080  12.256   2.325 -0.2102 -0.1004 -0.4400
29790W        W47314   0.033   1.714  14.790 -0.0850  0.0534 -0.0776
29791W        W47315   5.269  16.758   4.298  0.0149 -0.4891 -0.0924
29792W        W47316   5.043   4.030   4.682  0.0893  0.0997 -0.4309
29793W        W47317  14.472   0.143   0.323 -0.1149  0.0624  0.2011
29794W        W47318   3.325  13.204   1.499  0.0269 -0.1117 -0.1088
29795W        W47319  11.457  15.966   3.911  0.3002  0.2045 -0.0034
29796W        W47320  11.033   3.478  14.698  0.2418  0.1032  0.3163
29797W        W47321  15.295   8.716   1.375  0.1059 -0.2569  0.0712
29798W        W47322  13.220   5.577   2.214  0.1409 -0.0327  0.0267
29799W        W47323  10.070   7.023   0.474 -0.2015  0.0431 -0.1404
29800W        W47324   8.799  15.241   3.420  0.0137  0.3073  0.4289
29801W        W47325  12.989   5.103   3.344  0.1464 -0.1231  0.2190
29802W        W47326  12.673   3.790   1.704 -0.0661  0.0680  0.3459
29803W        W47327   4.644  10.618   4.972 -0.2006  0.3154  0.2527
29804W        W47328   4.611   1.856   0.507  0.0491  0.1420 -0.0025
29805W        W47329  17.813  15.517  11.466 -0.3703 -0.1980 -0.3638
29806W        W47330   5.786   0.635  14.654  0.3301  0.3197  0.2166
29807W        W47331   0.308   1.659  14.348  0.0018  0.1056 -0.2169
29808W        W47332   3.589   0.544   4.672 -0.2317  0.0234 -0.2676
29809W        W47333  16.352  15.552   2.872 -0.0500  0.0081 -0.2406
29810W        W47334   2.819   6.506  11.429 -0.1483 -0.0521  0.1439
29811W        W47335   6.706  13.394  15.512  0.3298  0.1780  0.1559
29812W        W47336  11.963   2.107  14.493  0.0891 -0.2496 -0.0075
29813W        W47337  15.526  17.606  16.050 -0.3222 -0.1267  0.1700
29814W        W47338  13.188   9.892   4.091  0.0807 -0.0557 -0.0996
29815W        W47339   4.428   9.313   3.400 -0.1823 -0.1785  0.2021
29816W        W47340   0.316   6.101  15.629 -0.3975  0.0007 -0.0370
29817W        W47341   1.209   3.972  12.312 -0.1188 -0.0131 -0.0612
29818W        W47342  10.852  15.338   3.632 -0.0105 -0.4590 -0.1067
29819W        W47343   3.971  17.254  12.057 -0.0337 -0.0202 -0.1208
29820W        W47344  14.858   6.631   3.410 -0.1255  0.1319  0.1021
29821W        W47345   1.513  15.410   1.551  0.2998 -0.1608  0.0226
29822W        W47346   1.425  17.611  11.839 -0.2751  0.0420  0.1380
29823W        W47347   0.467  17.762  12.088  0.0811  0.1415  0.0160
29824W        W47348   2.490  13.710   3.705 -0.0911  0.3581 -0.1182
29825W        W47349   6.137   1.244   2.690 -0.1005  0.1392  0.1254
29826W        W47350   1.184   2.856   3.150 -0.1167  0.2594  0.2335
29827W        W47351  14.743  17.864   4.335  0.1814  0.0634  0.0287
29828W        W47352   0.830  15.636   4.538  0.1289 -0.1449  0.1416
29829W        W47353   9.399   3.610  14.901  0.0470  0.1982 -0.2011
29830W        W47354   1.703   9.849   0.058 -0.1256 -0.0254  0.3859
29831W        W47355  14.053  16.220  11.701  0.1363 -0.1377  0.0188
29832W        W47356  13.200   4.605  11.626  0.0551  0.1215  0.2208
29833W        W47357  11.528   0.289   1.462 -0.1265 -0.3079 -0.0726
29834W        W47358   9.178   6.572   2.607 -0.0664 -0.1235  0.2588
29835W        W47359  16.843  15.445   1.778 -0.4263  0.3666  0.1189
29836W        W47360  12.098   4.070   2.750 -0.1538  0.1151 -0.0955
29837W        W47361  10.172   6.298  14.105  0.0629  0.1086  0.0169
29838W        W47362   9.424  12.159   4.045  0.0459  0.1546  0.2428
29839W        W47363  14.152  15.246  12.741  0.1470  0.0039  0.2357
29840W        W47364  15.481  13.860  10.370  0.1197 -0.1562 -0.1192
29841W        W47365  12.272   9.927   0.256 -0.0074  0.1119 -0.0882
29842W        W47366  15.983   3.715   0.674  0.1920 -0.0293 -0.0108
29843W        W47367   2.235   6.631   4.828 -0.1678 -0.0197  0.0685
29844W        W47368  13.787  12.107   3.491 -0.2189 -0.1214  0.0431
29845W        W47369   6.750  14.952   4.983 -0.0802 -0.0485 -0.2258
29846W        W47370   3.255  10.926   3.508  0.3342  0.0231 -0.0160
29847W        W47371   9.641  10.898  14.608  0.1037 -0.2230  0.0092
29848W        W47372  10.772  14.076   5.015  0.1066  0.0090  0.0969
29849W        W47373   8.479  17.284   3.129  0.1335  0.0921 -0.2172
29850W        W47374   2.789  12.842   2.459 -0.2126  0.1177 -0.0183
29851W        W47375   2.743   7.021  12.235 -0.2593  0.0989 -0.0782
29852W        W47376   3.796  12.161  11.878  0.0015  0.1787 -0.4279
29853W        W47377   7.539   5.779   1.263 -0.0147 -0.2193 -0.2182
29854W        W47378   2.153   0.512  12.184 -0.2437  0.1297  0.0932
29855W        W47379  12.109   7.863   2.589  0.1097 -0.0433 -0.2418
29856W        W47380  17.812   4.625  12.057  0.0496  0.0310 -0.0442
29857W        W47381   8.414   5.907  13.160 -0.2373 -0.0450 -0.2310
29858W        W47382   6.113   7.185  15.229 -0.4140 -0.1393 -0.1997
29859W        W47383   6.159   8.787   2.902 -0.2346 -0.0708  0.3682
29860W        W47384  12.004  17.020   3.708 -0.3379 -0.0229  0.1794
29861W        W47385   7.026   2.626  11.812 -0.0271 -0.0092  0.2119
29862W        W47386   7.039   5.794   1.028  0.2775  0.1580 -0.2283
29863W        W47387  10.432   9.297  11.572 -0.2167 -0.2114 -0.0127
29864W        W47388  14.177   8.187  12.945 -0.0556 -0.0760 -0.1235
29865W        W47389   6.289  15.284  15.183  0.0446  0.0037 -0.0119
29866W        W47390   2.626   8.888   0.820 -0.2007 -0.0666 -0.0586
29867W        W47391  15.683  16.582   0.524 -0.0065 -0.2070 -0.2069
29868W        W47392  14.370  11.640  12.144 -0.3221 -0.0038 -0.1349
29869W        W47393   7.596  17.873  16.078  0.2935  0.0761  0.0424
29870W        W47394  14.137   3.795   3.692 -0.2262 -0.0414  0.0215
29871W        W47395   9.600   5.432  15.323 -0.1365  0.1753  0.0690
29872W        W47396  16.821  11.072  15.451 -0.0677 -0.2460 -0.0581
29873W        W47397   1.558   1.189  15.922  0.0265  0.1506 -0.1935
29874W        W47398   8.555   3.242   1.634  0.1203 -0.0586  0.4358
29875W        W47399  15.744  17.828  13.250 -0.1649 -0.2914  0.1506
29876W        W47400   2.313   6.136  13.066 -0.1392 -0.1764 -0.2227
29877W        W47401   5.506   3.885  14.320 -0.1448  0.0467 -0.2445
29878W        W47402  15.623   6.731   2.234  0.2481 -0.3029 -0.0682
29879W        W47403   3.205  13.534   3.060  0.3907 -0.1630  0.1391
29880W        W47404   6.817   2.085  12.038  0.1139 -0.2399 -0.2114
29881W        W47405  16.732  11.508  15.681  0.0646 -0.0259 -0.3435
29882W        W47406   2.147  10.974  15.024 -0.0336 -0.0509 -0.0398
29883W        W47407  12.290  12.639  11.503  0.2457  0.1177 -0.1243
29884W        W47408   9.053   0.184   4.497  0.2885  0.2461 -0.0707
29885W        W47409   8.724   7.277   2.245 -0.0942 -0.2935 -0.2908
29886W        W47410  10.915  17.900   4.658  0.3220 -0.2298 -0.0336
29887W        W47411   3.614  15.847   3.006  0.0394  0.1503  0.0141
29888W        W47412   1.814   2.860   3.790  0.3167  0.2699  0.3421
29889W        W47413  10.756  14.247   0.329 -0.0087 -0.0088 -0.1285
29890W        W47414   1.658  11.109   5.083  0.2911 -0.1689 -0.0687
29891W        W47415  12.698   9.258   2.028  0.1241 -0.0093  0.5389
29892W        W47416  11.922   1.583  14.780 -0.0430  0.1477 -0.1661
29893W        W47417  11.079   9.197   5.788  0.0756 -0.0695 -0.0920
29894W        W47418  10.430  12.526   3.616  0.2433 -0.0651  0.1352
29895W        W47419   5.522   6.695   0.033  0.1270 -0.0848 -0.2609
29896W        W47420  10.808   7.912  11.976  0.2741 -0.3782  0.0073
29897W        W47421  16.298  10.484   3.788  0.0637  0.2671 -0.0300
29898W        W47422  15.431   4.228  14.165  0.3192 -0.1281 -0.1872
29899W        W47423   0.324  10.775   5.150 -0.2847 -0.0146 -0.2527
29900W        W47424   7.253   6.788   3.687 -0.1997  0.2111  0.2943
29901W        W47425  16.486   2.145  12.806  0.2292 -0.1226  0.2630
29902W        W47426  10.863   9.619   3.048 -0.0325 -0.1054  0.0620
29903W        W47427  17.357   2.409   2.313 -0.2714  0.2213  0.1374
29904W        W47428   9.891   9.084  13.218  0.1049 -0.1044 -0.5337
29905W        W47429   0.699   0.586  11.539  0.1478 -0.0520  0.1200
29906W        W47430   1.268   9.936  15.706  0.2294 -0.0311 -0.0219
29907W        W47431   4.409  14.828  13.187 -0.0266 -0.1094 -0.2129
29908W        W47432   2.830  17.508  11.966 -0.0581  0.0943 -0.0211
29909W        W47433   7.738  16.757   2.284 -0.0550 -0.1729 -0.1135
29910W        W47434   4.002   6.988   4.821  0.2339 -0.2474 -0.3467
29911W        W47435   2.002  17.235  16.196  0.3478 -0.3560  0.4466
29912W        W47436  15.559  10.656  12.676 -0.0429 -0.0511  0.2125
29913W        W47437   3.765   9.054  11.967 -0.1055 -0.0626  0.2895
29914W        W47438   8.143  17.776  11.665 -0.0316  0.2957  0.0334
29915W        W47439   1.764  12.090   1.872 -0.0150  0.3100 -0.2695
29916W        W47440  14.838  11.653  13.725 -0.2064  0.1635  0.0757
29917W        W47441   5.006  10.413  13.915 -0.0007  0.1976  0.3572
29918W        W47442  16.473   0.877  15.270 -0.1379  0.0812 -0.2033
29919W        W47443   3.646  10.692  12.136 -0.1684 -0.1202  0.2053
29920W        W47444  11.018  11.264  12.236  0.2380 -0.0633  0.1806
29921W        W47445  13.170  12.963   2.971 -0.0886 -0.0464 -0.0066
29922W        W47446   8.533   4.899   3.080 -0.0443 -0.0447  0.0971
29923W        W47447  15.095   0.497  13.577 -0.1806 -0.1846 -0.0624
29924W        W47448   7.256   9.625  13.261  0.0613  0.1182 -0.1298
29925W        W47449   3.450   8.362  12.562 -0.1605 -0.0457 -0.3219
29926W        W47450  10.165   3.419  12.763 -0.4827 -0.0106  0.0242
29927W        W47451   6.843   7.485  12.900  0.3915  0.2428 -0.0529
29928W        W47452  11.135   9.192  15.863  0.0751 -0.0065  0.2905
29929W        W47453   6.402   6.784  14.040  0.3640 -0.1355  0.3123
29930W        W47454  11.366  17.905   1.094  0.0192  0.1740 -0.3180
29931W        W47455   6.551   8.433   2.826  0.3601 -0.0989 -0.0634
29932W        W47456   5.100  14.760   4.496 -0.2558 -0.0473  0.0025
29933W        W47457   3.815   7.592   3.632 -0.1942  0.0404 -0.3421
29934W        W47458   7.023  16.832   4.917 -0.2055  0.0789 -0.0464
29935W        W47459  11.930  15.213   2.925 -0.1137  0.2583 -0.1663
29936W        W47460   9.591   3.168  11.992  0.0268  0.1759  0.1053
29937W        W47461   0.014   5.429   1.409  0.0127 -0.0694  0.0125
29938W        W47462   1.938   2.734  13.161  0.1302 -0.3017  0.0582
29939W        W47463  13.486   7.903   2.886 -0.0983 -0.0447  0.1764
29940W        W47464   9.750  13.315   0.188 -0.0628  0.0214  0.0723
29941W        W47465  17.264   6.888  10.108 -0.1268 -0.0775  0.1196
29942W        W47466   4.293  12.961  15.636  0.1921 -0.1314 -0.2926
29943W        W47467   1.368   4.520  11.504  0.2954 -0.1360 -0.0359
29944W        W47468  13.636   8.398  14.038  0.0779 -0.1763 -0.0417
29945W        W47469  10.776   3.554   0.187  0.0866 -0.2236 -0.0632
29946W        W47470   8.941   3.684  11.173 -0.0136  0.1951 -0.5378
29947W        W47471   9.177   2.299   3.708 -0.0618  0.1517 -0.1508
29948W        W47472   5.059   1.020   4.216  0.0773 -0.3718 -0.0067
29949W        W47473   7.974   6.157   0.082 -0.2319 -0.1893  0.0961
29950W        W47474   4.809  11.917   4.876  0.2268  0.1039 -0.2372
29951W        W47475   8.921   0.198   3.981 -0.1666 -0.1660  0.0365
29952W        W47476   6.316  10.481   0.710 -0.0451  0.1533  0.2303
29953W        W47477   2.133   7.156  12.008 -0.3053 -0.0721 -0.2565
29954W        W47478  14.654   7.619  12.877 -0.0900 -0.1607 -0.1717
29955W        W47479   3.360   1.020   0.224 -0.1644 -0.1087 -0.0191
29956W        W47480   2.787   5.652  15.934  0.0013  0.0049 -0.1140
29957W        W47481   0.765   4.189  11.198 -0.2061  0.2026 -0.1024
29958W        W47482  12.723  12.652  13.680 -0.3137  0.0970 -0.1310
29959W        W47483   6.824   7.995  12.383  0.2144 -0.2474  0.2650
29960W        W47484  13.645  10.485  11.626 -0.1390  0.0760  0.0380
29961W        W47485   8.399  14.163   4.579 -0.0219  0.2389  0.1342
29962W        W47486  16.749  12.307   0.578  0.2696  0.1940  0.1345
29963W        W47487  11.978   2.927  11.043  0.2816 -0.2155  0.0095
29964W        W47488   9.514  12.689   2.769 -0.0231 -0.0995 -0.0231
29965W        W47489  15.669   8.925   1.067 -0.1494 -0.0766 -0.3263
29966W        W47490   6.038  13.045  15.457  0.1064 -0.1752 -0.1235
29967W        W47491   7.436   1.229  14.234  0.2414  0.1071 -0.2630
29968W        W47492   9.495   1.114  12.300  0.1274  0.0172 -0.0592
29969W        W47493   2.097  15.721  13.315  0.0262  0.1078 -0.1113
29970W        W47494   7.326  17.249   5.639  0.0822 -0.5384  0.1510
29971W        W47495  17.014   6.979   0.976 -0.1988 -0.2724  0.1268
29972W        W47496   8.080   1.497  15.903  0.1823 -0.1018 -0.1884
29973W        W47497   9.094   5.888  15.024 -0.1077  0.0267 -0.0820
29974W        W47498   2.613  15.328  11.388 -0.0677  0.1659  0.0620
29975W        W47499   0.060   4.776   0.566  0.0209 -0.0937 -0.0238
29976W        W47500   0.177   8.745   1.730  0.0931 -0.0814  0.2010
29977W        W47501  14.604   1.112  14.011  0.2346 -0.1340  0.3138
29978W        W47502   0.568  13.276  11.322  0.2144  0.0783  0.1686
29979W        W47503   9.078   5.005  12.504 -0.2145  0.0430  0.0879
29980W        W47504   1.211   2.316   2.087 -0.1301 -0.0620  0.0751
29981W        W47505   2.744   3.730   2.012  0.2938  0.3010  0.0404
29982W        W47506  14.680   7.477   1.835 -0.1611 -0.1149 -0.3750
29983W        W47507   6.848  10.492  15.438  0.0011  0.2369 -0.0932
29984W        W47508  10.879  10.081  13.505 -0.1563 -0.0088 -0.1842
29985W        W47509  11.126  17.493  11.432 -0.2944 -0.1328 -0.2823
29986W        W47510  17.823  11.198  13.143 -0.1410 -0.0303  0.0024
29987W        W47511  11.875  11.649  13.781 -0.1196  0.2824  0.1788
29988W        W47512  16.175  12.009  10.878 -0.4557 -0.0336 -0.0252
29989W        W47513  12.286  14.200  16.082  0.1700 -0.4036  0.1005
29990W        W47514  13.490   7.844   0.169 -0.2341 -0.0571  0.0071
29991W        W47515  16.715   2.429  10.747  0.0761  0.2049  0.0237
29992W        W47516  17.591   6.606  13.673 -0.0354  0.0255  0.1031
29993W        W47517  16.401   5.348   2.034  0.1285  0.0082  0.1749
29994W        W47518  12.183  10.630   2.435 -0.0050  0.0894 -0.1003
29995W        W47519   2.926   0.899   1.054 -0.2182  0.0133  0.1920
29996W        W47520   7.011  11.022  15.467  0.0913 -0.2016  0.1197
29997W        W47521  14.298   6.356  11.700  0.0671  0.2614 -0.0731
29998W        W47522   1.529   1.640   5.664 -0.0519  0.1201  0.1565
29999W        W47523   8.388  15.407   5.521 -0.0610  0.0598  0.0370
30000W        W47524   7.068   2.471   1.059  0.1325 -0.1240 -0.1347
30001W        W47525  17.901   3.486  11.065 -0.0515  0.3177  0.2483
30002W        W47526  13.684  13.241   2.777  0.0358 -0.0883  0.3103
30003W        W47527  17.059  17.955  14.516  0.3292  0.2526  0.0835
30004W        W47528   8.136   7.973   1.749  0.2139 -0.1653  0.0944
30005W        W47529  12.096  15.539   2.128 -0.2313 -0.1167  0.0261
30006W        W47530   8.861   9.671  14.137 -0.0882 -0.1077 -0.1085
30007W        W47531  12.501   0.124   5.095 -0.1225 -0.2659  0.0564
30008W        W47532   8.083  11.252   3.914 -0.1689  0.0941 -0.1929
30009W        W47533  17.952  11.739   1.762 -0.1084  0.1013 -0.1336
30010W        W47534   7.592   0.524  12.632  0.0923 -0.0550 -0.1128
30011W        W47535   8.363   4.686  14.936 -0.1712 -0.1769  0.1133
30012W        W47536  16.630   7.557   1.713  0.0812  0.1581  0.0912
30013W        W47537  14.555   5.069  13.947  0.0292 -0.1930 -0.2839
30014W        W47538  12.915  14.971  14.321  0.0017  0.0925  0.2742
30015W        W47539  12.374   8.438  14.833  0.0763  0.2420  0.1970
30016W        W47540  12.902  12.344  12.796  0.2783 -0.2173  0.0392
30017W        W47541  15.844   8.541  13.379  0.1133  0.1218 -0.0449
30018W        W47542  12.530   3.696  12.894  0.2233  0.0124  0.0603
30019W        W47543  16.763  17.371   3.808 -0.0106  0.1368  0.1739
30020W        W47544   3.434   1.412  16.131  0.0358  0.0003  0.4454
30021W        W47545  14.493  10.488   2.563  0.0924 -0.0398  0.1625
30022W        W47546   6.336  10.043  12.920 -0.0295 -0.3534 -0.0099
30023W        W47547  12.424  10.157  15.487 -0.0375  0.1734  0.1735
30024W        W47548  16.117  12.544  14.165  0.0254  0.1166 -0.0510
30025W        W47549  16.534  15.901   1.076 -0.1867  0.0351 -0.0672
30026W        W47550   0.626  14.792   3.652 -0.2489 -0.0448 -0.0287
30027W        W47551   0.304   2.664  15.216 -0.0686  0.1284 -0.1119
30028W        W47552   6.592  12.723   3.763 -0.1708 -0.2593  0.0358
30029W        W47553   6.953  16.366   2.335 -0.1474 -0.0304 -0.3283
30030W        W47554  11.341  14.110   2.796  0.1340 -0.2214  0.2921
30031W        W47555   2.882  14.582   2.254 -0.1463  0.3058  0.1924
30032W        W47556  16.574   6.637   3.143  0.0022 -0.1903 -0.2797
30033W        W47557  12.467  17.141   2.034 -0.0505 -0.0214 -0.2849
30034W        W47558  16.772   6.992  14.204 -0.1039 -0.0084  0.1195
30035W        W47559  17.874   8.479   2.701 -0.2006  0.1479 -0.3015
30036W        W47560   0.904   1.726  14.480  0.1064 -0.0403 -0.1153
30037W        W47561   4.177   7.923   5.026 -0.1748  0.0718  0.0710
30038W        W47562  15.702   5.804  14.597 -0.0435  0.1159 -0.4524
30039W        W47563  17.765   4.091  12.125  0.0311 -0.1995  0.1086
30040W        W47564   1.691  13.818   2.033  0.0111 -0.0387 -0.2240
30041W        W47565  13.349  10.197  15.232 -0.0722  0.3835 -0.1074
30042W        W47566  15.663   3.138   4.318 -0.0725 -0.0285 -0.1050
30043W        W47567   9.083  11.088  11.624 -0.2707  0.0812 -0.0176
30044W        W47568   8.897  15.898  12.159 -0.1443 -0.0168  0.2322
30045W        W47569   1.522  17.329   0.611 -0.3062 -0.0067 -0.3022
30046W        W47570   9.291   2.814  16.076  0.1234 -0.1434 -0.0229
30047W        W47571  10.219  11.775   2.472  0.3626  0.0431 -0.0654
30048W        W47572  14.968   9.307  15.554 -0.1595  0.2682  0.0471
30049W        W47573  11.070   6.265  15.904  0.1425 -0.1588 -0.1775
30050W        W47574  13.307  16.484  13.842  0.1313  0.3767 -0.0525
30051W        W47575  14.628  12.988  11.290 -0.2259 -0.0695 -0.0751
30052W        W47576   8.570  17.141  15.116 -0.2330  0.1459 -0.1050
30053W        W47577   5.277   0.480  15.334  0.1003 -0.0383  0.2651
30054W        W47578  16.332   9.526  15.867 -0.0357 -0.1086  0.1926
30055W        W47579   9.216  14.093  13.253 -0.1503  0.0350  0.2112
30056W        W47580  15.355   6.329   3.220 -0.0557  0.1005 -0.1652
30057W        W47581   6.196  16.833  12.300  0.0390  0.0277  0.0371
30058W        W47582  15.343  13.039   2.097  0.0498 -0.2164 -0.1623
30059W        W47583   8.063  17.235  15.128 -0.1173  0.0157  0.1807
30060W        W47584   5.746   7.672   3.692  0.1417  0.1597  0.2742
30061W        W47585   5.492   3.385   1.247  0.1561  0.4187  0.0729
30062W        W47586  15.617   1.202   3.915  0.0434  0.0747  0.0411
30063W        W47587  13.034  11.381  10.233 -0.0974 -0.0408  0.2782
30064W        W47588   3.516   4.979  11.389  0.2396 -0.1397 -0.2231
30065W        W47589   5.585   1.648   1.368  0.1585 -0.1548 -0.0322
30066W        W47590   0.916   8.642   4.237 -0.1205 -0.0873  0.1622
30067W        W47591  14.143   9.909  12.409  0.0171 -0.1126  0.0638
30068W        W47592   4.134   2.590  15.826  0.2175 -0.0592 -0.0292
30069ION     NA47593  14.715   7.747   4.903  0.1735  0.0815  0.0332
30070ION     NA47594   0.390  15.069  13.446 -0.0370 -0.0163 -0.1814
30071ION     NA47595  16.881   0.177   4.396 -0.0759 -0.0611  0.3384
30072ION     NA47596  12.744   9.329   3.473 -0.1556 -0.1398  0.1749
30073ION     NA47597   7.920   5.160  14.175  0.1165  0.3173 -0.0760
30074ION     NA47598   2.136  17.503   2.558 -0.3203 -0.0532 -0.2636
30075ION     NA47599  16.811  17.873   5.697 -0.0451 -0.0437 -0.1324
30076ION     NA47600   0.803   0.035   5.693 -0.4340 -0.1641 -0.2242
30077ION     NA47601  13.442   7.299  10.406  0.0663  0.2529 -0.1077
30078ION     NA47602   7.204  11.135   1.641  0.0652  0.1587  0.2440
30079ION     NA47603  16.217  12.274  10.463 -0.2115  0.0313  0.2596
30080ION     NA47604   4.773   4.970   6.006  0.1060 -0.0214  0.2261
30081ION     NA47605  14.668   9.377  10.570  0.1746  0.2302  0.3522
30082ION     NA47606  11.180  10.307   5.390 -0.1344  0.1840  0.2981
30083ION     NA47607   1.037   3.704  15.215 -0.2621  0.2437  0.1351
30084ION     NA47608   2.912  12.243  10.968  0.1439 -0.0630  0.1552
30085ION     NA47609   8.421  12.479  10.687 -0.6251 -0.0360  0.0671
30086ION     NA47610  11.189  12.523  10.642  0.1662  0.2423  0.0164
30087ION     NA47611   2.319   1.633   5.934 -0.2003  0.2565 -0.1775
30088ION     NA47612  14.409   2.796  12.850  0.0380 -0.1429  0.0861
30089ION     NA47613   3.173   6.016   6.180  0.2811 -0.0621 -0.0639
30090ION     NA47614  10.121   8.016   5.578 -0.1163 -0.3487  0.0504
30091ION     NA47615  12.633   0.940  10.494 -0.1815  0.1556 -0.2008
30092ION     NA47616   1.323   1.238   5.936  0.2049 -0.3001 -0.0699
30093ION     NA47617  14.255  11.648   5.545  0.1865  0.1209 -0.0762
30094ION     NA47618   0.003   6.325  16.021 -0.1343  0.0004  0.0132
30095ION     NA47619  15.403   6.821  10.286  0.0171  0.1239  0.0211
30096ION     NA47620  12.532  16.232  10.625 -0.1220 -0.3134  0.2019
30097ION     NA47621  14.764  16.710  15.559  0.1319 -0.0082  0.0661
30098ION     NA47622  17.120  13.282   1.661  0.1380 -0.1624 -0.1400
30099ION     NA47623   5.526   8.409   5.858 -0.0816  0.0970  0.0096
30100ION     NA47624  14.041   4.210   5.851 -0.1122 -0.3621 -0.0563
30101ION     NA47625  15.486   6.992   0.485  0.0848  0.3123 -0.0544
30102ION     NA47626  16.210   6.745  14.977 -0.0491  0.1014 -0.0439
30103ION     NA47627   8.098   0.865  13.803 -0.1490 -0.0682  0.1572
30104ION     NA47628  12.963   5.936   1.053  0.0776  0.0383 -0.2990
30105ION     NA47629  11.196  14.730   5.953  0.0620  0.2289  0.2297
30106ION     NA47630   2.086   7.945  15.684  0.0180 -0.2957 -0.1991
30107ION     NA47631   1.454   3.762   5.780  0.2612 -0.0057  0.1989
30108ION     NA47632   8.604   1.795  12.702 -0.1225  0.0051  0.0985
30109ION     NA47633   3.093  16.395   1.067  0.0869  0.0910 -0.2398
30110ION     NA47634  17.718  12.652  10.309  0.2114  0.2284  0.1450
30111ION     NA47635  14.636  17.698  10.349 -0.1449  0.4144 -0.1949
30112ION     NA47636   0.665   3.783   1.659 -0.0890 -0.2971 -0.0144
30113ION     NA47637   5.996  10.536   5.993  0.1389 -0.4143  0.1092
30114ION     NA47638  17.280   2.296   5.742  0.0890  0.0053 -0.0038
30115ION     NA47639   7.676  14.433  10.723 -0.4260  0.3870  0.3519
30116ION     NA47640   5.503   7.048   2.370 -0.2603  0.2716 -0.3273
30117ION     NA47641  13.140   2.562   5.436  0.1315  0.0838  0.1810
30118ION     NA47642   1.251  13.802  14.259 -0.1210  0.0132 -0.1675
30119ION     NA47643  15.283  13.301   4.083 -0.0230  0.0239  0.3172
30120ION     NA47644   4.992  17.922   5.763 -0.0954  0.1453 -0.0475
30121ION     NA47645   2.704  11.357  10.765  0.2062  0.0397 -0.0609
30122ION     NA47646   3.089   3.924  13.878  0.1077  0.1299  0.3773
30123ION     NA47647   2.746   4.646   1.576 -0.1519  0.0115  0.4256
30124ION     NA47648  14.542   0.786  12.192  0.0655 -0.0553  0.0255
30125ION     NA47649   8.985  15.884  15.842 -0.0462  0.0426  0.0932
30126ION     NA47650   0.511  17.242   4.613  0.0195 -0.0156  0.1281
30127ION     NA47651   8.220  13.632   6.240 -0.0829  0.1596  0.0104
30128ION     NA47652  10.139  16.862  10.206 -0.0710 -0.0222 -0.2205
30129ION     NA47653  11.479  14.975  10.570  0.0468  0.0220 -0.1727
30130ION     NA47654  10.577  11.261   3.977  0.1882 -0.3792 -0.1141
30131ION     NA47655   9.203   5.144   5.592 -0.0484 -0.1710 -0.1131
30132ION     NA47656  16.207   9.181  10.312  0.1134  0.2907  0.0579
30133ION     NA47657  17.713   2.639   5.711 -0.0700  0.0915  0.5314
30134ION     NA47658   9.614  15.554   5.277 -0.1549  0.3257 -0.0200
30135ION     NA47659   1.055   0.587   4.730 -0.0940 -0.2199  0.4150
30136ION     NA47660   6.523   8.551  11.670  0.0681 -0.2679  0.0315
30137ION     NA47661   8.157  17.414  13.111 -0.0793 -0.1048 -0.2218
30138ION     NA47662  10.412  15.495  10.647  0.0853  0.1048  0.4070
30139ION     NA47663   9.229  12.984   4.013  0.1377  0.0041 -0.0926
30140ION     NA47664  14.741   4.360   4.198 -0.0811 -0.6986 -0.1714
30141ION     NA47665  10.337   5.629   3.094  0.1182  0.0347  0.0658
30142ION     NA47666   5.100   2.911  12.372 -0.2032 -0.0734  0.2604
30143ION     NA47667   0.412   4.540   5.489 -0.0682 -0.1729 -0.1206
30144ION     NA47668  16.919   8.791  10.482  0.1334  0.1712 -0.0483
30145ION     NA47669   8.616   9.379   1.074  0.1351  0.1527  0.3153
30146ION     NA47670  13.766   9.600  13.988 -0.2454 -0.1702  0.1414
30147ION     NA47671  17.268  10.005   5.942 -0.1523 -0.1617  0.0485
30148ION     NA47672  15.874  10.598   5.626  0.2761 -0.2513 -0.1863
30149ION     NA47673   7.553  13.794   4.624  0.0324  0.3470 -0.0879
30150ION     NA47674   2.487  13.624  15.716 -0.1595 -0.1076 -0.0227
30151ION     NA47675   7.680  13.667   2.052  0.1427 -0.0317 -0.1391
30152ION     NA47676   8.929   2.904  13.358 -0.1012  0.0401 -0.3319
30153ION     NA47677   7.813  12.549  15.810 -0.1013  0.4959 -0.0103
30154ION     NA47678   3.739   8.022  10.660 -0.2035  0.0051 -0.2425
30155ION     NA47679   0.412  13.957  10.713 -0.0079 -0.0575 -0.2093
30156ION     NA47680  11.091   6.413   2.933 -0.1453  0.2695 -0.0637
30157ION     NA47681   5.618   5.290   4.133 -0.2324 -0.0948  0.1515
30158ION     NA47682  15.480   1.592   5.560 -0.2335 -0.0895 -0.3361
30159ION     NA47683   0.498  17.667   2.998  0.1063  0.4388 -0.0317
30160ION     NA47684  11.856   7.800  10.252 -0.0835  0.1767  0.1720
30161ION     NA47685   5.537   1.943   5.648 -0.1121 -0.0171  0.1231
30162ION     NA47686   0.500   5.174  13.039 -0.0952 -0.1074 -0.1535
30163ION     NA47687   4.207   0.327   5.805  0.2415  0.2446  0.0664
30164ION     NA47688   0.545   1.542   5.578  0.4429  0.1576 -0.1675
30165ION     NA47689   8.428   1.371   0.452  0.1280  0.1847  0.3560
30166ION     NA47690   9.594   6.236  10.336  0.0964  0.0163 -0.0375
30167ION     NA47691   3.802  12.021   1.922  0.1372 -0.2653 -0.0223
30168ION     NA47692  11.438  17.504  10.679  0.2872 -0.0417 -0.0730
30169ION     NA47693  11.847  10.883  14.649 -0.0911  0.0213  0.1658
30170ION     NA47694   1.866   6.793   2.081  0.2573  0.1225 -0.1476
30171ION     NA47695  16.537   1.978  10.655 -0.0841  0.0504  0.1478
30172ION     NA47696  16.449   0.195   0.880 -0.0491 -0.2689  0.0398
30173ION     NA47697  12.106   1.072   0.939  0.3031  0.0476 -0.0302
30174ION     NA47698  17.574  17.646   4.852 -0.2097 -0.0349  0.0150
30175ION     NA47699   7.256   5.264   2.090  0.2156  0.0752 -0.2346
30176ION     NA47700  13.427   6.582   5.156 -0.1946  0.0376  0.0084
30177ION     NA47701  16.166   4.688  13.742 -0.1997  0.1184  0.6079
30178ION     NA47702  10.502   2.370  15.235 -0.1068  0.1854  0.3087
30179ION     NA47703  10.981  16.657   0.797  0.0650 -0.0156  0.2300
30180ION     NA47704  11.791  16.171  14.138 -0.1663 -0.1537  0.0811
30181ION     NA47705   6.926   9.300   1.330  0.0691 -0.0516  0.2411
30182ION     NA47706   7.280  16.503  12.618  0.1322 -0.2074 -0.0410
30183ION     NA47707  11.900   3.683   2.539  0.1809 -0.2257  0.2618
30184ION     NA47708   9.529   3.968   4.985 -0.2240 -0.0488  0.0046
30185ION     NA47709   9.958   6.710  15.385 -0.0283  0.3653  0.1034
30186ION     NA47710   7.646   0.116  10.986  0.0911  0.3287  0.0283
30187ION     NA47711   9.962  14.976   0.465  0.1243 -0.0483 -0.0857
30188ION     NA47712   4.505  12.612  10.911  0.1720  0.1046  0.0259
30189ION     NA47713   7.799  10.362  10.758 -0.4198 -0.3457  0.0370
30190ION     NA47714   8.174   3.563  12.226 -0.0067  0.2078 -0.1949
30191ION     NA47715   2.348   3.634   0.691 -0.1123 -0.0237  0.0838
30192ION     NA47716  16.085  14.422   1.020 -0.2078 -0.0970 -0.1911
30193ION     NA47717   3.640   6.957  13.463  0.0406 -0.1043 -0.3508
30194ION     NA47718  10.330  13.997   0.515 -0.2164  0.1275  0.2412
30195ION     NA47719   5.671   2.295   1.878  0.1688  0.0867  0.0958
30196ION     NA47720   4.060   7.022  10.877  0.0490  0.2537  0.0008
30197ION     NA47721  14.637  15.434  10.592 -0.2331  0.0960  0.0586
30198ION     NA47722  10.934  11.966  11.138  0.0123  0.0680 -0.0290
30199ION     NA47723   3.517  13.894   0.255  0.3696  0.0154  0.0099
30200ION     NA47724  10.266   1.539  10.599  0.4403  0.2703 -0.3158
30201ION     NA47725  13.387   5.669   2.662 -0.3390  0.2945  0.0613
30202ION     NA47726   6.971  17.611  10.753 -0.0049 -0.0566  0.0303
30203ION     NA47727  13.400  13.491   3.048 -0.3667 -0.3382  0.1334
30204ION     NA47728  14.011  10.858  11.193  0.3652  0.0894 -0.0166
30205ION     NA47729  16.538   5.424  10.581  0.1088 -0.0879  0.0182
30206ION     NA47730  10.056   9.136  10.576  0.0927 -0.0828 -0.1917
30207ION     NA47731   6.406  10.901   0.468  0.3381 -0.0628 -0.1635
30208ION     NA47732   2.319  14.158  10.778  0.1368  0.0735 -0.2332
30209ION     NA47733   6.649   3.690  10.482 -0.0503 -0.1217 -0.0684
30210ION     NA47734   4.163   5.768   1.509  0.0203 -0.1222 -0.1137
30211ION     NA47735   2.126   0.373  10.702  0.1708  0.0717 -0.0183
30212ION     NA47736   1.165   0.811  10.552  0.2579 -0.2854  0.1810
30213ION     NA47737   4.243   7.557   2.769 -0.0608  0.1477  0.1411
30214ION     NA47738   0.331   2.898  10.559  0.1708 -0.0238 -0.0205
30215ION     NA47739   8.388   9.007  10.607 -0.1788  0.1801 -0.1903
30216ION     NA47740   2.274   5.287  10.744 -0.0698  0.0957 -0.3015
30217ION     NA47741   5.746   4.870  10.474  0.2618  0.0824  0.0190
30218ION     NA47742   3.340   3.320  10.602  0.2205 -0.3375 -0.2164
30219ION     NA47743   4.285  12.829  13.235 -0.2257 -0.0354  0.1164
30220ION     NA47744   7.351   9.827   6.121  0.2701  0.4266  0.2798
30221ION     NA47745  13.118  10.908  10.363  0.3643 -0.0738  0.0041
30222ION     NA47746  16.258   7.572   3.114  0.1493  0.1344 -0.0979
30223ION     NA47747   9.473  12.754  14.818 -0.0022  0.2400 -0.0024
30224ION     NA47748   3.420  12.347   2.650 -0.0004  0.0744 -0.2733
30225ION     NA47749  16.052  17.699   5.379 -0.1495  0.1027  0.0838
30226ION     NA47750   6.608  15.718   5.975  0.0651  0.1343 -0.0114
30227ION     NA47751   4.636   0.072   2.592 -0.0831  0.1239 -0.2282
30228ION     NA47752   4.648  14.254   6.146 -0.1671  0.0553  0.0580
30229ION     NA47753   5.872  14.007   1.448  0.1732 -0.1848  0.0075
30230ION     NA47754  11.304  11.332  10.865 -0.0712 -0.2601 -0.0428
30231ION     NA47755  12.102   9.210  13.421 -0.1310 -0.1005  0.1001
30232ION     NA47756   5.186   9.512   2.903  0.1263 -0.3156 -0.1044
30233ION     NA47757   9.562  15.223   6.173 -0.2040  0.0272 -0.0021
30234ION     NA47758   3.391   0.544   5.786 -0.2211  0.0199  0.1302
30235ION     NA47759   1.729   8.403   2.766 -0.0026  0.0724 -0.1302
30236ION     NA47760  11.064  15.643   5.870  0.1409 -0.1746 -0.0814
30237ION     NA47761   5.744  16.832   4.255  0.2726 -0.1883  0.0772
30238ION     NA47762  17.500   7.110  10.541 -0.0934  0.0085  0.3063
30239ION     NA47763  15.666   2.418  16.245  0.1758 -0.0710  0.3079
30240ION     NA47764  14.276  15.536  13.133 -0.0134 -0.1000 -0.3259
30241ION     NA47765  12.846  14.231   5.624 -0.0171 -0.1284 -0.0443
30242ION     NA47766  13.103   4.131   5.570  0.2434 -0.1215 -0.0110
30243ION     NA47767  14.079   6.561   4.457 -0.1775 -0.0566 -0.1376
30244ION     NA47768   5.506  12.043   1.257  0.1917  0.0699 -0.0048
30245ION     NA47769  15.118  12.840   5.677  0.1941 -0.0238 -0.0935
30246ION     NA47770   8.736   7.353   5.535 -0.1034 -0.2872 -0.0709
30247ION     NA47771  12.963  11.078  16.123  0.2607 -0.0728 -0.1871
30248ION     NA47772   6.405   9.914   0.539 -0.2160  0.2770  0.0544
30249ION     NA47773   4.775   9.497   0.254 -0.1271  0.2317 -0.4492
30250ION     NA47774   5.359   3.589   5.564  0.1738 -0.0740 -0.0649
30251ION     NA47775   1.200   9.664  13.210 -0.3736 -0.2207  0.0078
30252ION     NA47776   1.618  13.906  11.887 -0.0452 -0.1446  0.1335
30253ION     NA47777  16.752   6.288   5.881  0.2562 -0.2512  0.0111
30254ION     NA47778  14.635   8.450  14.660  0.0712  0.0659  0.1460
30255ION     NA47779  14.916  13.529  14.038  0.2423 -0.0754 -0.2219
30256ION     NA47780   2.622  11.588   0.042  0.0348 -0.0850 -0.1969
30257ION     NA47781  14.670   1.325  10.413 -0.2170 -0.5087 -0.2431
30258ION     NA47782   4.223  11.878   6.072  0.0902 -0.0407  0.2361
30259ION     NA47783  17.844  14.149   0.194 -0.1286 -0.0650 -0.0246
30260ION     NA47784  17.931  12.135  13.776 -0.0703 -0.1251 -0.1109
30261ION     NA47785   3.209   5.696   3.346  0.0786 -0.0053  0.0768
30262ION     NA47786  17.607  15.783  10.599  0.0012 -0.0822  0.2768
30263ION     NA47787  16.792  15.035  10.538 -0.1704 -0.0722  0.1677
30264ION     NA47788   3.206  17.633   5.989  0.3717 -0.0997 -0.1461
30265ION     NA47789   3.477   0.667  14.498  0.1099 -0.1049 -0.1503
30266ION     NA47790   5.478  14.076   3.003  0.2898  0.0349  0.0300
30267ION     NA47791   8.822  14.829   6.089  0.0170  0.2037  0.0095
30268ION     NA47792   8.979   7.049  12.514 -0.1709  0.2342 -0.3251
30269ION     NA47793  11.223   1.627  10.363 -0.0266  0.2090  0.0273
30270ION     NA47794  12.400   8.265  10.782  0.1851 -0.0800  0.1843
30271ION     NA47795  14.992   2.276   2.239 -0.0623  0.0029  0.1639
30272ION     NA47796   7.817  10.858   0.841 -0.1858  0.0148  0.1721
30273ION     NA47797  15.750   9.470  13.973  0.2130 -0.1714  0.2803
30274ION     NA47798   2.260  15.944   3.304  0.0509 -0.0881  0.1584
30275ION     NA47799   3.576   7.586   0.522  0.2428  0.0016  0.0048
30276ION     NA47800  14.174   1.628   2.380  0.0598  0.0284 -0.2779
30277ION     NA47801   4.912   6.084  10.750  0.0102 -0.0494 -0.1131
30278ION     NA47802  12.239  12.612   5.844 -0.1754 -0.0340 -0.1520
30279ION     NA47803   6.851  15.240   4.120 -0.0912  0.0774  0.1497
30280ION     NA47804  11.538   2.982   1.275  0.0860 -0.0143  0.1847
30281ION     NA47805   7.049   7.755   5.668  0.0710 -0.4750  0.0346
30282ION     NA47806   1.648  10.281   4.648  0.1848 -0.0105 -0.2525
30283ION     NA47807   5.919  11.019  10.604  0.0292 -0.0950  0.0879
30284ION     NA47808   2.649   5.107   5.901  0.1456  0.2167 -0.2976
30285ION     NA47809   4.921   3.896  11.307 -0.0502 -0.3559  0.0019
30286ION     NA47810   3.766   3.797   5.840  0.0517 -0.2334 -0.1053
30287ION     NA47811   5.488  16.461   5.635 -0.1610  0.0914 -0.0353
30288ION     NA47812   8.417  17.854  10.428 -0.0792 -0.0241 -0.1048
30289ION     NA47813  16.654   4.389   0.782  0.2253 -0.1947  0.2911
30290ION     NA47814   5.569   3.874  10.586  0.0754  0.0743  0.0047
30291ION     NA47815   3.627   4.266   0.437 -0.1587  0.0658  0.1029
30292ION     NA47816  15.297  16.332  10.357 -0.1724  0.2657 -0.0338
30293ION     NA47817   8.856  12.780  12.033  0.0436 -0.3391 -0.4674
30294ION     NA47818  12.947  16.323  14.195 -0.0380 -0.0253 -0.0183
30295ION     NA47819   7.562  11.644   4.139  0.1128  0.1254 -0.1437
30296ION     NA47820   9.003   2.771  14.849 -0.1767 -0.0603 -0.0922
30297ION     NA47821   5.482  11.431  14.510  0.0308 -0.1659  0.0108
30298ION     NA47822  11.280   4.797   3.671 -0.0264 -0.1707  0.0890
30299ION     NA47823   0.365   4.212  10.737  0.1322 -0.1744 -0.1085
30300ION     NA47824   5.543  14.194   6.135  0.1563 -0.1505 -0.0707
30301ION     NA47825   2.239   0.963  13.153 -0.1162 -0.2134 -0.1075
30302ION     NA47826   8.910   5.825  10.601  0.1254  0.1626  0.0881
30303ION     NA47827  11.166   3.597   5.379 -0.1067 -0.1584  0.2174
30304ION     NA47828   9.439   2.307  10.681 -0.0406 -0.2292  0.3261
30305ION     NA47829   5.373  14.026   1.919 -0.1699 -0.1060 -0.0671
30306ION     NA47830  10.016  17.690   5.651 -0.2047 -0.0639  0.0220
30307ION     NA47831   3.768   3.474  15.410  0.0659 -0.0708 -0.5317
30308ION     NA47832  17.197   5.434  14.434 -0.1008 -0.2515 -0.1333
30309ION     NA47833   4.977   6.210   2.298 -0.1069  0.0719  0.1026
30310ION     NA47834   7.737   9.632   1.324  0.1120 -0.0825 -0.1767
30311ION     NA47835  12.724   7.416   5.206 -0.0008  0.2241  0.0907
30312ION     NA47836   1.424   7.720  14.632  0.1226 -0.0676 -0.4116
30313ION     NA47837   3.592  12.734  10.827  0.1852 -0.1758  0.2803
30314ION     NA47838   3.093   7.282   1.967 -0.1892 -0.3314  0.4094
30315ION     NA47839   5.634   0.316  13.284 -0.0206 -0.2942 -0.0163
30316ION     NA47840   6.553   6.357  10.641  0.1986  0.0713 -0.1509
30317ION     NA47841   6.279  10.754   2.296 -0.0247 -0.1364  0.3531
30318ION     NA47842   8.748  14.367  10.951  0.2107  0.2109  0.0703
30319ION     NA47843  11.933   7.131  11.551  0.0919 -0.1134 -0.0402
30320ION     NA47844   4.840   3.511  12.241  0.0781 -0.0429  0.0773
30321ION     NA47845   1.040  10.923   3.654 -0.0434 -0.1164 -0.0245
30322ION     NA47846   3.303  11.728   6.043  0.2614  0.0478 -0.0032
30323ION     NA47847   0.748   8.497  10.691  0.1281  0.1736 -0.3695
30324ION     NA47848   2.812   7.086   5.062 -0.2051 -0.1282 -0.1158
30325ION     NA47849   1.318  16.655  11.685  0.1436 -0.1357 -0.2099
30326ION     NA47850  12.872  11.298   3.264 -0.1357  0.3292  0.0318
30327ION     NA47851   3.011   9.352  15.854 -0.1254 -0.4319 -0.1229
30328ION     NA47852   0.773  12.052  12.100  0.0444  0.1785 -0.0829
30329ION     NA47853  12.568   1.471  15.682  0.1773 -0.0174 -0.2036
30330ION     NA47854   2.529   5.604  13.577  0.3154  0.0922  0.0100
30331ION     NA47855  13.438   5.885   3.932 -0.0906 -0.2216 -0.1099
30332ION     NA47856   7.786  14.488   6.048  0.0919 -0.1351 -0.2086
30333ION     NA47857  16.876  10.857  10.501 -0.1141  0.3296  0.0205
30334ION     NA47858   2.557  12.813  14.881 -0.2209  0.1410 -0.1114
30335ION     NA47859  10.612   5.769  10.277 -0.3255 -0.0613 -0.1144
30336ION     NA47860  17.820   5.775  10.798 -0.0984 -0.0345  0.0060
30337ION     NA47861   5.527  13.118  12.340  0.0430  0.1275 -0.2812
30338ION     NA47862   2.162  14.044  15.792 -0.2364 -0.0765 -0.0759
30339ION     NA47863   6.736  11.900  16.112 -0.0312 -0.0890 -0.1653
30340ION     NA47864   4.920  11.265  12.684  0.1477 -0.1002 -0.1216
30341ION     NA47865   9.404  15.312   2.742 -0.0557  0.0091  0.0366
30342ION     NA47866   7.657   1.178   5.588  0.1199  0.2401 -0.0785
30343ION     NA47867  15.792   4.122  10.760  0.0542  0.0191  0.1141
30344ION     NA47868   2.968   4.379   5.768  0.0058 -0.3233  0.0134
30345ION     NA47869  11.825   7.474   5.089  0.0029 -0.0194 -0.3542
30346ION     NA47870  15.801  10.642  14.213  0.0121  0.0185  0.1317
30347ION     NA47871  17.619   8.504   1.845 -0.0262 -0.0814  0.0009
30348ION     NA47872  14.989   7.158   5.638  0.1214 -0.2115 -0.2810
30349ION     NA47873   7.870  10.200   5.974 -0.0732  0.0974 -0.1378
30350ION     NA47874   6.214   7.545   0.390 -0.0334  0.0174  0.2189
30351ION     NA47875  16.073   9.840   2.068  0.3152 -0.0170  0.1159
30352ION     NA47876  14.070  14.013   1.272 -0.0559  0.3798  0.0652
30353ION     NA47877   9.545  16.220  13.907 -0.0132 -0.1926  0.1752
30354ION     NA47878   8.360  12.324   6.061  0.0325  0.2207  0.2039
30355ION     NA47879  10.777   9.697  10.715  0.0374 -0.3758 -0.0707
30356ION     NA47880   9.675   5.374   2.306  0.0775  0.0927  0.0481
30357ION     NA47881  13.765  11.392  14.536 -0.3365  0.1503 -0.0245
30358ION     NA47882   7.776  12.128   0.572 -0.0837  0.0445 -0.0143
30359ION     NA47883   1.794   3.544  16.079 -0.1695 -0.0358  0.0189
30360ION     NA47884   3.269   9.822   1.955  0.3144 -0.2231  0.2036
30361ION     NA47885   1.674  12.689  14.728  0.3011 -0.2055  0.0699
30362ION     NA47886   7.391   8.223  14.849  0.0369 -0.0223  0.2682
30363ION     NA47887   3.488  14.457  10.989 -0.1807  0.0685  0.0286
30364ION     NA47888  10.419  16.321  10.395 -0.1058 -0.2055 -0.0675
30365ION     NA47889   9.967  11.215  15.013 -0.0652 -0.3241  0.4154
30366ION     NA47890   0.194   7.312  15.596  0.2773 -0.0046 -0.0083
30367ION     NA47891  14.194   5.689   4.261 -0.1135 -0.1532 -0.0177
30368ION     NA47892   1.799  11.656   5.198  0.1008 -0.0447  0.1774
30369ION     NA47893  10.752   1.989   5.475 -0.0282  0.3397  0.0105
30370ION     NA47894  17.743   8.455  10.209 -0.4265 -0.1008 -0.0742
30371ION     NA47895   0.172   2.282  10.559  0.1081  0.0914  0.0964
30372ION     NA47896  13.442   8.123  10.180  0.1368  0.1847  0.0944
30373ION     NA47897   2.583  11.028   2.269  0.0853  0.1682 -0.2661
30374ION     NA47898  10.327   1.507  13.621  0.0788  0.0499 -0.0403
30375ION     NA47899  15.588  17.215  14.538  0.0831 -0.3138 -0.0592
30376ION     NA47900  12.928   3.566  12.491 -0.4360  0.1779 -0.2049
30377ION     NA47901   7.207   6.628   2.290  0.0971  0.0439 -0.2726
30378ION     NA47902  10.367   8.907   5.598 -0.0252 -0.2928  0.0667
30379ION     NA47903  12.610  16.071   4.577  0.0201  0.0011  0.2109
30380ION     NA47904   8.244   3.772   5.390  0.2529 -0.1473  0.1410
30381ION     NA47905   4.913   7.357   3.745  0.1811  0.0142  0.2351
30382ION     NA47906   8.240  10.966   4.367 -0.1768 -0.0250  0.2438
30383ION     NA47907  12.517  12.404  10.572  0.1372 -0.3001  0.2707
30384ION     NA47908   5.069   8.942  11.126  0.0768  0.1457 -0.0398
30385ION     NA47909  12.341   2.711  13.995 -0.0562 -0.1752  0.2216
30386ION     NA47910  11.953  13.324   3.927  0.0858 -0.2287  0.1557
30387ION     NA47911   4.827  14.665   0.625 -0.1715 -0.0540  0.0912
30388ION     NA47912   5.688  13.300  10.903 -0.0920 -0.0690 -0.1144
30389ION     NA47913  10.319   9.649   3.102  0.1056 -0.2105 -0.0555
30390ION     NA47914   7.320   2.373   3.087 -0.1592  0.0587 -0.2238
30391ION     NA47915   2.112   1.197   3.376  0.0202 -0.2002  0.1306
30392ION     NA47916  16.267   9.068   5.485  0.1463  0.0576  0.1662
30393ION     NA47917   6.870  11.158   5.959 -0.1331 -0.1726  0.0158
30394ION     NA47918   9.162   1.509  10.585  0.0836  0.0685  0.1987
30395ION     NA47919  17.631  16.687  10.835  0.1894 -0.1995  0.0702
30396ION     NA47920   4.727  12.367   1.479  0.0728  0.0337 -0.0425
30397ION     NA47921  16.985  12.629   5.448  0.0584 -0.2207 -0.0610
30398ION     NA47922  14.681   1.360   5.441 -0.1016  0.3994  0.0034
30399ION     NA47923  11.469  10.563  10.572  0.1719 -0.0506  0.0621
30400ION     NA47924  16.816   2.567   3.468  0.0530  0.1195  0.2891
30401ION     NA47925   2.731   8.878   5.918 -0.1211 -0.1322 -0.0348
30402ION     NA47926   9.409   0.117   4.124  0.1252 -0.2986  0.0645
30403ION     NA47927  16.787   3.007  10.711 -0.1712  0.1234  0.0581
30404ION     NA47928   5.265  10.472   5.618 -0.1491 -0.1222  0.0012
30405ION     NA47929  11.730  13.134  10.778 -0.1101  0.0644 -0.0593
30406ION     NA47930   4.165   6.722   5.717  0.3201 -0.1018 -0.0696
30407ION     NA47931   1.635  14.531  12.767  0.0870  0.1999  0.3236
30408ION     NA47932   7.348  15.562  10.660 -0.1183 -0.1081  0.2164
30409ION     NA47933  16.166   2.444  13.115 -0.2107  0.0526 -0.3969
30410ION     NA47934  12.615  16.788  13.704  0.2276 -0.2141 -0.1275
30411ION     NA47935   4.050  15.609  11.335 -0.2457 -0.1228 -0.0771
30412ION     NA47936   1.117   9.424  10.723  0.2074  0.0211 -0.1160
30413ION     NA47937   2.758   2.077  11.026 -0.0499 -0.0738  0.0631
30414ION     NA47938  15.076  12.777   2.577  0.0204  0.1119  0.0802
30415ION     NA47939   3.272   1.541   6.086  0.1573  0.0115 -0.2334
30416ION     NA47940  11.386   4.104   3.143 -0.2543 -0.0168  0.0367
30417ION     NA47941  17.587  10.296   2.405  0.1216  0.0061 -0.0589
30418ION     NA47942  14.194  15.552   5.891 -0.0134 -0.1191 -0.0895
30419ION     NA47943  17.669   6.766  10.867 -0.0577 -0.0748 -0.1765
30420ION     NA47944  10.099  12.614  15.737  0.1103  0.2123  0.1481
30421ION     NA47945  17.869  16.697  14.454  0.0725 -0.0588 -0.1970
30422ION     NA47946  13.290  17.914  10.435 -0.1350  0.3428  0.0807
30423ION     NA47947   9.746   0.712  10.441  0.0666 -0.0371 -0.1438
30424ION     NA47948   5.540   2.480   2.417  0.0200  0.2614 -0.1816
30425ION     NA47949  14.643  11.289  16.018  0.1096  0.2402 -0.1650
30426ION     NA47950  12.099  14.879   5.822 -0.3416  0.1931  0.1687
30427ION     NA47951   9.014   6.826  10.786  0.1105  0.0214  0.0324
30428ION     NA47952   1.770   0.479   5.652 -0.0850  0.0663  0.0627
30429ION     NA47953  17.381  14.360   5.571 -0.2333  0.0079 -0.1314
30430ION     NA47954   9.845  12.225   1.793 -0.0731 -0.1205 -0.0311
30431ION     NA47955  11.427   8.113  13.635  0.0725 -0.0312 -0.0756
30432ION     NA47956  14.535  16.415  10.443  0.1978  0.2203  0.2062
30433ION     NA47957   8.583   8.146  12.169 -0.0691 -0.2650 -0.2084
30434ION     NA47958  11.492   0.708  10.296 -0.2627  0.0173 -0.1486
30435ION     NA47959  15.826  14.275   0.031  0.0635 -0.1271 -0.0299
30436ION     NA47960   4.175   4.264  10.541  0.3084  0.5448  0.1536
30437ION     NA47961   1.086   7.792   5.636 -0.0872 -0.0490 -0.1004
30438ION     NA47962   2.849  17.397  15.509  0.2029 -0.0545 -0.1766
30439ION     NA47963   6.751   8.865  13.418 -0.2991 -0.0757  0.0980
30440ION     NA47964  15.422   4.737  15.386 -0.1237  0.2030 -0.0178
30441ION     NA47965  10.292  12.680   4.127  0.1333  0.1541  0.1019
30442ION     NA47966  10.493   7.108   5.636  0.2281  0.1626  0.1859
30443ION     NA47967  11.877   4.452   4.522 -0.3267  0.0360  0.0968
30444ION     NA47968   7.933   1.979  10.495  0.2487 -0.0773 -0.0353
30445ION     NA47969   0.906   8.877  14.916  0.0977 -0.1480 -0.2258
30446ION     NA47970   7.807   1.341   2.874  0.0325  0.1337 -0.0384
30447ION     NA47971   7.316  11.300  15.122 -0.2716  0.2406  0.1531
30448ION     NA47972  13.833   5.568   5.216 -0.1971  0.2244  0.0536
30449ION     NA47973  17.026   7.882  10.459 -0.0804  0.0634  0.2167
30450ION     NA47974   4.047  15.697  15.077  0.0681 -0.1776  0.0420
30451ION     NA47975  12.513   5.498  12.934  0.2638 -0.0025 -0.1068
30452ION     NA47976   5.545  16.904  10.838  0.2140 -0.0316 -0.1882
30453ION     NA47977  15.380  11.647  13.736 -0.0150  0.0365 -0.3461
30454ION     NA47978   3.804   6.524   6.025  0.0390  0.0981  0.1467
30455ION     NA47979  12.892   1.735  10.554  0.3254  0.1344 -0.2354
30456ION     NA47980  17.008   0.818   5.910 -0.0479 -0.0830  0.2718
30457ION     NA47981   6.069   7.108  10.678  0.0951  0.5162 -0.0849
30458ION     NA47982   0.992   1.445  12.048 -0.2978  0.2062  0.1799
30459ION     NA47983  11.777  15.830   1.143 -0.1923  0.1067  0.0718
30460ION     NA47984  10.156  14.228   1.960  0.1126 -0.3666 -0.2401
30461ION     NA47985  14.042   7.332   5.447 -0.1168  0.2969 -0.1609
30462ION     NA47986  10.365   6.278   4.204 -0.3210  0.1327 -0.3386
30463ION     NA47987  14.843   5.239  10.263 -0.1836 -0.4961 -0.2861
30464ION     NA47988  12.337   0.332   5.548 -0.2067  0.1923  0.1631
30465ION     NA47989  13.173  13.990  10.606  0.0237 -0.1855 -0.2143
30466ION     NA47990  12.343   2.966   0.722  0.2509 -0.0520 -0.0449
30467ION     NA47991   0.420   1.275   2.177 -0.1174 -0.1748  0.2035
30468ION     NA47992   6.635   4.586  10.556  0.1976  0.0395 -0.0775
30469ION     NA47993  11.491   0.403   5.353 -0.0683 -0.1770 -0.3288
30470ION     NA47994   0.886  15.408  10.576  0.1038  0.1645 -0.2116
30471ION     NA47995   8.305   8.223   2.217  0.1263 -0.1524  0.0875
30472ION     NA47996   0.693  12.719   4.181  0.2706 -0.0866  0.1367
30473ION     NA47997   7.439   1.103  10.837  0.1638  0.2855  0.2244
30474ION     NA47998   8.353   9.502   5.965  0.2421  0.2610  0.1259
30475ION     NA47999  12.530   9.664  14.671  0.0721  0.1622  0.2037
30476ION     NA48000  12.404  13.873  10.666  0.1655  0.0831  0.1440
30477ION     NA48001  13.736   9.123  10.255  0.2033 -0.2874 -0.1662
30478ION     NA48002  14.974  13.454  11.622 -0.0798  0.3068  0.1629
30479ION     NA48003   1.831  13.369  10.725  0.2073 -0.0087  0.1563
30480ION     NA48004  13.828  13.067  10.532 -0.3177 -0.0815 -0.2171
30481ION     NA48005  16.960   9.696  10.255  0.0467  0.1534  0.1056
30482ION     NA48006   3.434   2.787   2.890  0.0731 -0.0221 -0.1802
30483ION     NA48007   1.618  14.867   5.864  0.0339 -0.0551 -0.2737
30484ION     NA48008   4.815   0.832   1.719  0.0774 -0.1929 -0.1752
30485ION     NA48009   5.620   3.061   0.333 -0.1032 -0.0807 -0.2642
30486ION     NA48010  17.287  13.384  10.521 -0.3630 -0.4027 -0.0067
30487ION     NA48011  14.738  16.485  13.826 -0.2774 -0.0659 -0.1395
30488ION     NA48012   7.308   5.712  10.751  0.0206  0.0430  0.0005
30489ION     NA48013   1.504  17.909   1.305 -0.0573 -0.0993  0.1047
30490ION     NA48014   8.299   5.032   0.792  0.0659  0.0839  0.0782
30491ION     NA48015   4.521   7.255   2.296  0.4478 -0.1096  0.1326
30492ION     NA48016   1.937   2.469  10.676  0.0493 -0.0961 -0.0608
30493ION     NA48017   4.658  16.801  10.852  0.0431  0.4421 -0.0452
30494ION     NA48018   0.618  14.506  10.593  0.0470  0.1221  0.0010
30495ION     NA48019   5.099  16.162  10.702  0.1303 -0.1851 -0.0125
30496ION     NA48020  17.703  11.435   5.761 -0.2031 -0.0733  0.0277
30497ION     NA48021   9.244  10.960   5.898 -0.2162 -0.2417 -0.4019
30498ION     NA48022  11.735   9.771  10.551  0.1390  0.0521 -0.0741
30499ION     NA48023   6.444  17.146  15.127  0.1149  0.0118 -0.4313
30500ION     NA48024   3.574  10.288   3.018  0.2402 -0.2636  0.2629
30501ION     NA48025  10.090   0.434   4.217  0.1065  0.0217  0.1662
30502ION     NA48026  11.121   8.857   0.851 -0.1482  0.1797 -0.0457
30503ION     NA48027  16.887   4.029  14.243 -0.2119 -0.1489  0.1859
30504ION     NA48028  17.529  10.432  13.427  0.2089  0.0113 -0.0332
30505ION     NA48029  13.994   2.256  10.758 -0.0493 -0.0796  0.0197
30506ION     NA48030   2.872  16.633  10.740 -0.0640 -0.3114 -0.0007
30507ION     NA48031   2.154   6.604  14.516  0.0191  0.1527  0.0076
30508ION     NA48032   0.580  16.648  16.244  0.0063  0.2038  0.0339
30509ION     NA48033   1.703  14.089   3.600  0.0168  0.3237  0.0662
30510ION     NA48034   3.221  11.952   0.683 -0.3726  0.0487  0.1164
30511ION     NA48035   9.103  15.951   3.864  0.0344  0.0229  0.1572
30512ION     NA48036  10.494  11.086   5.252  0.1922 -0.1146  0.0052
30513ION     NA48037  16.250   4.951   5.770 -0.2900  0.0179 -0.1365
30514ION     NA48038  16.152  14.656  15.536  0.0710 -0.1904  0.4264
30515ION     NA48039   4.323  13.450   0.915  0.2387  0.6091 -0.3517
30516ION     NA48040   2.907  12.337  13.007 -0.2781  0.1497 -0.2423
30517ION     NA48041   0.227   7.487  12.642  0.2568 -0.2385  0.1564
30518ION     NA48042   1.613   8.031   0.166  0.2589  0.0050 -0.2139
30519ION     NA48043   8.110   4.384   1.408 -0.1544  0.5086 -0.1202
30520ION     NA48044   7.001   8.084   3.561  0.2010  0.1381 -0.1960
30521ION     NA48045  10.789   4.594   0.339  0.1347 -0.0014  0.0937
30522ION     NA48046  12.976   0.163  13.353 -0.2206 -0.0949 -0.1345
30523ION     NA48047   2.566   9.690   0.326 -0.0044 -0.2968 -0.0717
30524ION     NA48048  13.881  15.661  15.071 -0.1004  0.1016  0.1581
30525ION     NA48049   2.195  16.631   5.990 -0.0472 -0.0141 -0.2406
30526ION     NA48050   0.163  15.103   3.141  0.0732 -0.2882  0.1625
30527ION     NA48051  13.916  14.952  11.692 -0.4262  0.0523  0.2553
30528ION     NA48052   4.039   1.713  15.629  0.1113  0.1858  0.1209
30529ION     NA48053  15.338   0.816  10.610 -0.3527 -0.0239 -0.1160
30530ION     NA48054  11.209  16.487  11.208  0.4612 -0.1607 -0.1657
30531ION     NA48055  17.827   8.358  15.896 -0.3297  0.1796 -0.0548
30532ION     NA48056  15.607  15.713   0.620  0.0420  0.3709  0.2292
30533ION     NA48057   2.010   4.493   2.250 -0.0164  0.2320 -0.2832
30534ION     NA48058  14.035  16.628   0.485 -0.2347 -0.1385 -0.1752
30535ION     NA48059  11.142   1.225   5.555  0.1498 -0.2037 -0.2298
30536ION     NA48060  10.761   8.621  10.371 -0.1280 -0.0676  0.0238
30537ION     NA48061   2.358  12.406   0.940 -0.3421  0.0252  0.2638
30538ION     NA48062   5.664   1.557  10.707 -0.1587 -0.0277  0.1646
30539ION     NA48063   5.496  11.335   5.971 -0.3597  0.2189  0.2635
30540ION     NA48064   9.323  17.325  15.969  0.1921  0.2352  0.1268
30541ION     NA48065   4.492  15.712   5.876  0.0825  0.1497  0.1063
30542ION     NA48066  14.704  14.600  14.869  0.0627 -0.3314  0.0686
30543ION     NA48067  13.654  14.118   4.160  0.2113 -0.1808 -0.0644
30544ION     NA48068   0.802   1.603  10.494  0.0589 -0.0568  0.0974
30545ION     NA48069   9.511   4.671   0.775 -0.2535  0.2341  0.0731
30546ION     NA48070   2.010  10.044  15.272 -0.1380 -0.0415  0.1422
30547ION     NA48071   5.130  12.827   2.403 -0.0332  0.0482 -0.2025
30548ION     NA48072  14.695  17.725  14.451 -0.1108 -0.2037 -0.1734
30549ION     NA48073   0.725   5.316   5.943 -0.1664  0.0464  0.0936
30550ION     NA48074   2.458  11.463   5.806 -0.1931  0.2235 -0.0823
30551ION     NA48075  11.065  17.566  13.136  0.0019  0.0227 -0.0223
30552ION     NA48076  15.113  15.199  11.894 -0.1325  0.1205  0.0910
30553ION     NA48077   3.684   9.080   5.852  0.0531  0.3659 -0.1883
30554ION     NA48078  15.390  15.734   5.477  0.2595  0.0235 -0.0544
30555ION     NA48079  16.980  11.023  12.575 -0.1956  0.0786 -0.1995
30556ION     NA48080   7.258  16.885   5.930 -0.2418 -0.1969  0.0715
30557ION     NA48081  11.595  10.422   1.715 -0.1157  0.2882  0.3978
30558ION     NA48082  10.313   3.930  12.878  0.1850 -0.2182 -0.0833
30559ION     NA48083   2.076   9.510  10.957  0.2090  0.1987 -0.0386
30560ION     NA48084   2.064  17.598   5.792  0.2987  0.0649 -0.0496
30561ION     NA48085   6.550   2.891  11.021  0.0591  0.2376 -0.0455
30562ION     NA48086  15.633   5.653   5.786  0.1155 -0.0116  0.0236
30563ION     NA48087  12.602  15.679   5.617 -0.0775 -0.3173 -0.2951
30564ION     NA48088   0.198   5.446   5.914 -0.2439  0.1123  0.0143
30565ION     NA48089  16.276  16.903  15.232 -0.2449 -0.2713  0.1118
30566ION     NA48090  13.787   3.187  10.679 -0.0244 -0.1757  0.0198
30567ION     NA48091   4.193   1.374   4.717  0.0816 -0.0298  0.1219
30568ION     NA48092  15.104  15.733  13.265 -0.1488  0.2454  0.0721
30569ION     NA48093   9.445   4.153  10.278 -0.0995  0.2585  0.0254
30570ION     NA48094  12.287   6.553   1.784  0.0388 -0.0823  0.0104
30571ION     NA48095  10.126  13.229   6.023  0.0468 -0.0625  0.2942
30572ION     NA48096  14.600   4.283   1.884  0.0958  0.3682  0.1006
30573ION     NA48097  11.140  13.630   1.935  0.3019  0.2587 -0.0327
30574ION     NA48098   5.182  10.374   0.788  0.1945  0.2041  0.0701
30575ION     NA48099  14.832   1.485  14.460 -0.4941 -0.0301  0.0320
30576ION     NA48100   4.191   6.239  14.412  0.1598  0.1685  0.2305
30577ION     NA48101  15.291  10.922   2.759 -0.0012  0.0175  0.3153
30578ION     NA48102  11.604   7.331   3.794 -0.4065  0.2245 -0.0465
30579ION     NA48103   2.851   6.066   1.644 -0.2476  0.0223 -0.1726
30580ION     NA48104   7.142   0.562  15.616  0.0525 -0.1278 -0.2767
30581ION     NA48105   8.310  17.663   1.127 -0.0213  0.0672  0.0024
30582ION     NA48106   4.200   1.680   5.810  0.2762  0.0622  0.2099
30583ION     NA48107   5.414   3.820  15.983  0.2669 -0.0290  0.4098
30584ION     NA48108   7.328  16.262   1.065  0.1248 -0.4005  0.2985
30585ION     NA48109   3.957   5.496  12.703  0.3087 -0.1372 -0.0289
30586ION     NA48110   5.788  15.326   4.628  0.1802 -0.2514 -0.1782
30587ION     NA48111  16.892  10.540   5.548  0.2257 -0.0788  0.1793
30588ION     NA48112  17.732   4.884  12.980  0.2003 -0.0272  0.1041
30589ION     NA48113  14.823  17.841  13.294 -0.2760 -0.3641  0.2853
30590ION     NA48114  15.212  11.914  10.412 -0.0284 -0.1049  0.1846
30591ION     NA48115   0.703   7.198   6.105 -0.1987  0.4012  0.0875
30592ION     NA48116   7.053  12.476  10.617 -0.2245  0.2355 -0.0052
30593ION     NA48117   6.663  14.456  10.638 -0.0196  0.2254  0.2170
30594ION     NA48118   0.278   7.553   6.031  0.3692  0.2577  0.0447
30595ION     NA48119  14.856  15.852   1.158 -0.1080  0.1830 -0.1800
30596ION     NA48120   6.202  16.576   0.472 -0.1669 -0.2142 -0.1276
30597ION     NA48121  10.584  16.421  13.913 -0.0359  0.0977 -0.3366
30598ION     NA48122  10.115  11.318   5.857  0.2262  0.1893 -0.0518
30599ION     NA48123  15.245  17.839   2.853 -0.0302 -0.1348 -0.1134
30600ION     NA48124   9.854   5.419   1.386 -0.0342 -0.0183  0.4460
30601ION     NA48125   9.209   5.152  10.406  0.0609  0.1431 -0.0024
30602ION     NA48126   4.117  15.679  12.930  0.1267 -0.0114 -0.1412
30603ION     NA48127  16.547   3.918  12.394  0.0266 -0.2326 -0.0165
30604ION     NA48128   8.225   6.671  10.586  0.0172  0.1286 -0.0335
30605ION     NA48129  14.998  10.713  12.069  0.1068  0.1695  0.0073
30606ION     NA48130  10.445   6.687  13.323  0.0264 -0.0692  0.1559
30607ION     NA48131  13.247  17.785  10.970  0.0266  0.0272  0.0416
30608ION     NA48132   6.819   7.818  10.676  0.1416  0.1199  0.1235
30609ION     NA48133  13.647   4.446  12.361 -0.0882  0.3583 -0.1382
30610ION     NA48134  12.297  16.624   5.575 -0.0992  0.1006 -0.2082
30611ION     NA48135  10.497   4.302   4.008 -0.3289 -0.0862  0.1297
30612ION     NA48136   1.369   3.197  13.330 -0.0227 -0.3563  0.1929
30613ION     NA48137   5.169   2.206  15.552 -0.1883  0.1221 -0.1605
30614ION     NA48138  16.328   0.842  12.490  0.2368  0.1945 -0.0283
30615ION     NA48139   6.217   8.766  15.276  0.0704  0.3282  0.0281
30616ION     NA48140   0.931   6.212   6.004  0.1237  0.0351 -0.0563
30617ION     NA48141   7.554   5.048   3.981  0.1750  0.1247 -0.1509
30618ION     NA48142   1.704  11.901  14.013 -0.4110 -0.0340  0.2115
30619ION     NA48143   0.449  15.415   0.796 -0.0891  0.3864  0.0144
30620ION     NA48144  16.037   8.802   2.305 -0.1461 -0.4559  0.2182
30621ION     NA48145  10.283   9.834   4.384  0.1739  0.0841 -0.0068
30622ION     NA48146   0.470   7.772  11.679 -0.0014  0.0225 -0.5531
30623ION     NA48147  11.628  11.815   3.427  0.1003 -0.3509 -0.2390
30624ION     NA48148  14.723  13.377  10.186  0.0679  0.0374  0.0150
30625ION     NA48149   4.026  17.749   0.916  0.0371  0.0038  0.0408
30626ION     NA48150  12.563   8.418  10.238  0.1063  0.0783  0.1279
30627ION     NA48151  13.188   5.276  10.562  0.0182  0.1891  0.3387
30628ION     NA48152  11.632   6.500   0.867 -0.0628 -0.1737  0.1346
30629ION     NA48153   9.436  17.912  13.783  0.2121 -0.1793  0.0912
30630ION     NA48154   2.413   0.009  14.141 -0.2869  0.3120  0.2080
30631ION     NA48155  15.252   9.228   5.594  0.0000  0.0499 -0.1896
30632ION     NA48156   1.163   0.558  16.256  0.1974 -0.0305 -0.1910
30633ION     NA48157  10.468  12.601   0.359 -0.1205  0.0562  0.1894
30634ION     NA48158  12.439  17.402  15.085 -0.1116 -0.2407  0.0950
30635ION     NA48159  11.827   9.833   0.590 -0.1203  0.0833  0.3068
30636ION     NA48160  14.501  13.866   2.056  0.0769 -0.0795 -0.2725
30637ION     NA48161   1.036  15.548   5.706 -0.0355  0.0059  0.1833
30638ION     NA48162  15.376   4.629   0.107 -0.0482  0.1626 -0.3162
30639ION     NA48163   7.008  16.971   0.612 -0.2353  0.2947  0.3440
30640ION     NA48164  13.516  10.208  16.092  0.0923 -0.0081 -0.0033
30641ION     NA48165   1.913   4.625   5.776  0.3765  0.0499  0.0639
30642ION     NA48166  15.588  16.822   5.451 -0.1808  0.1612 -0.0906
30643ION     NA48167   7.228   2.698   4.788  0.2172 -0.1445 -0.0868
30644ION     NA48168   6.554   8.348   2.376  0.0853 -0.0085 -0.0466
30645ION     NA48169   2.362   1.351  10.865  0.1141  0.1131 -0.0900
30646ION     NA48170   5.385  11.161  15.428  0.0076  0.0638  0.0489
30647ION     NA48171   2.915   9.184   2.677 -0.2099 -0.0644 -0.1183
30648ION     NA48172  17.613   2.262  12.195 -0.0361  0.3047  0.1065
30649ION     NA48173   8.053   8.143  15.862 -0.0440 -0.1263 -0.1586
30650ION     NA48174   0.787  12.727   0.948 -0.0571  0.0652  0.0233
30651ION     NA48175   6.120  12.420  10.805 -0.0223  0.0078 -0.3922
30652ION     NA48176   3.255   0.886  10.897  0.0170  0.1994  0.3478
30653ION     NA48177   3.935  10.705   0.004  0.2160  0.0411  0.0565
30654ION     NA48178  10.451   5.769   0.819 -0.1871  0.0942  0.0765
30655ION     NA48179  16.897   6.554  11.856  0.0950  0.2808 -0.1200
30656ION     NA48180   8.359  10.210  12.460  0.2111 -0.1665 -0.3030
30657ION     NA48181   9.529  11.505  12.039  0.2352  0.1263  0.1722
30658ION     NA48182   0.371  10.941  11.457 -0.1005  0.1963 -0.0155
30659ION     NA48183  14.712  16.536   5.582  0.1251  0.0030 -0.0056
30660ION     NA48184   3.258   1.374  10.763 -0.0414 -0.5045 -0.0549
30661ION     NA48185  16.795  11.720  13.680  0.1583  0.4550  0.0318
30662ION     NA48186  16.516   1.303   0.203 -0.0462  0.0148  0.1801
30663ION     NA48187   0.157  10.036   6.137  0.1009 -0.0111  0.0136
30664ION     NA48188  12.099   9.055   5.158  0.0316  0.1673 -0.0244
30665ION     NA48189  12.061   5.610  13.992 -0.1008 -0.0070  0.1438
30666ION     NA48190   2.519  10.528   0.790  0.2984 -0.1845 -0.1828
30667ION     NA48191  17.146  13.222  12.943 -0.1913 -0.0099 -0.0771
30668ION     NA48192  15.969   5.221   1.845  0.2464 -0.0937 -0.0409
30669ION     NA48193   2.296   6.893  10.442 -0.1288 -0.1415  0.2777
30670ION     NA48194  14.362  11.711  10.286 -0.0758  0.4117 -0.0081
30671ION     NA48195  15.179   3.662   2.830  0.0591 -0.0768  0.1322
30672ION     NA48196  10.472  11.514   0.485  0.1056 -0.1396  0.0838
30673ION     NA48197   2.537  10.821   3.907 -0.2031 -0.2246  0.0997
30674ION     NA48198   5.646   1.920   3.357  0.0021 -0.1739  0.3235
30675ION     NA48199   4.290  10.219   5.785 -0.0514 -0.1480 -0.1896
30676ION     NA48200  16.102   0.172  14.989  0.1168 -0.1309  0.3245
30677ION     NA48201   4.106   0.702   0.472 -0.0801  0.0335  0.0013
30678ION     NA48202   8.052   1.145   5.014  0.2473  0.0682 -0.3013
30679ION     NA48203   6.843  17.879  13.631 -0.0860  0.2534  0.1042
30680ION     NA48204  14.368   5.746   2.297 -0.1232 -0.1582  0.0138
30681ION     NA48205  11.060   1.259   4.613 -0.1546  0.0496 -0.3426
30682ION     NA48206   9.243   9.872  10.504 -0.0546 -0.2248  0.0441
30683ION     NA48207   1.113   1.444  13.152  0.0207  0.0643  0.1523
30684ION     NA48208   9.017   8.936  11.364  0.2827  0.1876  0.1276
30685ION     NA48209  14.483   8.393  10.395  0.1956  0.1766  0.1323
30686ION     NA48210   9.834  17.204   3.988  0.4351  0.1025 -0.1300
30687ION     NA48211  13.386   8.272   5.409 -0.1215 -0.0710 -0.1301
30688ION     NA48212   5.990   8.641  10.951  0.1122 -0.3764 -0.2612
30689ION     NA48213   8.071   7.975   3.237 -0.3702  0.0088  0.1396
30690ION     NA48214  15.512   2.399  10.527  0.3029  0.1354 -0.1162
30691ION     NA48215   0.395   0.564   5.958  0.1101 -0.0233  0.2090
30692ION     NA48216  15.024   4.035   5.776  0.0223  0.1010 -0.1159
30693ION     NA48217  15.139  14.466   2.579 -0.1157 -0.1042 -0.1088
30694ION     NA48218  16.457   8.465   0.652  0.0669  0.2392 -0.0918
30695ION     NA48219  13.797   6.707  14.927 -0.0870 -0.1231  0.2083
30696ION     NA48220   7.434   9.196   0.134 -0.2926  0.2232  0.3295
30697ION     NA48221   3.193   6.757  10.597  0.0379  0.2300  0.0748
30698ION     NA48222  16.936  15.018  13.768  0.0191  0.1254  0.0884
30699ION     NA48223   4.220  10.795  10.794 -0.1254 -0.0846 -0.1381
30700ION     NA48224   7.120   3.650  12.135 -0.1281  0.0794 -0.0424
30701ION     NA48225   7.562   4.341  10.373 -0.0758 -0.2801 -0.1686
30702ION     NA48226   4.135   8.130   5.603  0.2905  0.0846  0.1293
30703ION     NA48227   0.373   2.146  13.497  0.2929  0.2314  0.2688
30704ION     NA48228   5.727   2.481  10.936 -0.2169 -0.0234 -0.1705
30705ION     NA48229   4.350  13.220   5.502  0.0301  0.3958  0.5069
30706ION     NA48230  13.734   9.208  12.825  0.0435 -0.0502 -0.3037
30707ION     NA48231   0.586   7.823  14.361  0.2699 -0.0660 -0.2038
30708ION     NA48232   9.311  13.806   5.688  0.0132  0.0176 -0.0860
30709ION     NA48233   7.008  14.823  15.391  0.1147 -0.0470  0.0127
30710ION     NA48234   5.816   7.509   5.802 -0.2822  0.2420  0.0081
30711ION     NA48235   1.175   5.994  11.202 -0.2432  0.1148  0.1847
30712ION     NA48236  17.251   1.460  10.817  0.0488  0.2749  0.0555
30713ION     NA48237   8.036  16.404  10.595  0.0748 -0.1139 -0.0845
30714ION     NA48238   6.562   9.861   4.013  0.0768 -0.0885  0.4362
30715ION     NA48239   6.319   5.985   5.439 -0.0196  0.0813 -0.1633
30716ION     NA48240  12.030   1.168   5.476 -0.0812 -0.1026  0.2291
30717ION     NA48241   3.885  17.601  12.910  0.1878 -0.0041  0.1254
30718ION     NA48242  16.632  16.239  12.191  0.0838 -0.3007 -0.2315
30719ION     NA48243   4.079  10.628  15.041  0.2245  0.1363  0.0893
30720ION     NA48244   1.055  17.896  10.549 -0.0836 -0.1445  0.1516
30721ION     NA48245  16.361  14.388  13.943  0.0771  0.3180  0.0352
30722ION     NA48246   6.280   9.835  13.630  0.1479 -0.3362 -0.3063
30723ION     NA48247  13.479  10.750   0.460 -0.1358 -0.1269  0.1389
30724ION     NA48248   4.719   1.128  12.260  0.1011 -0.0405 -0.0830
30725ION     NA48249   9.952   1.198  15.325 -0.1020 -0.1810 -0.2140
30726ION     NA48250   0.814   2.276   4.236 -0.0926 -0.1210  0.0085
30727ION     NA48251  15.448   7.860   4.636 -0.1001 -0.2135  0.0308
30728ION     NA48252  16.885  16.411   5.668 -0.1695  0.1910  0.0348
30729ION     NA48253  10.583   1.094   3.181 -0.1153 -0.1575  0.1934
30730ION     NA48254  10.385   7.229   0.904  0.2681  0.0294  0.0702
30731ION     NA48255   1.372   1.797   2.208 -0.3135 -0.1451 -0.0010
30732ION     NA48256  17.251  11.449  16.024 -0.0700  0.2250  0.2546
30733ION     NA48257  16.910   3.016  14.277  0.0549 -0.1267 -0.1458
30734ION     NA48258  14.491   6.366   5.384 -0.0136 -0.2164 -0.2505
30735ION     NA48259  12.395   3.541  14.302  0.1316  0.0572  0.1022
30736ION     NA48260   7.428   1.451   3.142 -0.0060  0.0000 -0.1414
30737ION     NA48261   0.546   7.100  10.454 -0.0152 -0.0564  0.2155
30738ION     NA48262   3.703  16.447  12.971 -0.2479 -0.1167 -0.1355
30739ION     NA48263  15.880  11.927  11.324  0.4037 -0.1332  0.1049
30740ION     NA48264   2.074   2.843  15.168 -0.0183  0.0930 -0.0836
30741ION     NA48265   6.369  10.337  10.634  0.1225  0.0893 -0.0464
30742ION     NA48266  12.419   4.714   5.613 -0.1527 -0.1029 -0.4116
30743ION     NA48267   1.924   5.616  14.109 -0.1426  0.0102 -0.2406
30744ION     NA48268  15.139   2.193   3.344  0.0236 -0.2142  0.1836
30745ION     NA48269  11.837  12.221   1.578 -0.0577 -0.2906 -0.1398
30746ION     NA48270  13.904   7.855   2.595  0.1017  0.1828 -0.0858
30747ION     NA48271   1.858  16.416   0.291 -0.0842  0.0018 -0.0120
30748ION     NA48272   6.027   9.591  10.502  0.1046 -0.1227 -0.1350
30749ION     NA48273  11.079   9.829  15.068 -0.2428 -0.1601 -0.0221
30750ION     NA48274  12.967   0.086   5.503  0.2822  0.0205 -0.3259
30751ION     NA48275   4.201  12.046  14.092  0.0176  0.0020 -0.0472
30752ION     NA48276   5.038   1.881   2.605 -0.2485  0.0073 -0.0991
30753ION     NA48277  12.981  15.568  14.989  0.3331  0.0374 -0.0841
30754ION     NA48278  14.172  10.655  10.478 -0.2063  0.1350  0.0657
30755ION     NA48279  17.896   7.720   4.231  0.4230  0.0897 -0.0574
30756ION     NA48280   6.096  14.896   6.121 -0.1306 -0.0364 -0.0003
30757ION     NA48281   9.484   8.335  11.338  0.0452 -0.4003  0.1772
30758ION     NA48282   0.461  11.121   2.868  0.4565  0.0052  0.0832
30759ION     NA48283   9.094  16.848   2.599 -0.0560 -0.0618 -0.4509
30760ION     NA48284   9.880   5.676  15.737 -0.0132  0.0935  0.0823
30761ION     NA48285   6.349   3.411   5.647  0.4606  0.4421 -0.0388
30762ION     NA48286   7.910  14.186  12.652 -0.1830  0.2230  0.2152
30763ION     NA48287  12.047  14.279   0.735  0.0121  0.1864  0.1118
30764ION     NA48288   8.287   5.038   5.365  0.0133 -0.1185 -0.2482
30765ION     NA48289   4.035   0.127  11.091  0.1112 -0.0128 -0.2782
30766ION     NA48290  13.133   2.663  10.815  0.0435 -0.0028 -0.3943
30767ION     NA48291   1.485   3.218  10.686 -0.0083 -0.1292  0.2913
30768ION     NA48292   7.176   1.149   1.030 -0.2453 -0.1305 -0.3574
30769ION     NA48293  14.975   8.928  13.709  0.1831 -0.0210  0.3089
30770ION     NA48294   3.209  14.990  15.087 -0.0207  0.4813  0.1132
30771ION     NA48295   8.119  17.855   5.723  0.0077 -0.0106  0.0774
30772ION     NA48296   1.944   8.508   1.266 -0.0922  0.0268  0.3142
30773ION     NA48297  12.098   6.481  12.419  0.3306 -0.1459  0.2094
30774ION     NA48298  13.196  13.687  14.633 -0.0509  0.0604 -0.1053
30775ION     NA48299   9.552  12.014   5.940 -0.2927  0.2204  0.1619
30776ION     NA48300   5.795   0.678  10.847  0.0352 -0.2502  0.1394
30777ION     NA48301   9.017   0.149  10.520  0.0001 -0.2330  0.1939
30778ION     NA48302  10.206  13.487  14.659  0.1980  0.1449  0.1141
30779ION     NA48303  14.393  17.909   5.651 -0.0891  0.2979  0.2772
30780ION     NA48304   8.184   6.876  13.600  0.1328  0.0406  0.0012
30781ION     NA48305   5.205  14.801  10.650  0.2612  0.2522 -0.3029
30782ION     NA48306   8.556  10.262   2.226  0.0373 -0.0140 -0.0373
30783ION     NA48307   1.979  14.088   5.800 -0.2150 -0.0784  0.0699
30784ION     NA48308  13.355  17.935   4.590 -0.0459  0.0345 -0.1796
30785ION     NA48309  16.898  13.274  14.067 -0.2473 -0.2737 -0.3126
30786ION     NA48310  17.320  17.240   5.803 -0.1801  0.4747 -0.1325
30787ION     NA48311  10.558  10.171   4.978  0.1698 -0.0714 -0.2242
30788ION     NA48312   9.567  16.517   5.531  0.0907  0.1236 -0.0108
30789ION     NA48313  14.395   9.956  12.910 -0.1189 -0.1151  0.3285
30790ION     NA48314   4.200   9.904  10.544 -0.0519 -0.2276 -0.0774
30791ION     NA48315   6.469  15.532  11.037 -0.1060  0.1758  0.1763
30792ION     NA48316   4.723   4.086   6.021  0.0593  0.2745  0.1068
30793ION     NA48317   1.820  10.303   6.332  0.1930 -0.2723  0.0180
30794ION     NA48318  13.502   2.665  15.755  0.0715 -0.2312 -0.2005
30795ION     NA48319  16.654   3.976  10.672  0.1417 -0.4154 -0.0991
30796ION     NA48320   7.669  11.760  10.690 -0.1896 -0.4992  0.1308
30797ION     NA48321   6.082   1.527  11.672  0.0168  0.3369 -0.0856
30798ION     NA48322   0.262  13.013  10.520  0.0802  0.0051  0.0656
30799ION     NA48323   8.507  12.080   1.305 -0.1700 -0.1518  0.2156
30800ION     NA48324  17.544   7.457  13.698  0.2286 -0.0262 -0.0397
30801ION     NA48325   6.133  14.625  13.945  0.1645 -0.0984  0.0108
30802ION     NA48326   7.737  16.323   6.015 -0.0999  0.1672  0.3802
30803ION     NA48327  10.364   0.836  12.688  0.1840  0.0264 -0.0459
30804ION     NA48328  11.092  13.303  12.960  0.0755 -0.0619 -0.1785
30805ION     NA48329   3.445  10.392   6.030  0.1538 -0.2170  0.1438
30806ION     NA48330  14.466  17.654   3.574  0.2756 -0.1098 -0.1670
30807ION     NA48331  16.341   3.991   5.708  0.1322  0.0427 -0.0106
30808ION     NA48332   3.286  13.437  15.569  0.1998 -0.1913 -0.0893
30809ION     NA48333  12.724   8.683   2.673  0.3107 -0.1912 -0.1253
30810ION     NA48334   7.323   7.723   2.064 -0.1873  0.0409 -0.1386
30811ION     NA48335  17.792   1.087   5.786  0.2745  0.2526  0.3040
30812ION     NA48336  10.117  14.074  10.777 -0.1715  0.2344 -0.1340
30813ION     NA48337   7.860  11.094   3.470 -0.1350 -0.2786 -0.0861
30814ION     NA48338   2.036   5.156   3.003  0.1772  0.0567 -0.2575
30815ION     NA48339  16.395   9.919   4.555 -0.0791  0.0694 -0.4005
30816ION     NA48340   0.105   7.468   5.541 -0.0025  0.0527 -0.1099
30817ION     NA48341  14.891   7.910   2.117  0.2644  0.2093 -0.2826
30818ION     NA48342  13.008  16.981  15.742 -0.1454 -0.0795  0.2918
30819ION     NA48343  14.871   9.302  12.420  0.0695 -0.0454  0.4588
30820ION     NA48344  12.833   2.140  13.333 -0.2081  0.2178  0.1387
30821ION     NA48345  15.320  10.258   5.295 -0.2866  0.0221  0.0315
30822ION     NA48346  11.004   3.671  10.605 -0.2874 -0.1340 -0.0269
30823ION     NA48347   8.916   0.827   5.384  0.2161  0.0774 -0.1140
30824ION     NA48348  10.039  12.364  12.691 -0.1417  0.1848  0.0936
30825ION     NA48349   1.979   8.149  10.610  0.0176  0.0901 -0.4295
30826ION     NA48350   7.657   9.055  11.033 -0.0825  0.0959 -0.0401
30827ION     NA48351  14.194  10.107   1.433  0.1498  0.3650  0.2437
30828ION     NA48352   1.512  14.479  10.539 -0.0711 -0.1881 -0.2243
30829ION     NA48353   3.715  17.009  10.781  0.0687 -0.0528  0.1903
30830ION     NA48354   8.667  12.727  15.971  0.1248  0.1027 -0.2054
30831ION     NA48355   7.843   4.513  11.881 -0.2451  0.2259  0.2074
30832ION     NA48356  17.291  11.669  10.423 -0.0748 -0.2060  0.0490
30833ION     NA48357   3.333   9.865   0.894 -0.3073 -0.0599  0.2755
30834ION     NA48358  15.193   2.362   4.331 -0.1212 -0.0775 -0.0481
30835ION     NA48359  16.690   0.566  10.963  0.0204 -0.3720  0.1982
30836ION     NA48360  14.250   7.332  14.080  0.1547  0.0227  0.0160
30837ION     NA48361  17.644  16.247   1.345  0.0178  0.2889  0.2390
30838ION     NA48362   9.203   9.155   4.801  0.1310 -0.2383  0.2940
30839ION     NA48363   5.293  15.180   6.126  0.1408 -0.2348 -0.0579
30840ION     NA48364  15.997  13.018   5.492 -0.1721 -0.3658 -0.1856
30841ION     NA48365  13.022  12.318  14.022 -0.0935 -0.0913  0.1751
30842ION     NA48366  12.847   5.565   5.558 -0.0568 -0.0333 -0.0326
30843ION     NA48367   4.985  17.439  14.244  0.1145 -0.0469  0.2859
30844ION     NA48368  15.445   8.645  10.404 -0.2440 -0.1423 -0.0387
30845ION     NA48369  11.884   5.523   5.441 -0.0545 -0.0324 -0.1160
30846ION     NA48370   5.069   7.212  10.762 -0.1035 -0.0381 -0.2432
30847ION     NA48371   8.267  16.970   3.850 -0.1712 -0.3101  0.1325
30848ION     NA48372  14.773   6.139   5.736  0.2082  0.1044 -0.4352
30849ION     NA48373  11.354  14.706   1.791  0.1772 -0.1711  0.0383
30850ION     NA48374  17.877   3.601   3.083  0.0808  0.0303  0.0472
30851ION     NA48375   3.162  13.625  14.042 -0.1996  0.1954  0.4134
30852ION     NA48376  17.436  12.828   0.171  0.1309 -0.3141 -0.1300
30853ION     NA48377   6.412   5.795   3.238 -0.0034  0.1505 -0.2483
30854ION     NA48378   3.801  17.388   2.837 -0.2177 -0.1445  0.0014
30855ION     NA48379  13.295  13.154  13.021  0.0469 -0.0665  0.0556
30856ION     NA48380   9.835   9.639   5.778  0.3699 -0.1655  0.0226
30857ION     NA48381   8.425  15.095   6.037 -0.0036 -0.0581 -0.1909
30858ION     NA48382  10.599   0.128   4.991  0.0092 -0.1722  0.0119
30859ION     NA48383  15.024   3.092   5.477 -0.1103  0.0664 -0.1359
30860ION     NA48384  13.591  11.830  13.321 -0.1419 -0.1572  0.0556
30861ION     NA48385  16.435   7.591   5.732  0.0212 -0.2948 -0.3499
30862ION     NA48386   9.293  17.071  13.759  0.1292  0.0528  0.0652
30863ION     NA48387   5.250  10.382  12.518  0.2360  0.0030  0.0857
30864ION     NA48388  11.674  16.259   5.295  0.0321 -0.1661 -0.2661
30865ION     NA48389   1.060   5.927  14.086  0.1090 -0.0025 -0.0356
30866ION     NA48390   7.671  10.454  13.249 -0.0427 -0.1586 -0.1213
30867ION     NA48391   2.491   8.018  15.023 -0.0432  0.1797 -0.0858
30868ION     NA48392  11.533   5.644   0.039 -0.0957 -0.0654 -0.1707
30869ION     NA48393   9.390   0.644  13.059  0.0621  0.2027 -0.0432
30870ION     NA48394   6.995   2.127  10.678  0.1866 -0.3314  0.0082
30871ION     NA48395  13.972   5.264  10.418  0.0904 -0.2013 -0.1110
30872ION     NA48396  11.643  11.998   5.820  0.2530 -0.1861 -0.0036
30873ION     NA48397  15.065  11.254  14.934  0.2510  0.3334 -0.0869
30874ION     NA48398   1.551  16.871   5.690 -0.2006 -0.1300 -0.1404
30875ION     NA48399   0.048   0.704  15.740 -0.1869  0.1135 -0.1293
30876ION     NA48400   8.117  11.102   5.895 -0.1294 -0.0473 -0.1556
30877ION     NA48401  17.434  17.699   2.549  0.1214  0.1441  0.1819
30878ION     NA48402  10.426  14.093   5.997  0.1300 -0.2329 -0.2610
30879ION     NA48403  17.461  11.065   4.842 -0.1234  0.0744  0.2239
30880ION     NA48404   0.839   4.663   1.380  0.1281 -0.2500  0.0293
30881ION     NA48405   5.258  15.469  15.345 -0.0427 -0.1856  0.0384
30882ION     NA48406   2.227   1.414   4.616 -0.0127  0.3301 -0.2016
30883ION     NA48407  12.240  17.089  10.649  0.2913  0.0529 -0.1373
30884ION     NA48408   6.555   2.569  16.167 -0.1075  0.0368 -0.2991
30885ION     NA48409  16.339  17.136  10.641  0.3964 -0.3693 -0.2886
30886ION     NA48410   8.995   5.873   0.775  0.0335  0.0652 -0.1512
30887ION     NA48411  16.338   6.367  11.001  0.3808 -0.2817 -0.2053
30888ION     NA48412   0.591   3.519   5.907  0.2404 -0.4009 -0.3331
30889ION     NA48413   8.311   3.287   5.496 -0.1667  0.0605 -0.2604
30890ION     NA48414  14.248  12.175  15.770 -0.0222 -0.0175  0.2067
30891ION     NA48415  17.557   6.298   2.035 -0.0176 -0.1563 -0.1653
30892ION     NA48416  12.219  11.616  12.895 -0.2864 -0.0643 -0.0300
30893ION     NA48417  12.475   0.441   4.263  0.2606  0.2784 -0.1052
30894ION     NA48418   1.805  15.911   5.943 -0.1910  0.0035 -0.1234
30895ION     NA48419   3.489  16.419   5.242 -0.1738 -0.0870 -0.1822
30896ION     NA48420  16.888   8.558  12.409  0.2090  0.1098  0.0937
30897ION     NA48421   6.062   4.481   5.534 -0.1441  0.0029 -0.1130
30898ION     NA48422   0.543   6.891   2.817  0.3760  0.1468 -0.2582
30899ION     NA48423   7.317   3.371   5.355 -0.2192  0.0422 -0.3032
30900ION     NA48424   0.789   3.839  10.662  0.1261 -0.0030  0.1721
30901ION     NA48425   2.556   2.756  14.697 -0.0664  0.0331  0.1454
30902ION     NA48426   1.881  16.395  10.948 -0.4113  0.0284  0.0018
30903ION     NA48427   2.920  14.708   1.422 -0.1535  0.0965  0.1592
30904ION     NA48428   8.321  12.834   3.394  0.3057 -0.1626  0.2007
30905ION     NA48429  14.254   4.660  10.921 -0.0495 -0.0143 -0.1373
30906ION     NA48430   7.462   6.362  13.402  0.0968  0.0162 -0.1107
30907ION     NA48431   0.067  11.757   5.956  0.3940  0.0610 -0.0619
30908ION     NA48432   9.790   6.796  12.889 -0.0705  0.1816  0.2059
30909ION     NA48433   1.318  11.564   2.541  0.3321 -0.1351 -0.1160
30910ION     NA48434  10.253   4.337  10.171 -0.1002  0.0350 -0.1013
30911ION     NA48435   0.536   3.410   1.950 -0.0763  0.1435  0.0762
30912ION     NA48436   4.380   5.121   3.690 -0.1434 -0.1002  0.0708
30913ION     NA48437  11.777   8.819  10.484  0.2416  0.0692  0.0519
30914ION     NA48438  11.496   4.291  16.239 -0.2516  0.1813 -0.3218
30915ION     NA48439   8.901   0.177  14.550  0.1609  0.0848 -0.1464
30916ION     NA48440   7.446   8.390   5.644 -0.1004 -0.4384 -0.0489
30917ION     NA48441  17.027  12.919   4.520 -0.3348  0.1432 -0.1513
30918ION     NA48442   4.236  12.668   5.567 -0.0249  0.0537 -0.5247
30919ION     NA48443  15.716   4.636   5.815  0.1075  0.2987 -0.0859
30920ION     NA48444   8.270   5.365   3.125 -0.0635 -0.0659 -0.1188
30921ION     NA48445   4.748   0.820  10.778 -0.0238 -0.1650  0.0953
30922ION     NA48446  11.633   0.582  15.084 -0.3516 -0.2204 -0.2787
30923ION     NA48447   7.766  16.042   1.375  0.0378 -0.1162 -0.1234
30924ION     NA48448   8.822  16.047  12.673 -0.1480 -0.0602 -0.1444
30925ION     NA48449  15.230  14.766  10.433  0.1359 -0.1152  0.1024
30926ION     NA48450   8.742   8.486   3.571 -0.1441  0.4786  0.2249
30927ION     NA48451   0.298  11.026   1.186  0.0804  0.1549  0.1861
30928ION     NA48452   6.190  17.853  10.972  0.1834 -0.0555  0.0944
30929ION     NA48453   1.614   4.255   0.878  0.1789  0.1019 -0.4073
30930ION     NA48454   9.839  17.538  12.712 -0.0079  0.5058 -0.2538
30931ION     NA48455   2.039  12.050  10.773  0.1011 -0.0081  0.0366
30932ION     NA48456  15.456   6.812  15.900 -0.0465  0.2753 -0.1396
30933ION     NA48457  12.372   5.744  11.149  0.0130  0.0961  0.2679
30934ION     NA48458   4.309   4.168   3.627 -0.2853 -0.0829 -0.2150
30935ION     NA48459   7.442   4.739   5.414  0.0153 -0.3860  0.2849
30936ION     NA48460  15.016  16.571  11.638 -0.2267 -0.4332  0.1226
30937ION     NA48461   5.407  17.933   3.210 -0.0979 -0.2468  0.1784
30938ION     NA48462   9.759  11.203   4.636 -0.2754  0.2365  0.1501
30939ION     NA48463  15.755  17.544   1.030  0.3244 -0.3693 -0.0157
30940ION     NA48464  12.971   0.971   5.427  0.0550 -0.1207 -0.0977
30941ION     NA48465  16.039  10.059  10.051  0.0222  0.0702 -0.2611
30942ION     NA48466  12.797   9.561   5.113 -0.0673  0.0037 -0.0707
30943ION     NA48467  12.830   1.340  14.336  0.1398 -0.0602 -0.1536
30944ION     NA48468   7.079  14.867   6.035 -0.2439  0.3110 -0.2037
30945ION     NA48469   4.971   1.342   5.879 -0.3495  0.1908  0.0985
30946ION     NA48470   7.569  15.355   5.992 -0.0156  0.1224 -0.0013
30947ION     NA48471  15.991  12.824   0.403  0.2658 -0.2377  0.1374
30948ION     NA48472  13.477  15.014  10.439 -0.2210 -0.0605  0.2923
30949ION     NA48473   3.553   0.093  10.998 -0.0682 -0.0210  0.1589
30950ION     NA48474  12.680   2.501  10.667 -0.0831  0.0918 -0.0296
30951ION     NA48475  16.029  14.583  10.208 -0.1839  0.1680 -0.2994
30952ION     NA48476  10.055   8.678   3.402 -0.1230 -0.0216 -0.0037
30953ION     NA48477  14.644  12.487  14.880 -0.2290  0.1085  0.0345
30954ION     NA48478   7.299  13.956   6.015  0.0167 -0.0556 -0.1796
30955ION     NA48479  16.409   7.652  13.395 -0.0155 -0.0388  0.1183
30956ION     NA48480  16.385  16.055  15.510 -0.3131 -0.1923 -0.0222
30957ION     NA48481  10.906   7.487  10.439 -0.1214 -0.0841  0.0619
30958ION     NA48482   6.373   2.347  12.239 -0.0338  0.0141  0.1729
30959ION     NA48483   3.490   8.112   4.700 -0.2678 -0.0914 -0.1591
30960ION     NA48484  16.134   2.045   2.841 -0.0244 -0.0329 -0.1012
30961ION     NA48485   3.441   7.519   5.761 -0.1036  0.0775  0.2014
30962ION     NA48486   9.072   1.979   5.452 -0.0379 -0.2614  0.1643
30963ION     NA48487  14.405   9.230  13.518 -0.1310 -0.1181  0.3313
30964ION     NA48488   7.580  11.878   1.409 -0.1078 -0.2746  0.0787
30965ION     NA48489  15.657   7.759   5.790  0.0271 -0.0002 -0.0000
30966ION     NA48490   2.621   0.367   5.712 -0.0259  0.0750  0.1443
30967ION     NA48491  14.150  13.636  15.634 -0.2908  0.3133 -0.1866
30968ION     NA48492   3.001   1.814  13.756 -0.0724 -0.1139 -0.0403
30969ION     NA48493  13.992  12.517   3.294 -0.0621  0.2412 -0.2290
30970ION     NA48494  10.097   2.598  11.158 -0.3279  0.0509 -0.0227
30971ION     NA48495   4.893   2.694  14.863  0.0964  0.1286  0.1611
30972ION     NA48496   0.850   9.676  15.475  0.2224 -0.3915  0.0522
30973ION     NA48497   2.241  13.181   5.711  0.0739 -0.2677  0.3262
30974ION     NA48498  11.337   6.893   5.445  0.2272 -0.2168 -0.1110
30975ION     NA48499   2.419  11.819  15.298 -0.2498 -0.1021 -0.2270
30976ION     NA48500   0.829   5.229   0.304 -0.1229  0.1883 -0.0205
30977ION     NA48501  13.884   7.115   2.208 -0.1678 -0.0850  0.0446
30978ION     NA48502  12.530  12.092  15.838  0.0478 -0.1008 -0.0044
30979ION     NA48503  11.078  16.469   5.627  0.0193  0.2885  0.1912
30980ION     NA48504  10.644  17.686   0.068 -0.2123  0.0453  0.2356
30981ION     NA48505  12.069   3.492   5.117 -0.2113  0.2533  0.1321
30982ION     NA48506  14.021  14.054  10.515 -0.0453 -0.2260  0.1864
30983ION     NA48507   9.624  13.889  15.541 -0.0124 -0.0180  0.1054
30984ION     NA48508   7.660   9.821   2.852  0.1548  0.0058  0.2684
30985ION     NA48509  14.141   6.777  10.409  0.0717 -0.1120 -0.4002
30986ION     NA48510   8.605   6.168  13.776  0.2712  0.3289  0.1803
30987ION     NA48511   2.099  13.617   4.063 -0.2605  0.0101  0.1159
30988ION     NA48512   6.469  15.493   1.368 -0.0060 -0.1836  0.3453
30989ION     NA48513  16.255  12.182   5.981  0.3083 -0.3562  0.2138
30990ION     NA48514  13.309  16.653   5.597 -0.0475 -0.2307  0.4213
30991ION     NA48515  12.696  10.179  10.413  0.0449  0.0688  0.3352
30992ION     NA48516   7.877  17.934  14.412  0.0069  0.4688 -0.0555
30993ION     NA48517  13.815  10.003  10.390  0.3266 -0.1512 -0.1797
30994ION     NA48518  13.540   9.269   2.604  0.3222 -0.0394 -0.0495
30995ION     NA48519   9.369  10.734   2.978  0.2759 -0.1135 -0.0845
30996ION     NA48520   9.029  10.438  13.398  0.1560 -0.1762  0.4653
30997ION     NA48521   9.601  14.834  10.488  0.0145 -0.3888  0.3019
30998ION     NA48522   5.838  14.261  10.658 -0.4297  0.1707 -0.0680
30999ION     NA48523   1.564   6.214   2.499  0.3566  0.2477  0.3186
31000ION     NA48524  13.920  13.796   0.229  0.1709  0.0320  0.0272
31001ION     NA48525   8.612   3.641  10.520 -0.0645 -0.2199 -0.1640
31002ION     NA48526  17.716   9.269  10.453 -0.0006  0.0719  0.0111
31003ION     NA48527  17.142   3.262   5.893 -0.3624 -0.0451  0.2461
31004ION     NA48528   6.681  11.651  10.731 -0.1585 -0.2679  0.0390
31005ION     NA48529  16.124  16.154  10.507  0.0982 -0.0401  0.1437
31006ION     NA48530   4.744  17.541   0.549 -0.1506  0.2058 -0.1256
31007ION     NA48531   8.326   5.770  14.868 -0.1096 -0.0179  0.0736
31008ION     NA48532  12.879   3.372   5.481 -0.1042  0.3556  0.1188
31009ION     NA48533  11.636  11.148   5.699  0.0508 -0.3788 -0.1158
31010ION     NA48534   5.878  15.111  13.097 -0.0528 -0.1854 -0.2019
31011ION     NA48535  13.006  15.165   5.457 -0.2021  0.4983  0.3513
31012ION     NA48536   0.363  16.262   5.630 -0.4234  0.0298  0.0581
31013ION     NA48537   5.398  17.851  10.875 -0.0729  0.0431  0.0794
31014ION     NA48538  12.882  11.275   5.611 -0.0562 -0.1494 -0.1226
31015ION     NA48539   1.498  17.176   2.106 -0.0787 -0.3334  0.0851
31016ION     NA48540  17.913   9.261   5.845 -0.1055 -0.1560 -0.0454
31017ION     NA48541  17.392   3.605  15.016 -0.1056  0.0896 -0.0263
31018ION     NA48542  11.037  10.322  12.509  0.0135  0.0782 -0.2105
31019ION     NA48543  11.654  12.453  12.141  0.1396  0.2161 -0.0296
31020ION     NA48544   4.380   3.405  10.695  0.0480  0.0158  0.1689
31021ION     NA48545   8.950   2.684   5.229 -0.1003  0.0872 -0.0412
31022ION     NA48546  12.871   4.336  10.319 -0.0884  0.2254  0.0967
31023ION     NA48547  16.022  16.130   5.692  0.1094 -0.0377  0.0040
31024ION     NA48548   2.692   8.631  10.853  0.1577  0.0957 -0.0601
31025ION     NA48549   7.552   3.489  10.370  0.1011  0.1697  0.2820
31026ION     NA48550  16.082   3.305  10.687  0.0314 -0.3393 -0.3519
31027ION     NA48551   9.332  12.797  13.243 -0.1706  0.5343 -0.0004
31028ION     NA48552   7.274   4.882   3.592  0.2212  0.0377 -0.0180
31029ION     NA48553   0.595   7.396   3.719 -0.3453 -0.2975  0.3857
31030ION     NA48554   0.460  12.089   0.059 -0.0298  0.0434  0.3418
31031ION     NA48555  16.264  13.622  10.507  0.0352 -0.0648 -0.0045
31032ION     NA48556   6.446  14.117   6.093 -0.1797  0.1228  0.1131
31033ION     NA48557   9.883  13.864  11.666 -0.0553  0.2750  0.2262
31034ION     NA48558   0.619  14.303   1.349  0.0812 -0.1485  0.1918
31035ION     NA48559   0.832   6.932   0.033 -0.0778  0.2063  0.2229
31036ION     NA48560   3.429   2.472   1.929  0.0095 -0.0025 -0.0597
31037ION     NA48561  15.590  17.877  10.533 -0.0042 -0.0591 -0.1568
31038ION     NA48562   5.568  12.164   2.716 -0.3573 -0.0254 -0.1297
31039ION     NA48563   7.176  13.323  10.466  0.1569 -0.1333 -0.2285
31040ION     NA48564  12.487   7.857  16.017 -0.0431  0.3206  0.0470
31041ION     NA48565   9.307  17.505  10.301 -0.0246 -0.1580 -0.1322
31042ION     NA48566  16.129   1.741  15.209 -0.2383  0.2183 -0.4008
31043ION     NA48567   5.405  14.762   3.671 -0.0722  0.2825 -0.2632
31044ION     NA48568  15.445  12.866  10.460 -0.0900 -0.1566  0.1264
31045ION     NA48569  17.682  12.456   2.486 -0.0255  0.0819 -0.3071
31046ION     NA48570   6.474  17.675  15.906 -0.1053 -0.2266 -0.1865
31047ION     NA48571   8.676  14.240  13.350  0.0362 -0.0363  0.1178
31048ION     NA48572   9.356   2.592   3.184  0.1188  0.0570 -0.1057
31049ION     NA48573   1.199   7.649  10.487 -0.0702  0.0076  0.1707
31050ION     NA48574   8.373  13.744  16.058  0.1102 -0.1035 -0.1669
31051ION     NA48575   1.455  10.868  10.825  0.2759 -0.2187  0.4001
31052ION     NA48576  14.512  11.492  10.727 -0.1869  0.1121  0.2411
31053ION     NA48577   6.014   6.741   5.828 -0.0905 -0.0528 -0.1333
31054ION     NA48578   6.365   5.884  13.977  0.0970  0.2445 -0.0824
31055ION     NA48579  11.486   2.613   5.407  0.1673 -0.3136  0.1095
31056ION     NA48580  10.029  14.949   5.535  0.3215  0.2088  0.2880
31057ION     NA48581   1.527  12.392   5.754 -0.0227 -0.2046 -0.2989
31058ION     NA48582   5.687   9.841  12.019  0.2856  0.0217 -0.0984
31059ION     NA48583  11.835   9.160  14.318  0.1802  0.0840 -0.0572
31060ION     NA48584   2.227  10.824  13.145  0.0837  0.0495  0.1250
31061ION     NA48585  15.261  11.359   5.544  0.0241  0.0650  0.1552
31062ION     NA48586   9.035  15.657  10.656  0.2078 -0.0808  0.0140
31063ION     NA48587  16.643   5.129  12.657  0.1815 -0.0155 -0.3018
31064ION     NA48588  14.131  14.870  14.439  0.1734 -0.2410  0.1438
31065ION     NA48589   1.958   9.278   6.053 -0.3796 -0.0265  0.1072
31066ION     NA48590   6.884  14.269   0.455  0.0188 -0.1863 -0.3043
31067ION     NA48591   6.396  16.091  13.982 -0.0637 -0.3074 -0.0314
31068ION     NA48592  12.996   3.881   0.571  0.1617 -0.1300 -0.2619
31069ION     NA48593   8.614  15.005   1.624  0.1789  0.1114  0.0612
31070ION     NA48594   8.317   4.841  10.459  0.1350 -0.0817  0.2022
31071ION     NA48595   5.217  17.184   6.023 -0.0676 -0.1660  0.1805
31072ION     NA48596  13.583   6.343  12.786 -0.2303 -0.0023 -0.0378
31073ION     NA48597  10.723   0.766  10.458 -0.2589 -0.0148 -0.2354
31074ION     NA48598  12.703  15.824   1.289  0.0485 -0.0270 -0.0726
31075ION     NA48599  17.092  14.305  12.849  0.1996 -0.0980 -0.1578
31076ION     NA48600   0.364   9.778   5.287  0.3002 -0.0446 -0.0026
31077ION     NA48601   4.012  14.442  10.912  0.1207  0.2917  0.1497
31078ION     NA48602  12.720  12.775   5.787 -0.1455 -0.0834 -0.1122
31079ION     NA48603  14.762   9.874  10.430 -0.1986  0.0894 -0.0456
31080ION     NA48604   0.884  13.845   0.122  0.1536 -0.3698  0.2558
31081ION     NA48605  12.289  10.632   5.215 -0.2204 -0.5922  0.2018
31082ION     NA48606   7.683   6.517  14.808 -0.0527 -0.0344 -0.2620
31083ION     NA48607  12.208   7.940   4.349 -0.1116 -0.2800  0.1954
31084ION     NA48608   7.463   0.647   5.666 -0.3535  0.0999  0.1380
31085ION     NA48609   2.245   1.961  15.585  0.1561 -0.1364  0.2676
31086ION     NA48610  15.032  10.367   5.689  0.0684 -0.0211 -0.0599
31087ION     NA48611  11.518  12.174  14.300 -0.1321  0.1759 -0.3004
31088ION     NA48612   7.157   4.941   0.644 -0.4150  0.1159  0.1983
31089ION     NA48613  13.611  11.140   5.225  0.0899  0.2082 -0.2592
31090ION     NA48614   4.993  17.160  15.528  0.1928 -0.1560 -0.0499
31091ION     NA48615  12.592   2.023   4.847 -0.1504  0.0749  0.1728
31092ION     NA48616   7.342  12.389   6.107 -0.1750 -0.1523 -0.2310
31093ION     NA48617  16.029   1.484   1.539  0.0113 -0.1628  0.0262
31094ION     NA48618   0.101   4.621   5.899  0.1406  0.0301  0.2453
31095ION     NA48619   8.885   8.265  10.625 -0.0910  0.0078  0.1039
31096ION     NA48620  14.831  12.490   0.155  0.0417  0.4149  0.0891
31097ION     NA48621   2.225   3.445  10.619 -0.0292  0.1635 -0.0898
31098ION     NA48622   6.236   8.444   0.034  0.1255 -0.0619 -0.2791
31099ION     NA48623   8.008  13.877   3.780 -0.1213 -0.0719  0.2091
31100ION     NA48624   6.882   9.155  10.604 -0.0199  0.2342  0.0063
31101ION     NA48625  15.682   6.605   2.857  0.2036  0.1615  0.3215
31102ION     NA48626   4.820   8.417   3.652 -0.2022  0.1084  0.2760
31103ION     NA48627  11.569  15.628   5.763 -0.1964 -0.2342  0.0406
31104ION     NA48628   9.395   9.418  13.139 -0.0840 -0.5639  0.3392
31105ION     NA48629  11.934  17.518   5.530 -0.1700  0.1833  0.1281
31106ION     NA48630   2.976  11.579  13.419 -0.0857  0.1813 -0.0045
31107ION     NA48631   6.818   6.374   5.922 -0.0882 -0.1680 -0.3122
31108ION     NA48632  10.643   5.648   2.117  0.0331 -0.2320 -0.0406
31109ION     NA48633  13.069   1.288   5.060 -0.2035 -0.1818 -0.0046
31110ION     NA48634   6.464  13.196  15.099  0.2804  0.1266 -0.0662
31111ION     NA48635  13.913   5.620  15.872 -0.0794  0.0066 -0.1875
31112ION     NA48636   2.714   0.756  15.456  0.4538 -0.2094  0.0017
31113ION     NA48637   3.924   4.287   2.264 -0.1129  0.0394 -0.3344
31114ION     NA48638  17.679  17.959  10.549 -0.0642 -0.1001 -0.3077
31115ION     NA48639   4.692   9.391   5.872  0.0362 -0.2662  0.0779
31116ION     NA48640  15.783   5.025  10.521 -0.0759 -0.5102  0.1337
31117ION     NA48641   3.568  16.787  15.170  0.3521  0.1694 -0.1718
31118ION     NA48642   7.171   9.097  15.201  0.1212 -0.0645 -0.0755
31119ION     NA48643  10.151   1.829   0.338  0.0017 -0.1600 -0.3573
31120ION     NA48644   4.883  14.307  14.126  0.0237  0.3686 -0.0234
31121ION     NA48645   6.438   4.767  12.873  0.3825  0.0678 -0.0555
31122ION     NA48646   9.969   2.167   5.506 -0.2301 -0.0959  0.0661
31123ION     NA48647  10.523  13.288  10.612 -0.2075  0.0646 -0.0440
31124ION     NA48648   6.367  12.413   1.418 -0.1980 -0.2605  0.0516
31125ION     NA48649  12.292  16.890  11.982 -0.0474  0.0662  0.1656
31126ION     NA48650  11.175   1.806   3.313  0.1753  0.1586  0.2100
31127ION     NA48651  10.667  10.651   3.376 -0.1954 -0.0566 -0.0079
31128ION     NA48652   3.017   5.742  10.673  0.0966  0.2569  0.3305
31129ION     NA48653   5.649  13.276   6.078 -0.1216  0.1662  0.0332
31130ION     NA48654   7.018  13.041  15.776 -0.0198 -0.1608  0.1264
31131ION     NA48655   4.926  16.531   3.018  0.0400  0.1290  0.4179
31132ION     NA48656  11.542  11.033   3.773  0.3810 -0.1122 -0.0861
31133ION     NA48657  12.706  14.672  13.898 -0.3704 -0.0814  0.0238
31134ION     NA48658   1.562   4.267  10.611  0.0061  0.0234  0.2855
31135ION     NA48659  11.027   8.406   5.445 -0.1268  0.0660 -0.3205
31136ION     NA48660   1.638  11.223   5.948 -0.0666 -0.0141  0.0851
31137ION     NA48661   2.194  15.032  10.810  0.1733 -0.0126 -0.2059
31138ION     NA48662   3.833   5.772   2.644  0.1536 -0.3306  0.0824
31139ION     NA48663  11.885   1.756   2.542  0.0339 -0.0632 -0.0134
31140ION     NA48664  17.267  16.687  16.125 -0.0011 -0.1857 -0.1562
31141ION     NA48665  16.470   7.831   0.954 -0.0876 -0.2508 -0.0694
31142ION     NA48666   3.412   9.677  10.801 -0.0752 -0.0974  0.0276
31143ION     NA48667  17.482   2.457  11.080  0.2499  0.0233  0.1683
31144ION     NA48668   6.591   4.064   0.780  0.0114  0.0334 -0.2743
31145ION     NA48669  10.878  12.609   5.824  0.0382 -0.0043  0.2011
31146ION     NA48670  13.649   5.243  12.119  0.0392 -0.0929  0.0784
  17.96354  17.96354  16.26030
