INSANE! Membrane UpperLeaflet>loPI:POPI:DPPI:PYPI:ERGO=30.0:5.0:3.0:2.0:10.0 LowerLeaflet>loPI:POPI:DPPI:PYPI:ERGO=30.0:5.0:3.0:2.0:10.0
48670
    1loPI    C1    1  12.218  17.746  10.692 -0.2699 -0.0830  0.1634
    1loPI    C2    2  12.564  17.878  10.845 -0.1933 -0.1437  0.0435
    1loPI    C3    3  12.455  17.496  10.895 -0.2320 -0.1304  0.0618
    1loPI   PO4    4  12.267  17.898  10.472  0.0632 -0.0319 -0.0077
    1loPI   GL1    5  12.223  17.730  10.035 -0.4928 -0.2206 -0.0909
    1loPI   GL2    6  11.940  17.881  10.062  0.2238  0.0284 -0.2578
    1loPI   C1A    7  12.157  17.577   9.488 -0.0486 -0.0902  0.1866
    1loPI   C2A    8  12.166  17.483   9.047  0.0864  0.1412  0.0432
    1loPI   C3A    9  11.819  17.382   8.720 -0.1039  0.3260 -0.3700
    1loPI   C4A   10  11.655  17.156   8.398  0.0918 -0.0042  0.2856
    1loPI   C5A   11  11.836  17.452   8.045  0.0063  0.0130  0.0809
    1loPI   C6A   12  11.838  17.805   7.666  0.4531  0.0142 -0.0818
    1loPI   C1B   13  11.870  18.013   9.632  0.0011  0.0051 -0.0734
    1loPI   C2B   14  11.821  17.926   9.217 -0.0503 -0.0465  0.2281
    1loPI   C3B   15  11.929  17.880   8.839  0.1578 -0.2280 -0.0173
    1loPI   C4B   16  12.069  17.700   8.400  0.1577 -0.0513  0.2205
    2loPI    C1   17   1.171   9.879  10.925 -0.1800  0.0637 -0.2248
    2loPI    C2   18   1.433   9.979  10.640 -0.0506  0.0100 -0.1256
    2loPI    C3   19   1.558   9.923  11.016 -0.2224  0.0922 -0.0554
    2loPI   PO4   20   0.924  10.061  10.759 -0.2578 -0.4325  0.0367
    2loPI   GL1   21   0.943   9.963  10.262  0.2054 -0.0042  0.1713
    2loPI   GL2   22   0.606   9.995  10.316 -0.3719  0.2862  0.2468
    2loPI   C1A   23   1.008   9.879   9.774 -0.0615 -0.4304 -0.0443
    2loPI   C2A   24   1.051   9.751   9.350  0.1578  0.1076  0.1367
    2loPI   C3A   25   1.349   9.537   9.135  0.1079  0.1894  0.2404
    2loPI   C4A   26   1.662   9.460   8.829 -0.0015 -0.0794  0.0371
    2loPI   C5A   27   1.746   9.135   8.572  0.0643 -0.2131  0.1480
    2loPI   C6A   28   1.942   8.949   8.241  0.2155  0.0664 -0.1614
    2loPI   C1B   29   0.510   9.842   9.973  0.4814  0.0403  0.0638
    2loPI   C2B   30   0.575   9.805   9.541  0.0130  0.1007  0.0406
    2loPI   C3B   31   0.661   9.978   9.172 -0.1033 -0.1708  0.0941
    2loPI   C4B   32   0.933  10.150   8.866  0.2758  0.2097 -0.1215
    3loPI    C1   33  14.362  16.162  10.626  0.3479  0.2323  0.0403
    3loPI    C2   34  14.483  15.998  10.971  0.0247 -0.0038  0.0463
    3loPI    C3   35  14.296  15.774  10.698 -0.0982  0.2761 -0.1038
    3loPI   PO4   36  14.599  16.310  10.587 -0.2799 -0.0594 -0.0476
    3loPI   GL1   37  14.670  16.520  10.287 -0.0157  0.2848 -0.1292
    3loPI   GL2   38  14.522  16.226  10.086  0.0699  0.0811 -0.3629
    3loPI   C1A   39  14.805  16.837   9.925  0.2246 -0.0292  0.2226
    3loPI   C2A   40  14.899  16.811   9.481 -0.2981 -0.1628 -0.3126
    3loPI   C3A   41  14.766  16.730   9.167 -0.0381  0.0168  0.1285
    3loPI   C4A   42  15.072  16.666   8.870  0.0109 -0.5365  0.0207
    3loPI   C5A   43  15.509  16.690   8.660 -0.0464 -0.0956  0.0480
    3loPI   C6A   44  15.733  16.430   8.382  0.0483 -0.4566  0.0805
    3loPI   C1B   45  14.844  16.350   9.779 -0.2565 -0.0942  0.4448
    3loPI   C2B   46  15.226  16.189   9.617 -0.0041  0.0897  0.1426
    3loPI   C3B   47  15.569  16.128   9.758  0.0592  0.4159 -0.3361
    3loPI   C4B   48  15.773  15.776   9.917  0.2186  0.1094  0.1097
    4loPI    C1   49  17.250   9.191  10.692 -0.0389  0.1125 -0.0490
    4loPI    C2   50  17.009   9.200  11.010 -0.1143  0.2165 -0.1086
    4loPI    C3   51  17.405   9.200  11.060 -0.1219 -0.3091  0.0007
    4loPI   PO4   52  17.163   8.979  10.511 -0.5964  0.1621  0.1671
    4loPI   GL1   53  17.302   8.934  10.117 -0.0376 -0.3266  0.1724
    4loPI   GL2   54  17.433   8.607  10.242  0.2885  0.2397  0.3390
    4loPI   C1A   55  17.443   9.131   9.813 -0.3486 -0.3456 -0.0685
    4loPI   C2A   56  17.553   9.347   9.449 -0.1132 -0.2426 -0.0890
    4loPI   C3A   57  17.805   9.750   9.257 -0.4148  0.0101 -0.3531
    4loPI   C4A   58  18.001   9.730   8.862  0.1278 -0.3715  0.1336
    4loPI   C5A   59  18.181  10.100   8.674  0.3475  0.0337  0.0753
    4loPI   C6A   60  18.184  10.513   8.635 -0.0782 -0.1486  0.0643
    4loPI   C1B   61  17.462   8.469   9.853  0.1492 -0.0835 -0.1368
    4loPI   C2B   62  17.400   8.604   9.469 -0.0234  0.2285 -0.1169
    4loPI   C3B   63  17.408   8.861   9.152 -0.1825  0.1701  0.0907
    4loPI   C4B   64  17.752   9.139   8.980 -0.2251 -0.1078  0.1537
    5loPI    C1   65   3.145  17.188  10.710 -0.2375 -0.0097 -0.1247
    5loPI    C2   66   2.900  17.209  11.025  0.0212  0.3566  0.0609
    5loPI    C3   67   3.293  17.263  11.074  0.1994 -0.5520 -0.1768
    5loPI   PO4   68   2.936  17.301  10.462 -0.4377 -0.3013  0.2265
    5loPI   GL1   69   2.866  17.651  10.221  0.0380 -0.0581  0.2506
    5loPI   GL2   70   2.519  17.727  10.240 -0.2507 -0.3363  0.0781
    5loPI   C1A   71   2.821  17.689   9.747 -0.0436 -0.1940  0.3512
    5loPI   C2A   72   2.725  17.641   9.329  0.0073  0.0933  0.1000
    5loPI   C3A   73   2.374  17.598   8.937 -0.2157 -0.2069  0.3105
    5loPI   C4A   74   2.307  17.590   8.501  0.1592 -0.1157  0.0781
    5loPI   C5A   75   2.305  17.678   8.179 -0.3515 -0.0168  0.1941
    5loPI   C6A   76   2.064  17.971   7.956 -0.0098 -0.1562  0.0530
    5loPI   C1B   77   2.331  17.714   9.769  0.0739 -0.1864 -0.0562
    5loPI   C2B   78   2.246  17.830   9.392 -0.2613 -0.0397 -0.1757
    5loPI   C3B   79   2.150  18.091   9.081 -0.1205  0.3580  0.0059
    5loPI   C4B   80   1.980  17.882   8.737  0.0421 -0.1670 -0.1810
    6loPI    C1   81   8.628  11.417  10.631  0.1794 -0.0265  0.0889
    6loPI    C2   82   8.303  11.364  10.857  0.0781  0.0586 -0.0350
    6loPI    C3   83   8.549  11.670  10.931  0.1227  0.0031  0.0492
    6loPI   PO4   84   8.565  11.332  10.385 -0.0920 -0.3852  0.2852
    6loPI   GL1   85   8.455  11.337  10.024 -0.2694 -0.0945 -0.1021
    6loPI   GL2   86   8.801  11.435   9.970 -0.3272  0.0708 -0.0279
    6loPI   C1A   87   8.358  11.163   9.688  0.0035 -0.1029  0.0240
    6loPI   C2A   88   7.944  11.085   9.501 -0.0882  0.0912  0.3952
    6loPI   C3A   89   7.809  11.162   9.105 -0.0306 -0.0559  0.1694
    6loPI   C4A   90   7.739  11.352   8.655  0.1854 -0.0918 -0.1812
    6loPI   C5A   91   7.827  11.342   8.282 -0.2299 -0.2282 -0.0356
    6loPI   C6A   92   7.883  11.559   8.019 -0.3333  0.0634 -0.1633
    6loPI   C1B   93   9.019  11.481   9.558 -0.2426 -0.1895  0.4072
    6loPI   C2B   94   8.742  11.400   9.238 -0.1156 -0.0685  0.0435
    6loPI   C3B   95   8.401  11.357   9.214 -0.1339  0.0552  0.0877
    6loPI   C4B   96   8.270  11.429   8.813  0.1067  0.1191 -0.0458
    7loPI    C1   97   7.611   9.221  10.731 -0.3460 -0.0891 -0.1917
    7loPI    C2   98   7.561   8.866  10.910 -0.0973 -0.0544 -0.0485
    7loPI    C3   99   7.456   9.203  11.099  0.0331 -0.0270 -0.0236
    7loPI   PO4  100   7.678   9.084  10.456 -0.0547 -0.0620 -0.3171
    7loPI   GL1  101   7.661   9.262  10.042  0.0165 -0.1788  0.0339
    7loPI   GL2  102   7.929   9.373   9.988 -0.2252 -0.0903 -0.0352
    7loPI   C1A  103   7.639   9.475   9.610  0.0170  0.0019 -0.0663
    7loPI   C2A  104   7.678   9.403   9.122 -0.0596 -0.0247  0.2280
    7loPI   C3A  105   7.580   9.368   8.640 -0.3489  0.1483  0.0133
    7loPI   C4A  106   7.640   9.427   8.216  0.2108  0.0748  0.1604
    7loPI   C5A  107   7.896   9.751   8.013  0.1305  0.0831 -0.0012
    7loPI   C6A  108   7.757   9.903   7.649 -0.0246 -0.0824 -0.0631
    7loPI   C1B  109   8.043   9.723   9.560  0.0094  0.0558 -0.0073
    7loPI   C2B  110   8.134   9.712   9.089  0.4497  0.1472  0.5375
    7loPI   C3B  111   8.084   9.480   8.747  0.0003  0.2686 -0.1387
    7loPI   C4B  112   8.172   9.398   8.350  0.3254  0.0568 -0.1626
    8loPI    C1  113  10.477  16.039  10.723  0.0694  0.1678 -0.2156
    8loPI    C2  114  10.292  16.341  10.909  0.1786  0.0539  0.0827
    8loPI    C3  115  10.083  16.021  10.790  0.1482  0.0133  0.2416
    8loPI   PO4  116  10.619  16.174  10.535 -0.0358  0.2142  0.3435
    8loPI   GL1  117  10.796  16.011  10.086  0.3794  0.0029 -0.2544
    8loPI   GL2  118  10.482  16.181  10.064  0.2380  0.2307  0.0046
    8loPI   C1A  119  10.834  15.847   9.644  0.2322  0.1628 -0.0017
    8loPI   C2A  120  10.873  15.985   9.262 -0.0547  0.0944  0.0042
    8loPI   C3A  121  11.045  16.012   8.802 -0.0380 -0.1222 -0.0229
    8loPI   C4A  122  11.124  16.017   8.316 -0.0061  0.1885 -0.0206
    8loPI   C5A  123  11.426  16.138   7.908 -0.2066 -0.2504 -0.1887
    8loPI   C6A  124  11.779  16.162   7.601 -0.2903  0.3043 -0.1006
    8loPI   C1B  125  10.396  16.096   9.603  0.0610 -0.1993 -0.2960
    8loPI   C2B  126  10.420  16.100   9.169  0.0396  0.0641 -0.2724
    8loPI   C3B  127  10.588  16.037   8.803 -0.1710 -0.0274 -0.0643
    8loPI   C4B  128  10.643  16.261   8.377 -0.1051 -0.0375  0.2069
    9loPI    C1  129  11.418   9.777  11.021 -0.1742  0.0178  0.0803
    9loPI    C2  130  11.629   9.678  11.346  0.1409  0.0308 -0.1166
    9loPI    C3  131  11.508  10.056  11.294  0.2923  0.0786 -0.1266
    9loPI   PO4  132  11.386   9.480  10.826 -0.2050  0.1564 -0.0691
    9loPI   GL1  133  11.405   9.559  10.396  0.2667  0.3516 -0.1549
    9loPI   GL2  134  11.534   9.818  10.518  0.2572 -0.3641 -0.0616
    9loPI   C1A  135  11.406   9.643   9.894  0.1368  0.3874 -0.0606
    9loPI   C2A  136  11.527   9.608   9.447 -0.0257 -0.3401  0.0595
    9loPI   C3A  137  11.754   9.624   9.070 -0.0450  0.2915 -0.1715
    9loPI   C4A  138  11.764   9.511   8.701 -0.2529 -0.1337  0.0261
    9loPI   C5A  139  12.052   9.616   8.534 -0.1627 -0.1971  0.3220
    9loPI   C6A  140  12.423   9.682   8.403  0.0144 -0.0258 -0.0049
    9loPI   C1B  141  11.508  10.055  10.069 -0.1118 -0.0448  0.0288
    9loPI   C2B  142  11.666  10.087   9.595  0.0135 -0.0791  0.1454
    9loPI   C3B  143  11.786  10.137   9.209  0.1440  0.0155 -0.1976
    9loPI   C4B  144  11.973  10.328   8.810  0.0967  0.3074  0.3673
   10loPI    C1  145   8.951   0.564  10.412 -0.0762 -0.1870  0.1481
   10loPI    C2  146   8.833   0.939  10.340  0.2304 -0.1393 -0.1327
   10loPI    C3  147   8.824   0.794  10.713  0.2045  0.1795 -0.0065
   10loPI   PO4  148   9.175   0.592  10.237 -0.0986 -0.1517  0.1273
   10loPI   GL1  149   9.077   0.706   9.910  0.0023  0.0329  0.2544
   10loPI   GL2  150   8.808   0.614   9.891 -0.2078 -0.1507  0.0029
   10loPI   C1A  151   9.241   0.702   9.577 -0.3510  0.2175 -0.0632
   10loPI   C2A  152   9.127   0.645   9.146 -0.1772  0.1746 -0.0592
   10loPI   C3A  153   9.096   0.792   8.803 -0.1857 -0.0198  0.1468
   10loPI   C4A  154   9.071   0.799   8.442 -0.0409 -0.3172  0.0459
   10loPI   C5A  155   8.941   0.788   8.082  0.3268  0.1304 -0.0187
   10loPI   C6A  156   8.555   0.991   7.782  0.1293  0.1700 -0.1872
   10loPI   C1B  157   8.759   0.468   9.513 -0.0711  0.0408 -0.1545
   10loPI   C2B  158   8.707   0.444   9.076 -0.2201 -0.1367  0.0008
   10loPI   C3B  159   8.633   0.529   8.616 -0.2180  0.0799  0.0750
   10loPI   C4B  160   8.501   0.463   8.234 -0.0518 -0.1322  0.2578
   11loPI    C1  161   1.562  11.715  10.953  0.0777  0.1968  0.0768
   11loPI    C2  162   1.170  11.768  10.900  0.0499 -0.2279 -0.1901
   11loPI    C3  163   1.312  11.673  11.262 -0.0813  0.0082 -0.0747
   11loPI   PO4  164   1.670  11.846  10.763 -0.3846  0.0308 -0.1363
   11loPI   GL1  165   1.782  12.122  10.293  0.1231 -0.1912  0.1751
   11loPI   GL2  166   1.960  12.428  10.155 -0.1362 -0.0173 -0.0316
   11loPI   C1A  167   1.974  12.072   9.895  0.2233  0.2718  0.0254
   11loPI   C2A  168   2.017  12.086   9.499 -0.0337  0.3299  0.0573
   11loPI   C3A  169   2.050  11.825   9.155 -0.3401 -0.2033 -0.1536
   11loPI   C4A  170   2.034  11.884   8.734 -0.0223 -0.2845  0.0124
   11loPI   C5A  171   1.847  11.876   8.288 -0.2092 -0.0430  0.1417
   11loPI   C6A  172   1.678  11.823   7.862  0.0643 -0.1939 -0.2160
   11loPI   C1B  173   1.675  12.513   9.860  0.2118  0.1511  0.5045
   11loPI   C2B  174   1.683  12.514   9.454  0.1862 -0.3091 -0.0055
   11loPI   C3B  175   1.627  12.704   8.966  0.1122 -0.0832  0.0380
   11loPI   C4B  176   1.601  13.109   8.714  0.1395 -0.0194 -0.0354
   12loPI    C1  177  14.239  18.124  10.687  0.0451 -0.1348 -0.0223
   12loPI    C2  178  14.523  18.369  10.548  0.0184 -0.0051  0.1486
   12loPI    C3  179  14.542  18.234  10.924 -0.1069 -0.0556  0.1371
   12loPI   PO4  180  14.253  17.937  10.485 -0.0251 -0.0362 -0.0731
   12loPI   GL1  181  14.430  18.014  10.130 -0.0026 -0.2420 -0.0508
   12loPI   GL2  182  14.687  17.877  10.132 -0.2548 -0.5340 -0.0364
   12loPI   C1A  183  14.364  18.108   9.731  0.2381  0.0922 -0.1455
   12loPI   C2A  184  14.395  18.093   9.352 -0.0675 -0.0147  0.3232
   12loPI   C3A  185  14.306  18.110   8.926 -0.1439  0.1632  0.0352
   12loPI   C4A  186  14.374  17.948   8.558  0.3085 -0.1928  0.3944
   12loPI   C5A  187  14.604  17.822   8.184 -0.2853 -0.1536  0.0929
   12loPI   C6A  188  14.701  17.616   7.928  0.0986 -0.0255 -0.0483
   12loPI   C1B  189  14.668  17.765   9.745 -0.0326 -0.1782 -0.1029
   12loPI   C2B  190  14.812  17.696   9.301  0.0684 -0.1903  0.3217
   12loPI   C3B  191  14.882  17.671   8.904  0.1568 -0.1458 -0.3984
   12loPI   C4B  192  14.948  17.542   8.517 -0.2258  0.2805 -0.1664
   13loPI    C1  193   6.665   1.466  10.512  0.0893 -0.1132 -0.1096
   13loPI    C2  194   7.032   1.327  10.587  0.0677 -0.1230 -0.0204
   13loPI    C3  195   6.912   1.672  10.750  0.0501 -0.1015 -0.0788
   13loPI   PO4  196   6.657   1.411  10.205 -0.0889 -0.1644 -0.2583
   13loPI   GL1  197   6.545   1.184   9.913  0.1809  0.0316 -0.0145
   13loPI   GL2  198   6.401   0.940   9.968 -0.0842 -0.1669  0.1319
   13loPI   C1A  199   6.558   1.106   9.426 -0.2285 -0.0386 -0.2676
   13loPI   C2A  200   6.718   1.300   9.059 -0.0365 -0.1884 -0.0259
   13loPI   C3A  201   6.918   1.391   8.747  0.0600 -0.4069 -0.1829
   13loPI   C4A  202   7.236   1.480   8.429  0.1338 -0.1248  0.2231
   13loPI   C5A  203   7.269   1.275   8.051  0.0514 -0.0700 -0.0289
   13loPI   C6A  204   7.522   1.019   7.741 -0.0138 -0.2200 -0.2432
   13loPI   C1B  205   6.149   0.712   9.592  0.3045  0.1056 -0.5137
   13loPI   C2B  206   6.027   0.477   9.187  0.2325 -0.1178  0.2108
   13loPI   C3B  207   5.845   0.568   8.803 -0.0553 -0.1326 -0.0724
   13loPI   C4B  208   6.116   0.728   8.349  0.1357 -0.2522  0.1327
   14loPI    C1  209  13.891  12.821  10.604  0.0939 -0.1487 -0.2168
   14loPI    C2  210  14.154  12.712  10.885  0.0577 -0.0045 -0.1257
   14loPI    C3  211  13.763  12.718  10.969  0.0508  0.0869 -0.1634
   14loPI   PO4  212  13.957  12.977  10.538  0.3255 -0.1752  0.0434
   14loPI   GL1  213  14.058  13.187  10.183  0.0730  0.1240 -0.2377
   14loPI   GL2  214  13.843  13.294   9.996  0.2764 -0.4035  0.0297
   14loPI   C1A  215  14.321  13.495  10.010  0.2377 -0.0201  0.2600
   14loPI   C2A  216  14.610  13.759   9.741  0.1566  0.3500 -0.1251
   14loPI   C3A  217  14.814  13.813   9.357  0.0949  0.1731 -0.0837
   14loPI   C4A  218  14.813  13.924   8.835 -0.3143  0.3086 -0.2825
   14loPI   C5A  219  14.949  13.878   8.443 -0.1703 -0.3463 -0.1913
   14loPI   C6A  220  15.074  13.746   8.067 -0.0481 -0.1188 -0.0911
   14loPI   C1B  221  13.994  13.394   9.593 -0.1870 -0.0935  0.0297
   14loPI   C2B  222  14.366  13.522   9.297  0.0695  0.1233 -0.3287
   14loPI   C3B  223  14.634  13.480   8.988 -0.1480  0.0683  0.5196
   14loPI   C4B  224  14.864  13.459   8.831 -0.1224 -0.0945  0.0110
   15loPI    C1  225  13.065  12.789  10.289 -0.2551  0.0440  0.1474
   15loPI    C2  226  12.703  12.632  10.219 -0.1662 -0.0589 -0.0908
   15loPI    C3  227  13.017  12.392  10.284 -0.1128  0.0279 -0.0259
   15loPI   PO4  228  13.010  13.012  10.061  0.3702  0.0317  0.2461
   15loPI   GL1  229  12.818  12.772   9.597 -0.0596 -0.0507  0.2433
   15loPI   GL2  230  12.773  13.039   9.626  0.2004 -0.1264 -0.0946
   15loPI   C1A  231  12.814  12.823   9.060  0.2690 -0.1100 -0.0311
   15loPI   C2A  232  12.862  12.780   8.684  0.0043  0.0555  0.1430
   15loPI   C3A  233  12.721  12.851   8.318  0.1481  0.1900  0.1744
   15loPI   C4A  234  12.370  13.086   8.191  0.1066  0.0336  0.0858
   15loPI   C5A  235  12.008  13.321   7.955  0.0104  0.1413 -0.0501
   15loPI   C6A  236  11.822  13.622   7.721  0.2526  0.1592  0.2673
   15loPI   C1B  237  12.792  13.279   9.259 -0.3671 -0.0614 -0.1694
   15loPI   C2B  238  12.817  13.268   8.794 -0.3240  0.0887  0.0520
   15loPI   C3B  239  12.628  13.403   8.491  0.0641  0.0541 -0.2524
   15loPI   C4B  240  12.653  13.660   8.108  0.0255  0.0939  0.0288
   16loPI    C1  241   8.895   7.913  10.690 -0.1323  0.0274 -0.3533
   16loPI    C2  242   8.867   7.517  10.640  0.0637  0.0036 -0.2844
   16loPI    C3  243   8.580   7.715  10.836  0.0829 -0.1410 -0.1078
   16loPI   PO4  244   9.064   7.946  10.493  0.2714  0.4073  0.0494
   16loPI   GL1  245   9.086   7.881  10.017 -0.3087 -0.1890  0.2165
   16loPI   GL2  246   9.353   8.092  10.009  0.3112  0.2648 -0.2700
   16loPI   C1A  247   9.193   7.799   9.558 -0.3112 -0.3171  0.1617
   16loPI   C2A  248   9.161   7.735   9.115 -0.4103 -0.4771 -0.3415
   16loPI   C3A  249   9.207   7.579   8.578 -0.1210 -0.2556  0.0947
   16loPI   C4A  250   9.398   7.443   8.224  0.4688 -0.0516  0.1345
   16loPI   C5A  251   9.805   7.311   8.123 -0.1206  0.1203 -0.0338
   16loPI   C6A  252  10.048   7.185   7.822  0.3229  0.2161 -0.1597
   16loPI   C1B  253   9.375   8.254   9.540  0.1983 -0.1606  0.1064
   16loPI   C2B  254   9.409   8.230   9.119 -0.0483 -0.0013  0.2830
   16loPI   C3B  255   9.332   8.047   8.753 -0.1083  0.2824  0.3578
   16loPI   C4B  256   9.402   7.941   8.304 -0.4421 -0.0312  0.0488
   17loPI    C1  257  16.524   3.321  11.244 -0.1944  0.1624 -0.0579
   17loPI    C2  258  16.857   3.518  11.345  0.0009 -0.0027 -0.3616
   17loPI    C3  259  16.499   3.662  11.452  0.1624  0.2294 -0.1186
   17loPI   PO4  260  16.617   3.270  10.951  0.3000  0.1328 -0.0773
   17loPI   GL1  261  16.971   3.603  10.762 -0.2262  0.0177  0.1163
   17loPI   GL2  262  17.146   3.932  10.713 -0.1786 -0.3403  0.2101
   17loPI   C1A  263  16.915   3.642  10.364  0.1530 -0.0982  0.1285
   17loPI   C2A  264  16.891   3.676   9.898 -0.1968 -0.1120  0.0144
   17loPI   C3A  265  16.876   3.559   9.525 -0.0413 -0.3594 -0.1742
   17loPI   C4A  266  16.849   3.421   9.007 -0.0760  0.1014  0.1227
   17loPI   C5A  267  17.006   3.056   8.658 -0.2027 -0.2776  0.0953
   17loPI   C6A  268  17.084   2.647   8.769  0.1416 -0.1917  0.3631
   17loPI   C1B  269  17.344   3.862  10.395  0.1193 -0.2240 -0.1516
   17loPI   C2B  270  17.424   3.772   9.993 -0.0435  0.1092 -0.2379
   17loPI   C3B  271  17.384   3.609   9.575  0.0623  0.0794 -0.1907
   17loPI   C4B  272  17.255   3.550   9.170  0.3442  0.0429 -0.0583
   18loPI    C1  273   3.330  13.882  10.838 -0.0906  0.0028  0.1370
   18loPI    C2  274   2.930  13.882  10.847 -0.0904  0.1012  0.1666
   18loPI    C3  275   3.133  14.198  10.985 -0.0052  0.1031  0.0385
   18loPI   PO4  276   3.396  13.860  10.501 -0.0446 -0.0539 -0.0592
   18loPI   GL1  277   3.255  13.881  10.128 -0.3653 -0.0749  0.0264
   18loPI   GL2  278   3.000  13.707  10.199  0.1048 -0.1730  0.1884
   18loPI   C1A  279   3.108  14.107   9.797 -0.0865 -0.0181  0.3814
   18loPI   C2A  280   2.997  14.283   9.433  0.1814  0.0971 -0.1712
   18loPI   C3A  281   3.268  14.425   9.082  0.1656 -0.1032  0.0350
   18loPI   C4A  282   3.614  14.264   8.857  0.1106 -0.2350 -0.0856
   18loPI   C5A  283   3.467  14.137   8.416 -0.3029 -0.1276  0.1428
   18loPI   C6A  284   3.397  14.219   8.013 -0.1700 -0.0962  0.0340
   18loPI   C1B  285   3.056  13.528   9.837  0.0915  0.2158 -0.2235
   18loPI   C2B  286   2.967  13.516   9.435 -0.0776  0.1532 -0.0182
   18loPI   C3B  287   2.958  13.563   8.964 -0.1711  0.0857 -0.1024
   18loPI   C4B  288   3.115  13.724   8.510  0.0524  0.0634 -0.1103
   19loPI    C1  289   8.107   8.093  10.321  0.1161  0.0793  0.1236
   19loPI    C2  290   8.013   8.295  10.653 -0.1743 -0.0277  0.1098
   19loPI    C3  291   8.183   7.934  10.680 -0.1316 -0.0054  0.1407
   19loPI   PO4  292   8.212   8.295  10.140  0.0714  0.0323  0.0100
   19loPI   GL1  293   8.303   8.222   9.788 -0.3072 -0.1081  0.0109
   19loPI   GL2  294   8.473   7.927   9.887  0.1932  0.1235 -0.1577
   19loPI   C1A  295   8.359   8.186   9.390  0.3302  0.1733 -0.0627
   19loPI   C2A  296   8.366   7.976   8.952 -0.0105 -0.0356  0.0414
   19loPI   C3A  297   8.131   7.782   8.567  0.0619  0.2477 -0.0579
   19loPI   C4A  298   8.136   7.507   8.197  0.1720 -0.0897  0.2276
   19loPI   C5A  299   7.897   7.429   7.899 -0.0718  0.1130  0.0163
   19loPI   C6A  300   7.351   7.370   7.799  0.1812  0.0838  0.0708
   19loPI   C1B  301   8.634   7.774   9.537 -0.3313  0.2975  0.2070
   19loPI   C2B  302   8.708   7.653   9.066 -0.1971 -0.2386  0.0038
   19loPI   C3B  303   8.664   7.646   8.670 -0.0657  0.0856  0.0158
   19loPI   C4B  304   8.492   7.851   8.308 -0.3614 -0.2514 -0.1160
   20loPI    C1  305  14.761   6.351  11.174 -0.1690  0.0214  0.1782
   20loPI    C2  306  14.919   6.023  11.340 -0.3527 -0.0295  0.2551
   20loPI    C3  307  14.833   6.341  11.567  0.1643  0.2128  0.1253
   20loPI   PO4  308  15.027   6.390  10.892  0.2263  0.3006  0.3196
   20loPI   GL1  309  15.008   6.411  10.471 -0.0734 -0.1538  0.1164
   20loPI   GL2  310  15.336   6.609  10.569  0.1829  0.3950  0.0186
   20loPI   C1A  311  14.864   6.464   9.999  0.0497  0.2459 -0.0906
   20loPI   C2A  312  14.859   6.436   9.631  0.0975  0.1237 -0.0334
   20loPI   C3A  313  14.980   6.421   9.159  0.1486  0.1439 -0.1273
   20loPI   C4A  314  14.727   6.650   8.881 -0.0327  0.0293  0.0849
   20loPI   C5A  315  14.479   6.969   8.632  0.0454 -0.0140 -0.2094
   20loPI   C6A  316  14.180   7.019   8.231  0.3963 -0.0056 -0.0462
   20loPI   C1B  317  15.537   6.688  10.208 -0.0550 -0.2023  0.0444
   20loPI   C2B  318  15.501   6.774   9.824  0.0322  0.2940 -0.0284
   20loPI   C3B  319  15.522   6.681   9.445  0.3028 -0.1247 -0.1771
   20loPI   C4B  320  15.488   6.589   9.033 -0.0208  0.0473  0.0195
   21loPI    C1  321  10.381   4.750  10.181  0.1018  0.0615 -0.2051
   21loPI    C2  322  10.350   4.505  10.496  0.4987  0.1337 -0.1046
   21loPI    C3  323  10.286   4.897  10.541  0.4153  0.1248 -0.1451
   21loPI   PO4  324  10.464   4.540   9.988 -0.5343 -0.1163 -0.3228
   21loPI   GL1  325  10.712   4.692   9.687  0.1090 -0.0615 -0.1223
   21loPI   GL2  326  11.010   4.591   9.626 -0.1757  0.1281  0.0609
   21loPI   C1A  327  10.542   4.684   9.328  0.0264  0.1643 -0.0736
   21loPI   C2A  328  10.572   4.682   8.929  0.2664 -0.1685  0.3613
   21loPI   C3A  329  10.684   4.840   8.562 -0.2799 -0.1672  0.0559
   21loPI   C4A  330  10.786   4.796   8.102  0.1010  0.4301 -0.1355
   21loPI   C5A  331  10.965   4.610   7.714 -0.1966  0.1263  0.1007
   21loPI   C6A  332  11.319   4.534   7.477 -0.2381  0.3425  0.0748
   21loPI   C1B  333  11.118   4.724   9.151  0.0407 -0.0456  0.1557
   21loPI   C2B  334  11.131   4.777   8.756  0.1295 -0.2289  0.0048
   21loPI   C3B  335  11.211   4.684   8.360  0.2287  0.2436 -0.1188
   21loPI   C4B  336  11.480   4.616   8.006  0.3695 -0.0192 -0.1604
   22loPI    C1  337  11.851  18.118  10.663  0.0475  0.0536 -0.3480
   22loPI    C2  338  11.707  18.229  11.019  0.1237 -0.0228 -0.2929
   22loPI    C3  339  11.462  18.074  10.743  0.1471 -0.4314 -0.0920
   22loPI   PO4  340  11.949  18.326  10.488  0.1252  0.2139 -0.0946
   22loPI   GL1  341  12.149  18.367  10.133 -0.0190 -0.0552 -0.0101
   22loPI   GL2  342  12.468  18.218  10.102 -0.1181  0.0881  0.3068
   22loPI   C1A  343  12.070  18.461   9.723 -0.1442  0.1441  0.0364
   22loPI   C2A  344  12.094  18.417   9.339 -0.0371  0.0307 -0.0573
   22loPI   C3A  345  12.121  18.314   8.989  0.1862 -0.0738  0.2413
   22loPI   C4A  346  12.104  18.254   8.529  0.0442 -0.0919  0.0017
   22loPI   C5A  347  11.863  18.091   8.233  0.1501  0.0399 -0.0581
   22loPI   C6A  348  11.607  17.862   8.146  0.2566 -0.0018  0.1439
   22loPI   C1B  349  12.367  18.085   9.732 -0.1281 -0.0815 -0.2608
   22loPI   C2B  350  12.385  18.031   9.281  0.1090  0.0810  0.1840
   22loPI   C3B  351  12.421  17.917   8.838  0.0166 -0.1750 -0.1215
   22loPI   C4B  352  12.467  17.927   8.487 -0.0646 -0.0160 -0.0928
   23loPI    C1  353   5.607  10.764  10.277 -0.0526  0.0917  0.1049
   23loPI    C2  354   5.526  10.379  10.345 -0.0889  0.0405 -0.2133
   23loPI    C3  355   5.345  10.662  10.562  0.1786 -0.1267  0.2434
   23loPI   PO4  356   5.652  10.664   9.962  0.0759  0.0400  0.0614
   23loPI   GL1  357   5.617  10.861   9.627 -0.3112  0.0725 -0.1031
   23loPI   GL2  358   5.536  11.095   9.533  0.0301  0.0168  0.1934
   23loPI   C1A  359   5.960  10.997   9.291 -0.0582  0.1677 -0.1995
   23loPI   C2A  360   5.695  11.074   8.951 -0.1876 -0.2101 -0.0292
   23loPI   C3A  361   5.615  11.093   8.580  0.0150 -0.2348 -0.0919
   23loPI   C4A  362   5.141  11.119   8.469  0.0602 -0.0964 -0.3498
   23loPI   C5A  363   4.919  11.211   8.133  0.0652 -0.0379 -0.2049
   23loPI   C6A  364   5.176  11.069   7.758  0.1072 -0.2568  0.1853
   23loPI   C1B  365   5.446  10.721   9.165 -0.2254  0.0201  0.3339
   23loPI   C2B  366   5.368  10.717   8.720  0.2569 -0.0466  0.1955
   23loPI   C3B  367   5.319  10.655   8.305  0.4101  0.1854  0.0044
   23loPI   C4B  368   5.083  10.590   7.939  0.0668 -0.3364  0.0503
   24loPI    C1  369  15.599   7.867  10.954  0.0555 -0.2411 -0.2346
   24loPI    C2  370  15.709   7.533  11.144  0.1061  0.0294  0.2276
   24loPI    C3  371  15.971   7.831  11.096 -0.0445  0.1510  0.1512
   24loPI   PO4  372  15.507   7.863  10.725 -0.0766  0.1947 -0.0630
   24loPI   GL1  373  15.336   8.033  10.423  0.2100 -0.1321  0.2891
   24loPI   GL2  374  15.004   8.079  10.309  0.0832  0.0496 -0.3853
   24loPI   C1A  375  15.340   8.159   9.954  0.2260  0.0167  0.0867
   24loPI   C2A  376  15.532   8.385   9.613 -0.0983  0.0917  0.1235
   24loPI   C3A  377  15.473   8.720   9.288  0.2765  0.0015  0.0793
   24loPI   C4A  378  15.619   8.809   8.975  0.1381  0.3800  0.1673
   24loPI   C5A  379  15.580   8.835   8.487  0.0887 -0.3136  0.1729
   24loPI   C6A  380  15.839   8.955   8.215  0.1291  0.2272  0.0640
   24loPI   C1B  381  14.870   7.957   9.894 -0.2954  0.1127 -0.0606
   24loPI   C2B  382  15.143   8.037   9.512 -0.1438  0.1737  0.0144
   24loPI   C3B  383  15.122   7.885   9.110  0.5192  0.0097  0.1123
   24loPI   C4B  384  15.009   8.170   8.658 -0.0569  0.0009 -0.0026
   25loPI    C1  385  10.006   4.281  10.143  0.1749 -0.1237 -0.1542
   25loPI    C2  386   9.629   4.403  10.091  0.1991 -0.0648 -0.1921
   25loPI    C3  387   9.882   4.623  10.310  0.1821 -0.1584 -0.0776
   25loPI   PO4  388  10.090   4.188   9.920 -0.3106  0.0153 -0.3003
   25loPI   GL1  389  10.033   3.853   9.649 -0.1195 -0.0122  0.0636
   25loPI   GL2  390   9.806   4.076   9.533  0.0683 -0.0207 -0.0225
   25loPI   C1A  391  10.108   3.728   9.145  0.1202  0.3837  0.0821
   25loPI   C2A  392  10.377   3.552   8.912 -0.1891  0.0775 -0.3602
   25loPI   C3A  393  10.375   3.296   8.510 -0.1238 -0.0627 -0.2344
   25loPI   C4A  394  10.636   3.045   8.242 -0.0891 -0.1234 -0.0262
   25loPI   C5A  395  10.897   3.238   7.862 -0.1221  0.4237  0.2825
   25loPI   C6A  396  11.358   3.259   7.783 -0.4033  0.2449  0.0487
   25loPI   C1B  397   9.625   3.884   9.196 -0.1708  0.0502  0.1327
   25loPI   C2B  398   9.440   3.963   8.729  0.2799 -0.0333 -0.0593
   25loPI   C3B  399   9.655   3.916   8.310 -0.2874  0.1269 -0.0771
   25loPI   C4B  400   9.615   4.049   7.869 -0.1159 -0.3095 -0.3024
   26loPI    C1  401   8.285  15.800  10.244 -0.0798  0.0120 -0.0118
   26loPI    C2  402   8.158  15.692  10.607  0.0569  0.2661  0.1144
   26loPI    C3  403   8.544  15.650  10.510  0.0280  0.2361  0.0117
   26loPI   PO4  404   8.057  15.753  10.082  0.3608  0.1379 -0.3206
   26loPI   GL1  405   8.017  15.617   9.644 -0.0628 -0.0829  0.0129
   26loPI   GL2  406   8.306  15.690   9.698 -0.2621 -0.3638 -0.0198
   26loPI   C1A  407   8.037  15.857   9.336 -0.1816  0.0466  0.0339
   26loPI   C2A  408   8.060  15.918   8.989 -0.0442 -0.1296  0.2097
   26loPI   C3A  409   8.081  15.910   8.480  0.1633 -0.0351 -0.0861
   26loPI   C4A  410   8.052  15.967   8.081 -0.0461 -0.0847 -0.1802
   26loPI   C5A  411   8.203  15.662   7.862  0.1383 -0.2616 -0.2468
   26loPI   C6A  412   8.119  15.544   7.469  0.3136 -0.1026  0.0912
   26loPI   C1B  413   8.416  15.449   9.348  0.1970  0.0016 -0.1811
   26loPI   C2B  414   8.369  15.495   8.831 -0.1036 -0.2134 -0.0787
   26loPI   C3B  415   8.472  15.459   8.437 -0.3222  0.0436 -0.0456
   26loPI   C4B  416   8.664  15.731   8.090  0.0404  0.0525  0.0867
   27loPI    C1  417   1.040  10.905  11.075 -0.0391  0.0173  0.1972
   27loPI    C2  418   1.204  11.236  11.228 -0.0266  0.1264 -0.0474
   27loPI    C3  419   1.404  10.889  11.240 -0.0738  0.1075  0.2835
   27loPI   PO4  420   0.912  10.876  10.831 -0.0652  0.1156  0.0466
   27loPI   GL1  421   1.066  10.998  10.377  0.3642  0.2727  0.3043
   27loPI   GL2  422   1.146  10.794  10.190  0.2402  0.0838 -0.1994
   27loPI   C1A  423   0.748  11.039  10.069  0.1494  0.0089 -0.0437
   27loPI   C2A  424   0.727  10.980   9.580  0.0456 -0.0076 -0.2496
   27loPI   C3A  425   0.812  11.125   9.166 -0.0685  0.1028 -0.2161
   27loPI   C4A  426   0.669  11.223   8.727  0.0987 -0.2960 -0.0128
   27loPI   C5A  427   0.692  10.978   8.295  0.3845 -0.0507 -0.0791
   27loPI   C6A  428   0.854  10.886   7.901  0.2501  0.1751 -0.0288
   27loPI   C1B  429   1.161  10.878   9.874 -0.1226 -0.1402 -0.1590
   27loPI   C2B  430   1.243  11.175   9.499 -0.1181  0.0933 -0.0671
   27loPI   C3B  431   1.260  11.267   9.049  0.0223  0.0300 -0.2003
   27loPI   C4B  432   1.341  11.333   8.624  0.1603  0.0306  0.0531
   28loPI    C1  433  11.335   1.026  10.703 -0.0179 -0.0679  0.1271
   28loPI    C2  434  11.592   0.959  11.002 -0.1102 -0.0491  0.2111
   28loPI    C3  435  11.198   0.936  11.068 -0.1332  0.0630  0.1171
   28loPI   PO4  436  11.438   0.890  10.541  0.2081 -0.2047 -0.0734
   28loPI   GL1  437  11.429   0.749  10.129 -0.0061 -0.0439 -0.1288
   28loPI   GL2  438  11.177   0.922  10.122  0.0163 -0.1532 -0.0584
   28loPI   C1A  439  11.721   0.847   9.863 -0.1307 -0.0256  0.0540
   28loPI   C2A  440  12.002   1.215   9.722  0.0463  0.3383  0.0852
   28loPI   C3A  441  12.125   1.289   9.300 -0.1731  0.2037  0.1505
   28loPI   C4A  442  12.187   1.114   8.800 -0.4486 -0.1536 -0.0608
   28loPI   C5A  443  11.996   1.273   8.322 -0.0058 -0.0531 -0.0875
   28loPI   C6A  444  11.791   1.501   7.902 -0.0008 -0.3269 -0.1737
   28loPI   C1B  445  11.220   0.780   9.671  0.0773  0.3507 -0.1766
   28loPI   C2B  446  11.288   0.784   9.242  0.0474  0.1347 -0.0651
   28loPI   C3B  447  11.292   0.653   8.850 -0.3447 -0.0312 -0.0489
   28loPI   C4B  448  11.351   0.597   8.446 -0.1472  0.3660  0.0142
   29loPI    C1  449  17.764  17.348  10.878 -0.0067 -0.0660  0.0122
   29loPI    C2  450  18.082  17.108  10.840 -0.0199 -0.1060  0.1504
   29loPI    C3  451  17.713  16.955  10.822 -0.0279 -0.1025  0.2732
   29loPI   PO4  452  17.808  17.480  10.644 -0.2875  0.1039 -0.2329
   29loPI   GL1  453  17.626  17.196  10.371  0.1252  0.0068  0.1437
   29loPI   GL2  454  17.961  17.189  10.281 -0.0200 -0.0708 -0.1990
   29loPI   C1A  455  17.454  17.196   9.938 -0.0037 -0.4176 -0.0932
   29loPI   C2A  456  17.402  17.023   9.467 -0.3571 -0.4370  0.0839
   29loPI   C3A  457  17.183  17.080   9.100 -0.2098  0.1800 -0.1680
   29loPI   C4A  458  16.972  16.961   8.735 -0.0669 -0.3492  0.0808
   29loPI   C5A  459  16.725  16.836   8.362  0.0845 -0.0160  0.1596
   29loPI   C6A  460  16.582  16.995   8.038 -0.1996 -0.0968  0.2468
   29loPI   C1B  461  17.894  17.286   9.804  0.1173 -0.0702 -0.1372
   29loPI   C2B  462  17.752  17.393   9.541  0.0625  0.0097 -0.3217
   29loPI   C3B  463  17.443  17.503   9.170 -0.1193 -0.0548  0.3857
   29loPI   C4B  464  17.465  17.639   8.700 -0.1930  0.0409 -0.2014
   30loPI    C1  465   4.921   4.653  10.597 -0.2298  0.2122  0.2379
   30loPI    C2  466   4.896   4.746  10.985  0.0833  0.2675  0.2472
   30loPI    C3  467   5.000   4.376  10.875  0.0392  0.2645  0.2157
   30loPI   PO4  468   4.740   4.772  10.462 -0.3052 -0.1574 -0.0243
   30loPI   GL1  469   4.456   4.616  10.096  0.2039  0.3081 -0.0529
   30loPI   GL2  470   4.123   4.533  10.043  0.1625 -0.1730  0.1276
   30loPI   C1A  471   4.740   4.836   9.760 -0.0806  0.1245 -0.3406
   30loPI   C2A  472   4.764   4.859   9.376  0.1186 -0.0131  0.1900
   30loPI   C3A  473   4.520   4.744   8.983  0.2655  0.0427  0.0716
   30loPI   C4A  474   4.441   4.789   8.566  0.3234 -0.0972  0.0662
   30loPI   C5A  475   4.351   4.614   8.185  0.0946 -0.1637 -0.0936
   30loPI   C6A  476   4.518   4.553   7.839 -0.1056 -0.0339  0.4462
   30loPI   C1B  477   4.327   4.536   9.625  0.0599 -0.0387 -0.2087
   30loPI   C2B  478   4.245   4.219   9.292 -0.3778 -0.1386 -0.1646
   30loPI   C3B  479   4.117   3.960   8.933 -0.0587 -0.0231  0.0671
   30loPI   C4B  480   3.900   3.795   8.638  0.1241  0.3942  0.2012
   31loPI    C1  481  14.829  10.806  10.771 -0.1151  0.1258 -0.1766
   31loPI    C2  482  15.019  10.935  11.098 -0.3963  0.1854 -0.0339
   31loPI    C3  483  14.800  10.600  11.113 -0.3048  0.1173 -0.1968
   31loPI   PO4  484  14.750  11.025  10.704 -0.0470  0.0016 -0.1402
   31loPI   GL1  485  14.756  11.062  10.305 -0.0418  0.1181 -0.1560
   31loPI   GL2  486  14.815  11.386  10.155 -0.1061  0.0009 -0.0344
   31loPI   C1A  487  14.572  10.909   9.930  0.0560  0.4902 -0.0221
   31loPI   C2A  488  14.445  10.900   9.522 -0.2806 -0.2837 -0.2997
   31loPI   C3A  489  14.788  10.940   9.199  0.0782  0.1704 -0.3204
   31loPI   C4A  490  14.808  11.033   8.726 -0.1237 -0.0078 -0.0969
   31loPI   C5A  491  14.466  11.325   8.525  0.2372 -0.1352 -0.4100
   31loPI   C6A  492  14.116  11.129   8.242  0.0885 -0.3070 -0.2553
   31loPI   C1B  493  14.774  11.320   9.704  0.0754  0.1284  0.1529
   31loPI   C2B  494  14.623  11.423   9.351  0.3116 -0.1170 -0.3813
   31loPI   C3B  495  14.437  11.281   9.062 -0.1360  0.1157  0.0189
   31loPI   C4B  496  14.033  11.180   8.845 -0.2554 -0.0916  0.4141
   32loPI    C1  497   4.525   4.308  10.589 -0.0713  0.1269 -0.1352
   32loPI    C2  498   4.266   4.612  10.574 -0.1521  0.0746  0.1434
   32loPI    C3  499   4.452   4.524  10.917  0.0070 -0.0784  0.0198
   32loPI   PO4  500   4.430   4.113  10.403 -0.2261 -0.1090 -0.0896
   32loPI   GL1  501   4.654   4.197  10.013  0.0813  0.3304 -0.0525
   32loPI   GL2  502   4.909   4.434  10.029 -0.0799 -0.3215 -0.0688
   32loPI   C1A  503   4.409   3.965   9.711  0.0134 -0.0421  0.0888
   32loPI   C2A  504   4.359   3.693   9.386 -0.0473  0.0007  0.1362
   32loPI   C3A  505   4.556   3.697   9.050 -0.0317  0.0342  0.3312
   32loPI   C4A  506   4.608   3.706   8.647  0.2205 -0.0569 -0.1110
   32loPI   C5A  507   4.447   3.741   8.226 -0.0933  0.1227 -0.0512
   32loPI   C6A  508   4.498   3.462   7.756  0.2480  0.0479 -0.1648
   32loPI   C1B  509   4.902   4.395   9.544  0.2893  0.0030  0.3228
   32loPI   C2B  510   4.773   4.257   9.142  0.0280 -0.1224  0.0037
   32loPI   C3B  511   4.551   4.271   8.811 -0.2495  0.0945  0.0936
   32loPI   C4B  512   4.537   4.172   8.375  0.0929  0.2578 -0.2609
   33loPI    C1  513   1.894  15.244  10.868 -0.1241  0.0654  0.2115
   33loPI    C2  514   2.133  14.967  11.028  0.0241  0.0267 -0.0708
   33loPI    C3  515   1.751  14.991  11.142  0.0472 -0.2004  0.0600
   33loPI   PO4  516   2.070  15.247  10.658 -0.1107 -0.2371  0.1474
   33loPI   GL1  517   2.296  14.922  10.455  0.1643  0.3237 -0.3010
   33loPI   GL2  518   2.403  15.250  10.272 -0.2777 -0.0609 -0.3077
   33loPI   C1A  519   2.289  14.814   9.936 -0.2053  0.0842 -0.3029
   33loPI   C2A  520   2.339  14.881   9.556 -0.1381 -0.2155  0.1496
   33loPI   C3A  521   2.300  14.872   9.070 -0.0352 -0.0091  0.0080
   33loPI   C4A  522   2.023  14.882   8.857  0.0065  0.1665  0.1982
   33loPI   C5A  523   1.834  14.978   8.496  0.2333  0.0241 -0.1289
   33loPI   C6A  524   1.893  14.959   8.088 -0.0218  0.0062  0.1120
   33loPI   C1B  525   2.398  15.334   9.961  0.0181 -0.1108 -0.0157
   33loPI   C2B  526   2.310  15.394   9.516 -0.0630  0.1726  0.1859
   33loPI   C3B  527   2.286  15.366   9.115  0.1286  0.4738 -0.0471
   33loPI   C4B  528   2.325  15.248   8.667 -0.0333 -0.0825  0.1000
   34loPI    C1  529   1.785   0.630  10.456  0.0227 -0.1485  0.0225
   34loPI    C2  530   1.507   0.415  10.648 -0.1682  0.1458  0.0818
   34loPI    C3  531   1.406   0.757  10.467  0.1265  0.1740 -0.0352
   34loPI   PO4  532   2.011   0.380  10.647  0.3412  0.3813 -0.0805
   34loPI   GL1  533   2.015  -0.003  10.474 -0.0598 -0.1681  0.2345
   34loPI   GL2  534   1.667   0.047  10.354 -0.0364 -0.0720 -0.0779
   34loPI   C1A  535   2.113  -0.128  10.059 -0.1035  0.2091  0.0089
   34loPI   C2A  536   1.949  -0.122   9.697  0.1249  0.0994  0.0436
   34loPI   C3A  537   1.714  -0.110   9.352 -0.0838  0.2279  0.0114
   34loPI   C4A  538   1.588  -0.089   8.905  0.2767 -0.0726 -0.1914
   34loPI   C5A  539   1.687   0.051   8.379 -0.3171 -0.0458  0.0446
   34loPI   C6A  540   1.609  -0.050   7.952  0.0251  0.2598 -0.0399
   34loPI   C1B  541   1.800   0.247   9.949  0.0311 -0.0991 -0.1964
   34loPI   C2B  542   1.805   0.338   9.431 -0.1033 -0.5159 -0.0987
   34loPI   C3B  543   1.879   0.354   9.040  0.1967 -0.0701 -0.4055
   34loPI   C4B  544   1.782   0.591   8.653  0.3158 -0.0746  0.2277
   35loPI    C1  545   7.328  12.264  10.296 -0.0274 -0.3440  0.0234
   35loPI    C2  546   7.444  12.519  10.582 -0.0181 -0.2750 -0.0414
   35loPI    C3  547   7.395  12.131  10.667 -0.0002 -0.2574  0.0497
   35loPI   PO4  548   7.322  12.515  10.093  0.4001  0.2227 -0.1424
   35loPI   GL1  549   7.291  12.951   9.934  0.0571  0.3422  0.3050
   35loPI   GL2  550   7.184  13.225   9.692 -0.0582 -0.2177 -0.2327
   35loPI   C1A  551   7.595  12.991   9.592 -0.0321  0.2321  0.1361
   35loPI   C2A  552   7.562  13.021   9.072 -0.0342  0.2216  0.0014
   35loPI   C3A  553   7.388  13.047   8.808  0.2603  0.2972 -0.0552
   35loPI   C4A  554   7.155  12.791   8.502  0.1137 -0.1365 -0.1403
   35loPI   C5A  555   7.240  12.668   8.022  0.1118 -0.0526  0.2931
   35loPI   C6A  556   7.336  12.264   7.867 -0.0528 -0.0160 -0.0341
   35loPI   C1B  557   7.187  13.325   9.220  0.0126 -0.0981  0.1168
   35loPI   C2B  558   6.983  13.357   8.891 -0.2583  0.0361  0.3420
   35loPI   C3B  559   7.069  13.316   8.472  0.1663 -0.0199  0.0703
   35loPI   C4B  560   7.031  13.235   8.103 -0.1004  0.3948 -0.2277
   36loPI    C1  561  16.406   8.417  10.558 -0.1788 -0.2565  0.0291
   36loPI    C2  562  16.482   8.433  10.951 -0.0201 -0.0825 -0.0072
   36loPI    C3  563  16.444   8.079  10.769  0.1590 -0.1677  0.1178
   36loPI   PO4  564  16.121   8.499  10.549  0.2182  0.1641 -0.2284
   36loPI   GL1  565  15.925   8.729  10.115 -0.0740 -0.0418  0.2111
   36loPI   GL2  566  15.704   8.478  10.094 -0.1967  0.1319 -0.2457
   36loPI   C1A  567  15.814   8.803   9.663 -0.2353 -0.0586 -0.1205
   36loPI   C2A  568  15.993   8.601   9.291 -0.0072 -0.0433 -0.0730
   36loPI   C3A  569  16.010   8.416   8.901 -0.1454 -0.1918 -0.0244
   36loPI   C4A  570  15.735   8.282   8.538 -0.0724  0.1467 -0.2410
   36loPI   C5A  571  15.347   8.367   8.355 -0.2439 -0.2590  0.0528
   36loPI   C6A  572  15.479   8.635   8.002  0.0835 -0.1349  0.0615
   36loPI   C1B  573  16.064   8.401   9.790  0.0191  0.0148 -0.0892
   36loPI   C2B  574  16.416   8.049   9.609 -0.2731  0.0985 -0.2169
   36loPI   C3B  575  16.692   7.970   9.299 -0.1463 -0.2133  0.1265
   36loPI   C4B  576  16.740   8.164   8.884  0.1224 -0.0972  0.0532
   37loPI    C1  577   5.771  12.432  10.462 -0.1081  0.1153  0.1140
   37loPI    C2  578   6.000  12.265  10.744 -0.0752 -0.3401 -0.1723
   37loPI    C3  579   5.603  12.214  10.752 -0.1148 -0.0303  0.0018
   37loPI   PO4  580   5.933  12.422  10.239  0.1257  0.1924 -0.1035
   37loPI   GL1  581   5.949  12.744   9.924 -0.1488  0.1296  0.1161
   37loPI   GL2  582   6.270  12.853   9.993  0.2554 -0.0299 -0.0637
   37loPI   C1A  583   5.854  12.760   9.545  0.0461  0.0141  0.0097
   37loPI   C2A  584   5.921  12.690   9.205  0.0046  0.2699  0.0408
   37loPI   C3A  585   5.879  12.532   8.839 -0.0051 -0.0154  0.2663
   37loPI   C4A  586   6.033  12.216   8.469 -0.2696  0.1470  0.1921
   37loPI   C5A  587   6.085  11.848   8.209  0.1985  0.1408  0.2343
   37loPI   C6A  588   6.330  11.614   8.013  0.0658 -0.4787 -0.0289
   37loPI   C1B  589   6.342  12.801   9.587 -0.0147 -0.0401  0.1402
   37loPI   C2B  590   6.454  12.782   9.192 -0.0268 -0.0497  0.0265
   37loPI   C3B  591   6.383  12.553   8.789  0.1882 -0.1123 -0.0735
   37loPI   C4B  592   6.472  12.409   8.275 -0.0455 -0.0485  0.0254
   38loPI    C1  593   7.895  12.906  10.174 -0.1630  0.1444 -0.1217
   38loPI    C2  594   7.909  13.148  10.492  0.2973  0.0732 -0.0809
   38loPI    C3  595   7.565  12.970  10.391  0.2082 -0.1453  0.5596
   38loPI   PO4  596   8.158  12.797  10.179 -0.0430 -0.0132  0.1715
   38loPI   GL1  597   8.386  13.067   9.938  0.0173 -0.2012 -0.0172
   38loPI   GL2  598   8.063  13.186   9.768 -0.2621 -0.2585 -0.2354
   38loPI   C1A  599   8.419  12.840   9.529 -0.1843 -0.0865 -0.1661
   38loPI   C2A  600   8.427  12.876   9.034 -0.2093  0.0413 -0.3683
   38loPI   C3A  601   8.302  12.983   8.615  0.0562  0.2701 -0.1047
   38loPI   C4A  602   8.189  13.073   8.243  0.2766  0.2444  0.2269
   38loPI   C5A  603   8.320  12.806   7.785  0.1436  0.2293 -0.0119
   38loPI   C6A  604   8.584  12.398   7.876  0.0910 -0.0658 -0.2349
   38loPI   C1B  605   8.155  13.200   9.357  0.0518  0.2179 -0.0903
   38loPI   C2B  606   8.006  13.208   9.035 -0.1227  0.2328  0.2090
   38loPI   C3B  607   7.868  13.237   8.591 -0.2488 -0.1612  0.1707
   38loPI   C4B  608   7.682  13.128   8.131  0.1723  0.0865  0.2405
   39loPI    C1  609  17.646  15.931  10.953  0.1587  0.0191 -0.0447
   39loPI    C2  610  17.715  15.574  11.119  0.2778 -0.0067 -0.1479
   39loPI    C3  611  17.777  15.908  11.330  0.1349 -0.0470 -0.0403
   39loPI   PO4  612  17.524  15.822  10.696  0.2476 -0.2464  0.0328
   39loPI   GL1  613  17.571  15.753  10.216 -0.0905  0.1737  0.2935
   39loPI   GL2  614  17.492  15.430  10.302 -0.0386 -0.3714 -0.2880
   39loPI   C1A  615  17.665  16.160  10.096  0.2898 -0.2570 -0.0666
   39loPI   C2A  616  17.932  16.231   9.675  0.0418 -0.2176 -0.1321
   39loPI   C3A  617  17.885  16.190   9.321 -0.1061  0.1496 -0.0693
   39loPI   C4A  618  17.821  16.214   8.920 -0.1076 -0.0369 -0.1924
   39loPI   C5A  619  17.785  16.375   8.533 -0.0176  0.1337 -0.1997
   39loPI   C6A  620  17.605  16.539   8.164 -0.2950 -0.1907  0.2268
   39loPI   C1B  621  17.393  15.587   9.781  0.0638  0.2067  0.1890
   39loPI   C2B  622  17.152  15.550   9.444 -0.0797  0.0620  0.0444
   39loPI   C3B  623  16.787  15.543   9.209  0.0927 -0.1251  0.2120
   39loPI   C4B  624  16.488  15.433   8.882 -0.2958 -0.1995  0.1698
   40loPI    C1  625  12.101  13.152  10.443  0.1124  0.1671 -0.1008
   40loPI    C2  626  12.200  13.501  10.611 -0.1399  0.1427  0.1060
   40loPI    C3  627  12.242  13.161  10.817  0.0221  0.0583 -0.0634
   40loPI   PO4  628  11.906  13.191  10.321  0.4850  0.0871  0.1206
   40loPI   GL1  629  11.849  13.147   9.969 -0.2751 -0.0821  0.1166
   40loPI   GL2  630  11.580  13.095   9.874 -0.1712 -0.3620 -0.3342
   40loPI   C1A  631  12.004  13.397   9.674  0.0873 -0.1070 -0.1803
   40loPI   C2A  632  12.108  13.402   9.293 -0.0985 -0.2502 -0.1478
   40loPI   C3A  633  12.310  13.271   8.938  0.1863 -0.0249 -0.2663
   40loPI   C4A  634  12.384  12.910   8.802  0.1030  0.0451  0.1688
   40loPI   C5A  635  12.479  12.483   8.859  0.3526  0.0183  0.0816
   40loPI   C6A  636  12.247  12.213   8.871  0.0128 -0.1811 -0.0932
   40loPI   C1B  637  11.686  13.094   9.454 -0.0402  0.0174 -0.0549
   40loPI   C2B  638  11.794  13.120   9.074  0.0686 -0.1271 -0.2918
   40loPI   C3B  639  11.894  13.148   8.674  0.1665  0.1922 -0.2950
   40loPI   C4B  640  12.026  13.397   8.407  0.1129  0.0551 -0.0796
   41loPI    C1  641   1.723  16.091  10.527  0.1219 -0.0641 -0.0076
   41loPI    C2  642   1.562  16.441  10.635 -0.0857 -0.1937  0.1090
   41loPI    C3  643   1.915  16.329  10.785  0.0966  0.0716 -0.1127
   41loPI   PO4  644   1.731  16.027  10.181 -0.2253 -0.1534  0.1186
   41loPI   GL1  645   1.569  15.719   9.962  0.2925  0.2089  0.0249
   41loPI   GL2  646   1.537  15.440   9.803  0.2720  0.1462  0.1234
   41loPI   C1A  647   1.520  15.769   9.501 -0.0380  0.0565 -0.1966
   41loPI   C2A  648   1.476  15.764   9.014 -0.0359 -0.0579  0.0227
   41loPI   C3A  649   1.257  15.573   8.637  0.0099 -0.1967  0.1523
   41loPI   C4A  650   1.040  15.449   8.379  0.0216 -0.1528 -0.1046
   41loPI   C5A  651   0.977  15.116   8.186 -0.1764 -0.2528  0.0281
   41loPI   C6A  652   0.966  14.756   8.369  0.1924  0.2039  0.2464
   41loPI   C1B  653   1.327  15.184   9.501  0.1704 -0.0404  0.1889
   41loPI   C2B  654   1.265  15.238   8.995  0.4222 -0.3317 -0.0294
   41loPI   C3B  655   1.356  15.078   8.545  0.3537 -0.0054 -0.1394
   41loPI   C4B  656   1.448  14.676   8.358  0.1024  0.1560  0.0476
   42loPI    C1  657   1.240  17.518  10.297 -0.0736 -0.2901 -0.1307
   42loPI    C2  658   1.457  17.798  10.484  0.0124 -0.4779  0.0555
   42loPI    C3  659   1.289  17.878  10.129 -0.0556 -0.1553  0.1572
   42loPI   PO4  660   1.479  17.339  10.257  0.0524 -0.2848 -0.2118
   42loPI   GL1  661   1.575  16.967   9.961 -0.2326  0.0214 -0.2598
   42loPI   GL2  662   1.370  16.867   9.729  0.1212  0.1444  0.0700
   42loPI   C1A  663   1.844  16.880   9.608  0.0440  0.0025  0.0114
   42loPI   C2A  664   1.909  16.977   9.231 -0.2805  0.0136 -0.2209
   42loPI   C3A  665   1.766  16.828   8.809  0.0111  0.1191 -0.0948
   42loPI   C4A  666   1.514  16.702   8.511  0.1391  0.0356 -0.2216
   42loPI   C5A  667   1.199  16.293   8.440  0.0041  0.2202 -0.1247
   42loPI   C6A  668   0.896  15.946   8.422 -0.1428 -0.0879 -0.0559
   42loPI   C1B  669   1.482  16.523   9.527  0.4475 -0.1779  0.1048
   42loPI   C2B  670   1.445  16.455   9.073  0.1384  0.2458  0.2792
   42loPI   C3B  671   1.093  16.572   9.061  0.0649 -0.1982  0.0039
   42loPI   C4B  672   0.884  16.653   8.659  0.0318  0.0664 -0.2348
   43loPI    C1  673  13.532  15.770  10.191 -0.0888 -0.1750 -0.1893
   43loPI    C2  674  13.247  15.594  10.409  0.1895 -0.1560  0.2012
   43loPI    C3  675  13.462  15.893  10.565 -0.0425  0.3092 -0.3333
   43loPI   PO4  676  13.617  15.562  10.009 -0.1664 -0.1227 -0.0512
   43loPI   GL1  677  13.441  15.427   9.657 -0.2871  0.1595 -0.1344
   43loPI   GL2  678  13.182  15.326   9.824 -0.1086 -0.3622  0.0198
   43loPI   C1A  679  13.611  15.636   9.322 -0.0733  0.0234 -0.2197
   43loPI   C2A  680  13.677  15.902   8.996  0.4015 -0.2908 -0.0295
   43loPI   C3A  681  13.882  15.984   8.559  0.0564  0.1519 -0.0727
   43loPI   C4A  682  14.243  16.063   8.273  0.4337 -0.0294  0.2898
   43loPI   C5A  683  14.498  16.386   7.905  0.1434  0.1883  0.0707
   43loPI   C6A  684  14.779  16.651   8.053 -0.0744 -0.0923 -0.0151
   43loPI   C1B  685  13.063  15.538   9.401 -0.0937 -0.2517  0.1262
   43loPI   C2B  686  13.154  15.813   9.023 -0.0347  0.1183  0.0198
   43loPI   C3B  687  13.241  16.093   8.797  0.1099 -0.2328  0.2203
   43loPI   C4B  688  13.523  16.372   8.769 -0.1972 -0.2330  0.0150
   44loPI    C1  689  10.172  13.260  10.666 -0.1458 -0.1528  0.0547
   44loPI    C2  690  10.095  13.602  10.858 -0.1445 -0.1206 -0.0020
   44loPI    C3  691  10.101  13.257  11.059  0.2314 -0.0433  0.1277
   44loPI   PO4  692  10.045  13.385  10.424 -0.2207  0.0686 -0.1057
   44loPI   GL1  693  10.180  13.527  10.089  0.3124  0.2111 -0.1753
   44loPI   GL2  694   9.951  13.157   9.974 -0.0914  0.0179  0.1735
   44loPI   C1A  695  10.532  13.597   9.854 -0.2864  0.1496  0.1415
   44loPI   C2A  696  10.806  13.473   9.573 -0.1663 -0.0574 -0.1159
   44loPI   C3A  697  10.995  13.500   9.245  0.2063  0.2600  0.2461
   44loPI   C4A  698  11.025  13.478   8.799  0.0020  0.5422 -0.2095
   44loPI   C5A  699  11.083  13.362   8.428 -0.0156 -0.0881  0.0385
   44loPI   C6A  700  10.812  13.299   8.136 -0.1693  0.0903 -0.0217
   44loPI   C1B  701  10.187  13.084   9.594 -0.1765  0.5178 -0.0433
   44loPI   C2B  702  10.387  13.327   9.365 -0.1386 -0.1794  0.0933
   44loPI   C3B  703  10.546  13.697   9.166  0.4023 -0.3235  0.1539
   44loPI   C4B  704  10.548  14.000   8.778 -0.2713 -0.0699 -0.1095
   45loPI    C1  705  13.918   2.147  10.809  0.1361 -0.0857  0.0483
   45loPI    C2  706  13.759   2.514  10.811  0.1163 -0.0943  0.0722
   45loPI    C3  707  13.855   2.336  11.156  0.4914  0.0464  0.0452
   45loPI   PO4  708  13.847   2.052  10.547 -0.3276 -0.2075  0.3456
   45loPI   GL1  709  13.739   2.150  10.204 -0.1754 -0.4236  0.2009
   45loPI   GL2  710  13.461   2.102  10.112  0.0986  0.1970  0.1836
   45loPI   C1A  711  13.858   2.105   9.781 -0.0880 -0.2729  0.1118
   45loPI   C2A  712  14.095   2.091   9.355 -0.1300  0.2340  0.0627
   45loPI   C3A  713  14.329   2.267   8.985 -0.0846 -0.1937 -0.0277
   45loPI   C4A  714  14.463   2.274   8.546  0.0648  0.0979  0.0085
   45loPI   C5A  715  14.755   2.213   8.199 -0.1467 -0.0549  0.0128
   45loPI   C6A  716  15.022   2.036   8.079  0.2497  0.1191  0.2470
   45loPI   C1B  717  13.448   1.936   9.644  0.1122 -0.1584 -0.3974
   45loPI   C2B  718  13.628   1.996   9.259 -0.0871 -0.2297  0.0673
   45loPI   C3B  719  13.613   1.852   8.828  0.2353  0.0209  0.2343
   45loPI   C4B  720  13.901   1.781   8.489 -0.0473  0.1490 -0.1450
   46loPI    C1  721   0.394  12.101  11.235 -0.0031 -0.0607  0.1859
   46loPI    C2  722   0.148  12.415  11.259  0.0545 -0.0299  0.3951
   46loPI    C3  723   0.034  12.060  11.403 -0.0945 -0.1612 -0.0310
   46loPI   PO4  724   0.493  12.055  10.970  0.1148  0.0177 -0.0527
   46loPI   GL1  725   0.337  12.137  10.540 -0.3649  0.2235  0.1193
   46loPI   GL2  726   0.481  12.425  10.469 -0.3798 -0.0818  0.3581
   46loPI   C1A  727   0.284  12.102  10.043 -0.2269 -0.0972  0.0297
   46loPI   C2A  728   0.213  11.857   9.556  0.0439  0.0839 -0.0944
   46loPI   C3A  729   0.097  11.665   9.248  0.0915 -0.0815 -0.0811
   46loPI   C4A  730   0.131  11.496   8.866  0.3260 -0.2678  0.0373
   46loPI   C5A  731   0.313  11.343   8.376  0.5002  0.2660 -0.0343
   46loPI   C6A  732   0.506  11.379   7.892 -0.1639  0.1066  0.0882
   46loPI   C1B  733   0.533  12.507   9.974  0.1638 -0.1986  0.0210
   46loPI   C2B  734   0.364  12.570   9.586 -0.1018  0.3367 -0.0193
   46loPI   C3B  735   0.200  12.288   9.245  0.1977 -0.0884 -0.2220
   46loPI   C4B  736   0.242  12.044   8.946  0.1711  0.1454  0.0344
   47loPI    C1  737  14.953   0.325  10.794  0.0274 -0.4117  0.1253
   47loPI    C2  738  14.889   0.353  11.188 -0.2008  0.2610  0.0529
   47loPI    C3  739  14.664   0.564  10.933  0.1706  0.1034 -0.4215
   47loPI   PO4  740  15.128   0.086  10.787 -0.0701  0.1349  0.0306
   47loPI   GL1  741  15.062  -0.114  10.430 -0.0092 -0.3354 -0.2696
   47loPI   GL2  742  14.915   0.105  10.292 -0.1145  0.0578  0.4770
   47loPI   C1A  743  15.170  -0.229   9.945 -0.0759 -0.0138 -0.0681
   47loPI   C2A  744  15.260  -0.208   9.545 -0.1048  0.0636 -0.0152
   47loPI   C3A  745  15.324  -0.483   9.188  0.0526 -0.1897  0.2587
   47loPI   C4A  746  15.357  -0.768   8.841 -0.2676  0.2125 -0.1979
   47loPI   C5A  747  15.633  -1.060   8.610 -0.1656  0.1902  0.1308
   47loPI   C6A  748  15.626  -1.229   8.243 -0.2002 -0.0969  0.1008
   47loPI   C1B  749  14.761   0.165   9.892  0.0195  0.1788  0.1539
   47loPI   C2B  750  14.844   0.001   9.444  0.0168  0.2085  0.2069
   47loPI   C3B  751  14.765   0.068   9.078  0.1588 -0.1463 -0.1747
   47loPI   C4B  752  14.783  -0.110   8.617  0.1360 -0.2594 -0.0508
   48loPI    C1  753   6.728   7.555  10.401 -0.0729  0.1782 -0.1005
   48loPI    C2  754   6.674   7.605  10.794  0.1853 -0.3690  0.0148
   48loPI    C3  755   6.965   7.804  10.605  0.0037 -0.0370  0.0771
   48loPI   PO4  756   6.472   7.336  10.389 -0.0474  0.2188  0.0580
   48loPI   GL1  757   6.349   7.266   9.959  0.2944 -0.0141  0.0172
   48loPI   GL2  758   6.260   6.816   9.939 -0.0315 -0.5158 -0.2237
   48loPI   C1A  759   6.448   7.404   9.502 -0.3065 -0.1049 -0.1340
   48loPI   C2A  760   6.430   7.257   9.065 -0.3352 -0.1036  0.1779
   48loPI   C3A  761   6.333   7.184   8.627  0.1322  0.1228  0.1383
   48loPI   C4A  762   6.191   7.041   8.127 -0.2598  0.1267  0.1314
   48loPI   C5A  763   6.495   6.967   7.797  0.0924 -0.0302 -0.2540
   48loPI   C6A  764   6.813   6.624   7.805  0.1415  0.1755  0.2008
   48loPI   C1B  765   5.929   6.953   9.706  0.2049 -0.1228  0.3161
   48loPI   C2B  766   5.748   7.019   9.235  0.0684 -0.3891 -0.0243
   48loPI   C3B  767   5.775   6.970   8.781 -0.6242 -0.2763  0.1378
   48loPI   C4B  768   5.837   6.879   8.392 -0.2336  0.0851  0.0483
   49loPI    C1  769  17.468  10.148  10.902 -0.1325 -0.0934  0.1402
   49loPI    C2  770  17.763  10.418  10.889 -0.0129 -0.2323 -0.0908
   49loPI    C3  771  17.480  10.445  11.170  0.0454  0.0828 -0.0587
   49loPI   PO4  772  17.338  10.084  10.614  0.0109 -0.1003  0.0613
   49loPI   GL1  773  17.105   9.786  10.260  0.2495 -0.0310  0.0716
   49loPI   GL2  774  17.068   9.472  10.265  0.0525  0.1575  0.0748
   49loPI   C1A  775  16.804   9.927   9.813  0.1447 -0.1833  0.0509
   49loPI   C2A  776  16.860   9.814   9.416  0.2114 -0.1082 -0.2049
   49loPI   C3A  777  16.928   9.725   8.988  0.0175  0.0713  0.1906
   49loPI   C4A  778  16.669   9.397   8.691 -0.2518  0.0684  0.0702
   49loPI   C5A  779  16.784   8.933   8.461  0.0624 -0.1729 -0.1594
   49loPI   C6A  780  16.557   8.635   8.252  0.0367  0.0951 -0.1375
   49loPI   C1B  781  17.382   9.670   9.890  0.2366 -0.1628 -0.1154
   49loPI   C2B  782  17.855   9.555   9.857 -0.1632  0.2346 -0.2197
   49loPI   C3B  783  18.130   9.399   9.491  0.3329  0.2157 -0.0047
   49loPI   C4B  784  18.314   9.150   9.013 -0.0532 -0.3178 -0.0348
   50loPI    C1  785   7.352  16.647  10.479  0.1213  0.2112  0.0028
   50loPI    C2  786   7.594  16.650  10.798 -0.0495 -0.0079  0.1375
   50loPI    C3  787   7.636  16.367  10.519 -0.0205  0.0739  0.0585
   50loPI   PO4  788   7.399  16.872  10.385  0.0842  0.1910 -0.0249
   50loPI   GL1  789   7.262  16.937  10.025 -0.1510  0.1294  0.0197
   50loPI   GL2  790   7.063  17.220   9.967 -0.0584  0.1134 -0.0723
   50loPI   C1A  791   7.211  16.947   9.541 -0.1230  0.1352  0.0625
   50loPI   C2A  792   7.163  17.183   9.246 -0.2048 -0.0849  0.1725
   50loPI   C3A  793   7.017  17.262   8.832 -0.0676 -0.1134 -0.0243
   50loPI   C4A  794   6.962  17.525   8.555 -0.2296  0.0202 -0.0300
   50loPI   C5A  795   7.197  17.488   8.158 -0.4143  0.1913  0.0231
   50loPI   C6A  796   7.462  17.557   7.783 -0.0269  0.2243 -0.1080
   50loPI   C1B  797   7.246  17.527   9.702  0.3515  0.1803  0.0280
   50loPI   C2B  798   7.143  17.715   9.332 -0.0792  0.2290 -0.3280
   50loPI   C3B  799   7.066  17.791   8.919 -0.3597  0.0987 -0.2946
   50loPI   C4B  800   7.228  17.985   8.531 -0.3157  0.3505 -0.0261
   51loPI    C1  801   9.384  15.238  11.038  0.2202  0.1462  0.0899
   51loPI    C2  802   9.285  15.131  11.410  0.0520  0.1580  0.0493
   51loPI    C3  803   9.012  15.115  11.118  0.1669  0.2062 -0.0618
   51loPI   PO4  804   9.582  15.044  10.966  0.3419  0.3148 -0.1481
   51loPI   GL1  805   9.702  14.872  10.601  0.1448  0.0481  0.1824
   51loPI   GL2  806   9.619  15.003  10.288 -0.0039 -0.2060 -0.3846
   51loPI   C1A  807   9.977  14.550  10.269 -0.3364 -0.1771  0.0307
   51loPI   C2A  808  10.062  14.410   9.818 -0.0564  0.5189  0.1523
   51loPI   C3A  809  10.174  14.076   9.513 -0.0423 -0.0162 -0.3306
   51loPI   C4A  810  10.197  13.994   9.084 -0.0164  0.2057 -0.0653
   51loPI   C5A  811  10.100  14.163   8.694  0.1347 -0.0593  0.1136
   51loPI   C6A  812  10.273  14.129   8.335 -0.0166  0.1211  0.0446
   51loPI   C1B  813   9.743  14.838   9.916  0.3078  0.1580 -0.2341
   51loPI   C2B  814   9.682  14.926   9.428 -0.2888 -0.2303 -0.4070
   51loPI   C3B  815   9.610  14.943   8.996  0.0101  0.3365  0.2117
   51loPI   C4B  816   9.594  14.868   8.494  0.0419  0.1043 -0.0686
   52loPI    C1  817  11.520  12.705  10.604 -0.0555 -0.0678 -0.0430
   52loPI    C2  818  11.421  13.022  10.827  0.0991  0.0875 -0.1918
   52loPI    C3  819  11.794  12.876  10.841 -0.0938 -0.3959  0.2466
   52loPI   PO4  820  11.379  12.804  10.257 -0.1394  0.0888 -0.3233
   52loPI   GL1  821  11.240  12.589   9.854 -0.1746 -0.0446 -0.2246
   52loPI   GL2  822  11.160  12.284  10.050 -0.3348 -0.0595  0.1287
   52loPI   C1A  823  11.246  12.988   9.578  0.0207  0.2500  0.0595
   52loPI   C2A  824  11.297  13.094   9.061 -0.0663  0.2702 -0.0421
   52loPI   C3A  825  11.148  12.977   8.742  0.0842 -0.3343  0.3016
   52loPI   C4A  826  11.191  12.567   8.466  0.0736  0.0749  0.0103
   52loPI   C5A  827  11.631  12.350   8.415 -0.0540 -0.0618 -0.0367
   52loPI   C6A  828  11.869  12.192   8.108 -0.1770 -0.0269 -0.2224
   52loPI   C1B  829  10.767  12.356   9.823  0.1565 -0.0788 -0.1799
   52loPI   C2B  830  10.753  12.483   9.301 -0.0160  0.0364 -0.1394
   52loPI   C3B  831  10.779  12.671   8.821 -0.1234 -0.1870 -0.0624
   52loPI   C4B  832  10.753  12.790   8.457  0.2255 -0.0149  0.0262
   53loPI    C1  833  12.547  12.265  10.670  0.1770  0.0407 -0.2724
   53loPI    C2  834  12.775  12.588  10.727  0.1323  0.0288 -0.0145
   53loPI    C3  835  12.737  12.316  11.018 -0.1957  0.0212 -0.0609
   53loPI   PO4  836  12.539  12.191  10.455 -0.0003  0.1391  0.1577
   53loPI   GL1  837  12.616  12.032  10.126  0.2466 -0.0022  0.0955
   53loPI   GL2  838  12.925  11.950  10.004  0.1077  0.3464 -0.0177
   53loPI   C1A  839  12.793  12.339   9.794  0.2070  0.0620  0.2040
   53loPI   C2A  840  12.968  12.422   9.311  0.3251  0.4126 -0.0462
   53loPI   C3A  841  13.325  12.535   9.062 -0.0754  0.0183  0.0853
   53loPI   C4A  842  13.619  12.713   8.914 -0.1134  0.0883  0.1743
   53loPI   C5A  843  13.976  12.857   8.697 -0.1714  0.0063  0.0525
   53loPI   C6A  844  14.302  12.936   8.475 -0.2272  0.3484 -0.0316
   53loPI   C1B  845  12.894  11.929   9.472 -0.0068 -0.1140  0.4412
   53loPI   C2B  846  12.967  12.002   9.015  0.0089  0.1765 -0.1767
   53loPI   C3B  847  12.910  12.301   8.849  0.0623 -0.3136 -0.1320
   53loPI   C4B  848  12.963  12.355   8.469  0.0253  0.0542  0.4098
   54loPI    C1  849   0.007   5.614  11.249  0.0112  0.0571  0.1158
   54loPI    C2  850  -0.268   5.702  11.527  0.0167 -0.0197  0.1459
   54loPI    C3  851  -0.104   5.337  11.516 -0.0160 -0.0309  0.0138
   54loPI   PO4  852  -0.015   5.910  11.124  0.0511  0.1400 -0.4967
   54loPI   GL1  853  -0.299   5.974  10.794  0.1889 -0.1810  0.2614
   54loPI   GL2  854   0.019   6.004  10.615 -0.0819 -0.0177  0.1510
   54loPI   C1A  855  -0.349   5.760  10.288 -0.2327  0.2746  0.4260
   54loPI   C2A  856  -0.079   5.855   9.967  0.0690  0.2222  0.2212
   54loPI   C3A  857  -0.219   6.153   9.622 -0.2690 -0.0683  0.0845
   54loPI   C4A  858  -0.443   6.126   9.256  0.1818 -0.0744 -0.5982
   54loPI   C5A  859  -0.449   5.904   8.980 -0.0247 -0.1074 -0.0068
   54loPI   C6A  860  -0.220   5.721   8.684  0.1285  0.0521  0.0926
   54loPI   C1B  861   0.359   5.936  10.266 -0.2680 -0.0868 -0.1909
   54loPI   C2B  862   0.724   6.010   9.974  0.3994  0.0419 -0.0071
   54loPI   C3B  863   0.718   6.049   9.511  0.1991  0.2206  0.0885
   54loPI   C4B  864   0.495   6.083   9.103  0.0088  0.3782  0.1656
   55loPI    C1  865  12.890   3.323  11.000 -0.0792 -0.0350 -0.0521
   55loPI    C2  866  12.954   3.611  11.270  0.1703 -0.1416  0.0059
   55loPI    C3  867  12.717   3.302  11.360 -0.0409  0.0071 -0.0311
   55loPI   PO4  868  12.802   3.462  10.779 -0.3404  0.2491 -0.0002
   55loPI   GL1  869  12.627   3.466  10.319 -0.2150 -0.0540 -0.1732
   55loPI   GL2  870  12.682   3.700   9.993  0.0795  0.0642  0.3673
   55loPI   C1A  871  12.887   3.193  10.034 -0.0986  0.1268  0.1640
   55loPI   C2A  872  13.121   3.273   9.762 -0.1226 -0.2289 -0.0164
   55loPI   C3A  873  13.096   3.383   9.393 -0.3802  0.2164 -0.0322
   55loPI   C4A  874  13.159   3.095   9.060 -0.2372 -0.3191 -0.1294
   55loPI   C5A  875  13.246   2.897   8.571 -0.2020 -0.1520  0.3831
   55loPI   C6A  876  13.053   3.019   8.228 -0.0053  0.1880 -0.2000
   55loPI   C1B  877  12.660   3.567   9.601 -0.0443 -0.0688  0.1954
   55loPI   C2B  878  12.720   3.676   9.267  0.0539 -0.0298 -0.1170
   55loPI   C3B  879  12.859   3.608   8.880 -0.0073 -0.0414 -0.0573
   55loPI   C4B  880  13.193   3.541   8.625  0.0910  0.0849  0.0935
   56loPI    C1  881  10.630   2.540  10.497  0.1647 -0.1718  0.1176
   56loPI    C2  882  10.713   2.243  10.752 -0.0361 -0.3223  0.0104
   56loPI    C3  883  10.346   2.404  10.744  0.0689 -0.0755  0.0619
   56loPI   PO4  884  10.764   2.491  10.306  0.2356 -0.0791 -0.2559
   56loPI   GL1  885  10.657   2.213   9.952 -0.0236 -0.1487  0.1566
   56loPI   GL2  886  10.960   2.144   9.863  0.0385 -0.0650  0.2291
   56loPI   C1A  887  10.656   2.324   9.492  0.2298  0.1682  0.1259
   56loPI   C2A  888  10.869   2.512   9.112 -0.3290  0.0784 -0.3395
   56loPI   C3A  889  11.025   2.666   8.711  0.1568 -0.0230 -0.1470
   56loPI   C4A  890  11.145   2.757   8.326  0.1369  0.1943  0.0433
   56loPI   C5A  891  11.483   2.927   8.153  0.1284 -0.0944 -0.1351
   56loPI   C6A  892  11.818   3.186   7.933 -0.0393  0.0919 -0.1267
   56loPI   C1B  893  11.209   2.342   9.574  0.0342 -0.1352  0.2724
   56loPI   C2B  894  11.338   2.402   9.092  0.1065 -0.0045 -0.3514
   56loPI   C3B  895  11.372   2.275   8.746 -0.3430  0.4521 -0.0609
   56loPI   C4B  896  11.484   2.365   8.295  0.0233  0.2622  0.0286
   57loPI    C1  897   7.450   1.720  10.637  0.2593 -0.1462  0.0227
   57loPI    C2  898   7.379   1.497  10.961  0.1865 -0.0091  0.1021
   57loPI    C3  899   7.456   1.888  11.000 -0.0388  0.0538 -0.0606
   57loPI   PO4  900   7.520   1.586  10.425  0.0576 -0.0040  0.1465
   57loPI   GL1  901   7.608   1.375  10.028 -0.0182 -0.0331 -0.3696
   57loPI   GL2  902   7.638   1.047   9.820 -0.1862 -0.0251 -0.0238
   57loPI   C1A  903   7.454   1.428   9.558 -0.1090 -0.1014 -0.1351
   57loPI   C2A  904   7.855   1.385   9.269  0.1132 -0.0625  0.1105
   57loPI   C3A  905   7.871   1.592   8.884  0.2580 -0.0156  0.3563
   57loPI   C4A  906   7.800   1.658   8.458 -0.1323 -0.3327 -0.1352
   57loPI   C5A  907   7.676   1.546   8.039  0.2212 -0.2285 -0.3156
   57loPI   C6A  908   7.706   1.569   7.592  0.0806 -0.0624  0.0192
   57loPI   C1B  909   7.460   0.936   9.416  0.2285 -0.1739 -0.0348
   57loPI   C2B  910   7.405   1.182   9.091 -0.1358  0.1574  0.1006
   57loPI   C3B  911   7.533   1.250   8.687 -0.3009  0.0474  0.0541
   57loPI   C4B  912   7.672   1.174   8.301 -0.4118  0.1268 -0.0373
   58loPI    C1  913   6.140  10.206   9.822  0.1262  0.0903 -0.1904
   58loPI    C2  914   6.159  10.605   9.827 -0.1571  0.1042  0.0016
   58loPI    C3  915   6.034  10.407  10.151 -0.0297 -0.1411 -0.0964
   58loPI   PO4  916   6.058  10.056   9.676  0.1665  0.1555  0.0294
   58loPI   GL1  917   6.077   9.742   9.437 -0.0099  0.1496  0.2274
   58loPI   GL2  918   5.864   9.525   9.545 -0.0406 -0.2617  0.0189
   58loPI   C1A  919   5.945   9.889   9.104  0.1050 -0.1818  0.0625
   58loPI   C2A  920   5.892   9.977   8.637 -0.3745  0.3588  0.2114
   58loPI   C3A  921   5.878  10.097   8.061 -0.0421 -0.0986  0.0243
   58loPI   C4A  922   6.178  10.185   7.811  0.1168  0.0062  0.3358
   58loPI   C5A  923   6.469  10.382   7.807  0.0937 -0.1479 -0.1954
   58loPI   C6A  924   6.908  10.444   7.844 -0.2403  0.4077  0.1169
   58loPI   C1B  925   5.953   9.356   9.114  0.1685 -0.0037 -0.0714
   58loPI   C2B  926   6.028   9.506   8.687  0.2622 -0.0382 -0.1420
   58loPI   C3B  927   6.107   9.694   8.264  0.1572 -0.0668 -0.1141
   58loPI   C4B  928   6.455   9.835   8.021 -0.3452  0.0731 -0.4077
   59loPI    C1  929   4.717   0.304  10.759  0.0066 -0.1142 -0.0460
   59loPI    C2  930   4.491  -0.008  10.863  0.1070 -0.1301  0.1274
   59loPI    C3  931   4.866   0.020  10.998  0.0572  0.1292  0.2169
   59loPI   PO4  932   4.703   0.317  10.513  0.0615  0.0411  0.2807
   59loPI   GL1  933   4.604   0.114  10.141  0.1022  0.0279 -0.0970
   59loPI   GL2  934   4.472   0.405  10.021 -0.0568  0.0086  0.1052
   59loPI   C1A  935   4.950   0.123   9.885  0.0168  0.0740  0.0903
   59loPI   C2A  936   5.004   0.227   9.414 -0.0411  0.0194  0.2018
   59loPI   C3A  937   4.830   0.169   8.982 -0.0637  0.1531  0.1276
   59loPI   C4A  938   4.845   0.114   8.618 -0.2071  0.2462 -0.1707
   59loPI   C5A  939   4.560   0.049   8.177 -0.3034 -0.0883 -0.0126
   59loPI   C6A  940   4.239   0.414   8.117 -0.0050  0.1567  0.1032
   59loPI   C1B  941   4.471   0.538   9.590  0.1033 -0.0959 -0.1159
   59loPI   C2B  942   4.504   0.564   9.089  0.0463 -0.0060  0.0170
   59loPI   C3B  943   4.606   0.578   8.620  0.0872 -0.0206 -0.0344
   59loPI   C4B  944   4.642   0.759   8.136 -0.2556 -0.1284 -0.1086
   60loPI    C1  945  12.153  17.313  10.501 -0.0187 -0.1248 -0.1800
   60loPI    C2  946  11.974  16.993  10.661 -0.0927  0.0009 -0.0078
   60loPI    C3  947  11.966  17.344  10.853  0.2213  0.0424 -0.0641
   60loPI   PO4  948  12.078  17.316  10.256  0.1720  0.4126 -0.1433
   60loPI   GL1  949  11.964  17.339   9.919 -0.3373  0.1164 -0.0982
   60loPI   GL2  950  12.185  17.043   9.834  0.1259 -0.3084  0.2629
   60loPI   C1A  951  11.618  17.065   9.818 -0.3304 -0.1271 -0.0303
   60loPI   C2A  952  11.545  16.939   9.403 -0.1464 -0.0641  0.1420
   60loPI   C3A  953  11.166  16.819   9.044 -0.1668  0.0857 -0.1412
   60loPI   C4A  954  11.234  16.844   8.550 -0.1547  0.1508 -0.2857
   60loPI   C5A  955  11.384  16.918   8.053 -0.2067  0.1261  0.1256
   60loPI   C6A  956  11.349  17.360   7.980 -0.0562 -0.2247  0.1096
   60loPI   C1B  957  12.045  17.073   9.461  0.0952  0.5138 -0.0093
   60loPI   C2B  958  12.023  16.914   9.020 -0.1731 -0.1986 -0.1878
   60loPI   C3B  959  11.964  16.782   8.526 -0.2168 -0.0217  0.1862
   60loPI   C4B  960  11.832  16.718   8.142  0.3949  0.1978 -0.0040
   61loPI    C1  961   4.757   2.372  10.739  0.1019  0.0508 -0.1624
   61loPI    C2  962   4.360   2.370  10.695  0.0838 -0.2829 -0.0124
   61loPI    C3  963   4.539   2.080  10.904  0.4147 -0.1777 -0.1445
   61loPI   PO4  964   4.822   2.479  10.542  0.2317  0.1221 -0.1767
   61loPI   GL1  965   4.719   2.492  10.190  0.0200  0.1500 -0.2070
   61loPI   GL2  966   5.067   2.565  10.053 -0.0125  0.1781  0.1503
   61loPI   C1A  967   4.651   2.506   9.729 -0.1505 -0.0459 -0.1112
   61loPI   C2A  968   4.671   2.545   9.264 -0.0142 -0.0836  0.1480
   61loPI   C3A  969   4.714   2.541   8.854 -0.1457  0.0025 -0.1250
   61loPI   C4A  970   4.767   2.556   8.389 -0.1815 -0.2375 -0.1996
   61loPI   C5A  971   5.141   2.576   8.079  0.1072 -0.0822  0.1607
   61loPI   C6A  972   5.094   2.613   7.705  0.1401  0.3289 -0.2720
   61loPI   C1B  973   5.171   2.480   9.719  0.0578  0.1996 -0.1448
   61loPI   C2B  974   5.314   2.472   9.300 -0.0365  0.0653  0.2145
   61loPI   C3B  975   5.466   2.557   8.929 -0.1291 -0.0360 -0.1585
   61loPI   C4B  976   5.461   2.608   8.460  0.1407  0.1036  0.1507
   62loPI    C1  977   5.864   0.437  10.469 -0.1314 -0.0504 -0.0215
   62loPI    C2  978   5.687   0.173  10.712 -0.1307  0.0046  0.0392
   62loPI    C3  979   6.065   0.286  10.780 -0.1362  0.0332  0.0227
   62loPI   PO4  980   5.647   0.540  10.277  0.4072 -0.2599  0.1271
   62loPI   GL1  981   5.237   0.489  10.055  0.2226 -0.0702  0.0262
   62loPI   GL2  982   4.935   0.566  10.031 -0.2709  0.3208  0.0278
   62loPI   C1A  983   5.403   0.502   9.582 -0.3577  0.1106  0.1215
   62loPI   C2A  984   5.476   0.353   9.169 -0.0856  0.1863  0.0035
   62loPI   C3A  985   5.431   0.233   8.735  0.3536  0.1169  0.2204
   62loPI   C4A  986   5.401   0.257   8.326 -0.3659  0.0231  0.1836
   62loPI   C5A  987   5.570   0.101   7.995 -0.0234  0.0728 -0.1033
   62loPI   C6A  988   5.724  -0.332   7.930  0.1042  0.3388  0.1431
   62loPI   C1B  989   5.200   0.950   9.875  0.2984  0.1820  0.1140
   62loPI   C2B  990   5.140   1.136   9.542  0.3384  0.4158 -0.0669
   62loPI   C3B  991   5.114   1.135   9.147 -0.2090  0.1379  0.0985
   62loPI   C4B  992   5.286   1.258   8.648 -0.0905 -0.0489  0.0930
   63loPI    C1  993   0.346   6.851  11.240  0.0614 -0.2645 -0.0570
   63loPI    C2  994   0.183   6.581  11.486  0.0539 -0.4075 -0.2172
   63loPI    C3  995   0.577   6.650  11.498  0.0226 -0.2522 -0.0124
   63loPI   PO4  996   0.385   6.837  10.904  0.2222  0.0685  0.0273
   63loPI   GL1  997   0.470   6.819  10.544  0.0455  0.0325  0.0682
   63loPI   GL2  998   0.302   6.435  10.509  0.0438 -0.1591  0.0236
   63loPI   C1A  999   0.586   7.068  10.097 -0.0375  0.2438 -0.1227
   63loPI   C2A 1000   0.628   7.190   9.696  0.2513  0.0006 -0.1734
   63loPI   C3A 1001   0.666   7.113   9.243  0.2652 -0.1380 -0.1705
   63loPI   C4A 1002   0.529   7.083   8.761  0.0295 -0.1287  0.0025
   63loPI   C5A 1003   0.352   7.336   8.245  0.1917 -0.0555 -0.0375
   63loPI   C6A 1004   0.104   7.316   7.930  0.0509  0.0739 -0.3087
   63loPI   C1B 1005   0.027   6.363  10.237  0.1511  0.0376 -0.0134
   63loPI   C2B 1006  -0.024   6.578   9.889 -0.5014  0.3355  0.1133
   63loPI   C3B 1007   0.177   6.841   9.702  0.1885 -0.1552 -0.2890
   63loPI   C4B 1008   0.256   6.845   9.333 -0.0827 -0.1724 -0.2987
   64loPI    C1 1009  16.604   0.201  11.014  0.0524 -0.1199 -0.0245
   64loPI    C2 1010  16.818   0.204  11.351  0.0024  0.0580  0.0066
   64loPI    C3 1011  16.506  -0.043  11.315  0.1208 -0.0943  0.0185
   64loPI   PO4 1012  16.857   0.210  10.789 -0.2552 -0.2617 -0.1108
   64loPI   GL1 1013  16.692   0.013  10.369 -0.1066  0.0497  0.1898
   64loPI   GL2 1014  17.000   0.256  10.234  0.1679  0.0838 -0.0801
   64loPI   C1A 1015  16.452  -0.037   9.965 -0.3991 -0.0780 -0.0630
   64loPI   C2A 1016  16.325   0.092   9.581  0.1259 -0.1331 -0.2075
   64loPI   C3A 1017  16.052   0.211   9.149  0.0895  0.1254  0.2488
   64loPI   C4A 1018  16.217   0.306   8.698  0.0985  0.0449  0.3566
   64loPI   C5A 1019  15.965   0.259   8.347  0.0166  0.0561 -0.6024
   64loPI   C6A 1020  15.608   0.094   8.126 -0.1806  0.1245  0.2966
   64loPI   C1B 1021  16.796   0.302   9.809 -0.0419 -0.1563  0.1417
   64loPI   C2B 1022  16.493   0.558   9.456 -0.1714  0.1683 -0.1213
   64loPI   C3B 1023  16.146   0.675   9.161  0.1712  0.0537  0.3426
   64loPI   C4B 1024  15.889   0.698   8.844 -0.0744 -0.1125  0.0356
   65loPI    C1 1025   9.768   7.538  10.907 -0.1483  0.0483  0.0834
   65loPI    C2 1026   9.423   7.740  10.901 -0.0305  0.2505  0.0194
   65loPI    C3 1027   9.765   7.931  10.980  0.0697  0.0540  0.0675
   65loPI   PO4 1028   9.801   7.398  10.659  0.3041  0.2930  0.0530
   65loPI   GL1 1029   9.842   7.388  10.270 -0.0935 -0.2670  0.0682
   65loPI   GL2 1030   9.767   7.730  10.164  0.3705  0.3222 -0.0133
   65loPI   C1A 1031   9.999   7.357   9.834  0.1035  0.0572  0.0296
   65loPI   C2A 1032  10.050   7.305   9.373 -0.3040 -0.2768  0.1859
   65loPI   C3A 1033  10.355   7.201   9.043 -0.2170  0.2155  0.0168
   65loPI   C4A 1034  10.447   7.328   8.751 -0.2250 -0.3347  0.1704
   65loPI   C5A 1035  10.725   7.518   8.365 -0.0010  0.0607 -0.0355
   65loPI   C6A 1036  11.136   7.632   8.143 -0.2609  0.2682 -0.1440
   65loPI   C1B 1037   9.644   7.714   9.793  0.0512  0.0595  0.0263
   65loPI   C2B 1038   9.687   7.722   9.390 -0.3223 -0.0161  0.1650
   65loPI   C3B 1039   9.728   7.835   8.913 -0.1198  0.0950 -0.1599
   65loPI   C4B 1040   9.711   7.625   8.534 -0.0472  0.1295 -0.1753
   66loPI    C1 1041  12.172   2.594  10.888  0.0653  0.1648 -0.0006
   66loPI    C2 1042  12.103   2.984  10.835 -0.0370  0.1552  0.0603
   66loPI    C3 1043  11.846   2.762  11.046 -0.0545  0.0250 -0.0964
   66loPI   PO4 1044  12.282   2.532  10.639 -0.1253 -0.3666 -0.0864
   66loPI   GL1 1045  12.271   2.277  10.280 -0.1588 -0.2553 -0.0650
   66loPI   GL2 1046  12.129   2.021  10.237 -0.0227 -0.3126  0.0957
   66loPI   C1A 1047  12.518   2.153   9.919  0.4325  0.1428 -0.2167
   66loPI   C2A 1048  12.559   1.964   9.575 -0.0767 -0.2991  0.1869
   66loPI   C3A 1049  12.628   1.941   9.178  0.1405 -0.0305  0.0752
   66loPI   C4A 1050  12.729   1.940   8.668 -0.4009  0.1799 -0.0948
   66loPI   C5A 1051  12.815   1.954   8.333  0.1928 -0.2447  0.1909
   66loPI   C6A 1052  13.149   2.008   8.018 -0.2859  0.0548 -0.0190
   66loPI   C1B 1053  12.099   1.820   9.792 -0.2243 -0.1340 -0.0852
   66loPI   C2B 1054  12.163   1.784   9.293  0.3339  0.2740 -0.1585
   66loPI   C3B 1055  12.180   1.599   8.862 -0.0380 -0.1524  0.3370
   66loPI   C4B 1056  12.362   1.524   8.472  0.0753  0.1367 -0.3179
   67loPI    C1 1057  10.681   6.645  10.494  0.0942 -0.2462  0.2025
   67loPI    C2 1058  10.410   6.935  10.553  0.2474 -0.0698  0.0497
   67loPI    C3 1059  10.563   6.737  10.866  0.0252 -0.0953  0.1440
   67loPI   PO4 1060  10.586   6.563  10.253  0.1521  0.0664 -0.1477
   67loPI   GL1 1061  10.638   6.644   9.812  0.1150  0.1874  0.1854
   67loPI   GL2 1062  10.290   6.488   9.861  0.0547  0.0450  0.0227
   67loPI   C1A 1063  10.513   6.698   9.468  0.1285 -0.1283 -0.0339
   67loPI   C2A 1064  10.423   6.572   9.107 -0.1534 -0.2021 -0.1627
   67loPI   C3A 1065  10.332   6.453   8.632  0.0703  0.0867  0.1004
   67loPI   C4A 1066  10.147   6.416   8.208  0.0897 -0.0881 -0.0783
   67loPI   C5A 1067  10.028   6.189   7.913  0.1448  0.0533 -0.0371
   67loPI   C6A 1068  10.147   5.825   7.667 -0.0240  0.1092  0.0672
   67loPI   C1B 1069  10.094   6.269   9.465 -0.2663  0.0023  0.3633
   67loPI   C2B 1070   9.862   6.409   8.987  0.1002 -0.0255  0.0937
   67loPI   C3B 1071   9.854   6.219   8.567  0.1280 -0.2187  0.0946
   67loPI   C4B 1072   9.667   6.368   8.180 -0.0327  0.1827 -0.0353
   68loPI    C1 1073  11.954   2.201  10.662 -0.0886  0.1015  0.1060
   68loPI    C2 1074  11.999   1.816  10.761 -0.0464  0.1001  0.0814
   68loPI    C3 1075  12.273   2.085  10.873  0.2930  0.0110 -0.4966
   68loPI   PO4 1076  11.759   2.249  10.462  0.0940 -0.0507 -0.0983
   68loPI   GL1 1077  11.801   2.370  10.073  0.0248  0.1386  0.1774
   68loPI   GL2 1078  11.557   2.383   9.917 -0.1203  0.3761 -0.0268
   68loPI   C1A 1079  12.128   2.388   9.746 -0.1730 -0.0326 -0.1078
   68loPI   C2A 1080  12.117   2.326   9.283  0.0348  0.1010 -0.0048
   68loPI   C3A 1081  12.251   2.113   8.874  0.1495 -0.1939 -0.0046
   68loPI   C4A 1082  12.272   2.007   8.451 -0.3306  0.0044 -0.1560
   68loPI   C5A 1083  12.288   1.811   8.102 -0.0650  0.1404 -0.0143
   68loPI   C6A 1084  12.312   1.483   7.872  0.4107  0.1242 -0.1076
   68loPI   C1B 1085  11.666   2.587   9.510 -0.0441  0.2905 -0.0879
   68loPI   C2B 1086  11.700   2.731   9.197  0.0968 -0.2157 -0.2486
   68loPI   C3B 1087  11.858   2.531   8.879 -0.0269  0.1212 -0.0723
   68loPI   C4B 1088  11.913   2.388   8.485  0.0231  0.2591  0.0363
   69loPI    C1 1089   1.879  10.708  11.083  0.3785 -0.0497 -0.1745
   69loPI    C2 1090   1.907  10.365  11.288  0.0699 -0.0908 -0.1966
   69loPI    C3 1091   2.117  10.685  11.403  0.3146 -0.2695 -0.1410
   69loPI   PO4 1092   1.847  10.647  10.881 -0.2867 -0.2649 -0.0866
   69loPI   GL1 1093   1.666  10.461  10.494  0.1983  0.3253  0.2778
   69loPI   GL2 1094   1.844  10.249  10.221 -0.0897  0.0514 -0.1489
   69loPI   C1A 1095   1.338  10.296  10.236  0.0276  0.0691  0.0075
   69loPI   C2A 1096   1.282  10.328   9.827  0.3578  0.1631 -0.0459
   69loPI   C3A 1097   1.265  10.241   9.444 -0.0853 -0.5815  0.0703
   69loPI   C4A 1098   1.431  10.017   9.090 -0.0490 -0.0777  0.0797
   69loPI   C5A 1099   1.339  10.038   8.592 -0.2137 -0.1725  0.4225
   69loPI   C6A 1100   1.467  10.150   8.209  0.1470 -0.0276  0.3618
   69loPI   C1B 1101   1.595   9.947  10.000 -0.0313 -0.4578  0.2034
   69loPI   C2B 1102   1.602   9.834   9.520 -0.0988 -0.3357 -0.0623
   69loPI   C3B 1103   1.905   9.969   9.334 -0.2083  0.3485 -0.1073
   69loPI   C4B 1104   2.114  10.062   8.994  0.1561  0.3394  0.2892
   70loPI    C1 1105  10.683   8.937  10.568  0.2695 -0.1376  0.1761
   70loPI    C2 1106  10.404   9.206  10.470  0.2945 -0.2361 -0.1788
   70loPI    C3 1107  10.578   9.221  10.830  0.0088 -0.0258 -0.0450
   70loPI   PO4 1108  10.904   8.929  10.419 -0.1645  0.1344  0.0830
   70loPI   GL1 1109  11.012   8.525  10.282  0.1576 -0.0927  0.1742
   70loPI   GL2 1110  10.778   8.386  10.088 -0.0585 -0.0254  0.0027
   70loPI   C1A 1111  11.068   8.643   9.856  0.0218  0.0676 -0.0826
   70loPI   C2A 1112  11.143   8.725   9.401 -0.0887  0.2409  0.2650
   70loPI   C3A 1113  10.976   8.918   9.054  0.0069  0.4318  0.0796
   70loPI   C4A 1114  10.829   9.306   8.754  0.0605 -0.0020  0.0214
   70loPI   C5A 1115  10.569   9.494   8.543  0.2194  0.0348 -0.0293
   70loPI   C6A 1116  10.187   9.562   8.351 -0.0724 -0.0314 -0.1614
   70loPI   C1B 1117  10.675   8.041   9.762 -0.1124 -0.1677  0.0950
   70loPI   C2B 1118  10.509   8.078   9.271  0.2702 -0.1466  0.0310
   70loPI   C3B 1119  10.449   8.205   8.859  0.3459 -0.1264 -0.0509
   70loPI   C4B 1120  10.804   8.350   8.613  0.0037  0.1715 -0.1847
   71loPI    C1 1121   7.882   3.798  10.782  0.0288  0.1512  0.0795
   71loPI    C2 1122   8.197   3.611  10.941 -0.1390 -0.0900  0.1343
   71loPI    C3 1123   8.070   3.957  11.097  0.3005  0.1842 -0.0964
   71loPI   PO4 1124   7.858   3.631  10.506  0.0051  0.0117  0.1024
   71loPI   GL1 1125   7.557   3.627  10.164 -0.1364  0.1754  0.1128
   71loPI   GL2 1126   7.361   3.501   9.922 -0.0057  0.1457 -0.4164
   71loPI   C1A 1127   7.554   3.994   9.889 -0.1074 -0.0252  0.1229
   71loPI   C2A 1128   7.717   3.942   9.564 -0.0635 -0.0874 -0.0118
   71loPI   C3A 1129   7.639   3.987   9.123  0.1793 -0.3243 -0.0543
   71loPI   C4A 1130   7.503   3.910   8.719  0.0058 -0.0968  0.0038
   71loPI   C5A 1131   7.257   3.972   8.299  0.0897 -0.0130 -0.0067
   71loPI   C6A 1132   7.338   4.189   7.978 -0.1284 -0.0460  0.2091
   71loPI   C1B 1133   7.352   3.605   9.500 -0.4276  0.3853 -0.1165
   71loPI   C2B 1134   7.455   3.547   9.050  0.2517  0.0378 -0.0869
   71loPI   C3B 1135   7.859   3.559   8.774 -0.0257  0.0691 -0.2293
   71loPI   C4B 1136   8.261   3.341   8.857  0.4071 -0.0748  0.1094
   72loPI    C1 1137  14.407  12.178  10.514 -0.1187  0.0126  0.1376
   72loPI    C2 1138  14.470  12.572  10.538  0.0676 -0.0010 -0.0927
   72loPI    C3 1139  14.468  12.349  10.870  0.1023  0.1723  0.0253
   72loPI   PO4 1140  14.453  12.182  10.246 -0.1423  0.1008  0.0423
   72loPI   GL1 1141  14.426  12.317   9.881  0.0571 -0.4335  0.0405
   72loPI   GL2 1142  14.106  12.154   9.904  0.5261 -0.0589 -0.2902
   72loPI   C1A 1143  14.314  12.571   9.438  0.1694  0.0691  0.3073
   72loPI   C2A 1144  14.251  12.746   9.104  0.0020  0.0194 -0.0186
   72loPI   C3A 1145  14.220  13.171   8.958  0.2542  0.0158 -0.4847
   72loPI   C4A 1146  14.033  13.366   8.518  0.2906 -0.2699 -0.1554
   72loPI   C5A 1147  14.108  13.523   8.163 -0.0220 -0.1152  0.1200
   72loPI   C6A 1148  14.125  13.395   7.708 -0.3033  0.3710  0.0314
   72loPI   C1B 1149  13.922  12.245   9.419  0.0812 -0.0157  0.2503
   72loPI   C2B 1150  13.904  12.281   9.009  0.1283  0.4694 -0.1195
   72loPI   C3B 1151  13.862  12.355   8.579 -0.1707  0.2009 -0.1181
   72loPI   C4B 1152  14.046  12.563   8.250 -0.2067 -0.0537  0.0077
   73loPI    C1 1153  13.638   6.514  10.911 -0.1569  0.2403  0.1615
   73loPI    C2 1154  13.709   6.297  11.240  0.2152  0.0269 -0.0524
   73loPI    C3 1155  13.636   6.690  11.270  0.1127 -0.0153  0.2920
   73loPI   PO4 1156  13.794   6.328  10.769  0.0441  0.0664  0.3462
   73loPI   GL1 1157  13.860   6.104  10.357  0.5314 -0.1213 -0.3079
   73loPI   GL2 1158  14.208   6.243  10.304 -0.1639 -0.2391  0.0453
   73loPI   C1A 1159  13.763   6.134   9.938  0.1330 -0.0381  0.2203
   73loPI   C2A 1160  13.891   6.187   9.499 -0.1053 -0.2383  0.2352
   73loPI   C3A 1161  14.135   6.412   9.266 -0.2714  0.0619 -0.2435
   73loPI   C4A 1162  14.147   6.570   8.832  0.3418 -0.1445 -0.0935
   73loPI   C5A 1163  14.326   6.487   8.461 -0.1068  0.6113 -0.0295
   73loPI   C6A 1164  14.518   6.319   8.179  0.0280  0.0893 -0.1589
   73loPI   C1B 1165  14.379   6.334   9.756  0.0752  0.2407 -0.3381
   73loPI   C2B 1166  14.559   6.284   9.292 -0.1043  0.2421  0.0292
   73loPI   C3B 1167  14.435   6.156   8.899 -0.0440 -0.1819 -0.1455
   73loPI   C4B 1168  14.748   6.072   8.515  0.0410 -0.2148 -0.2433
   74loPI    C1 1169  14.321   8.332  10.637 -0.0383  0.0294  0.0240
   74loPI    C2 1170  14.499   7.974  10.662 -0.0523  0.0219  0.0164
   74loPI    C3 1171  14.670   8.295  10.829 -0.1045 -0.0127  0.1370
   74loPI   PO4 1172  13.998   8.462  10.698 -0.0313  0.1533 -0.3352
   74loPI   GL1 1173  13.998   8.603  10.247  0.0513 -0.0791  0.0900
   74loPI   GL2 1174  14.085   8.173  10.237  0.3401  0.0833 -0.3124
   74loPI   C1A 1175  13.878   8.495   9.838  0.3264 -0.0221 -0.2482
   74loPI   C2A 1176  13.810   8.399   9.443  0.0721  0.2080  0.3321
   74loPI   C3A 1177  14.030   8.380   9.017  0.2092 -0.1145 -0.0465
   74loPI   C4A 1178  14.219   8.215   8.709 -0.1812  0.0126 -0.0709
   74loPI   C5A 1179  14.443   7.925   8.440  0.0741 -0.2937 -0.1378
   74loPI   C6A 1180  14.853   7.959   8.216 -0.3586  0.0102 -0.4441
   74loPI   C1B 1181  14.012   8.024   9.858  0.1715 -0.3131  0.2437
   74loPI   C2B 1182  13.984   7.900   9.383  0.1551  0.0988  0.0764
   74loPI   C3B 1183  13.863   7.841   8.899 -0.3157  0.0262  0.1423
   74loPI   C4B 1184  13.898   7.844   8.492  0.1241 -0.1890 -0.1787
   75loPI    C1 1185  11.986  12.458  10.647 -0.0065 -0.1669  0.2341
   75loPI    C2 1186  12.282  12.678  10.491 -0.3480  0.0878 -0.0724
   75loPI    C3 1187  12.254  12.632  10.887  0.0553  0.1208 -0.0364
   75loPI   PO4 1188  12.023  12.138  10.436 -0.0460  0.0727  0.0258
   75loPI   GL1 1189  11.871  11.934  10.064 -0.0225 -0.0797  0.0889
   75loPI   GL2 1190  11.884  12.261   9.972 -0.1061 -0.0847 -0.0840
   75loPI   C1A 1191  11.764  11.696   9.692  0.0574  0.0599  0.0682
   75loPI   C2A 1192  11.650  11.509   9.300 -0.1688  0.1198 -0.0075
   75loPI   C3A 1193  11.771  11.223   9.078 -0.1923  0.0688 -0.0887
   75loPI   C4A 1194  11.630  10.903   8.715 -0.1322  0.1544  0.0166
   75loPI   C5A 1195  11.145  10.900   8.506  0.1233  0.0939  0.2648
   75loPI   C6A 1196  10.891  10.676   8.210  0.2558 -0.2426 -0.0526
   75loPI   C1B 1197  11.922  12.169   9.487  0.1357  0.1408 -0.3442
   75loPI   C2B 1198  11.978  11.907   9.161 -0.1473 -0.0186 -0.1089
   75loPI   C3B 1199  12.112  11.623   8.904 -0.0977 -0.1110  0.1048
   75loPI   C4B 1200  11.875  11.374   8.614 -0.0658  0.0631  0.2857
   76loPI    C1 1201  12.811   0.537  10.777  0.0029  0.0553 -0.1616
   76loPI    C2 1202  12.974   0.774  11.056  0.2026 -0.4820  0.1943
   76loPI    C3 1203  12.596   0.647  11.096  0.0744 -0.1835 -0.0287
   76loPI   PO4 1204  12.854   0.742  10.550  0.2238 -0.1286 -0.0080
   76loPI   GL1 1205  13.036   0.620  10.095  0.1167  0.1922 -0.1138
   76loPI   GL2 1206  13.250   0.657  10.312  0.1391 -0.2207 -0.0783
   76loPI   C1A 1207  12.989   0.584   9.695  0.0649  0.1874  0.1290
   76loPI   C2A 1208  13.014   0.590   9.234  0.0674  0.2859 -0.0256
   76loPI   C3A 1209  12.946   0.479   8.824 -0.0065  0.0555  0.3280
   76loPI   C4A 1210  12.976   0.131   8.487  0.1216  0.4212 -0.0041
   76loPI   C5A 1211  13.086   0.040   8.127  0.1026 -0.0816 -0.1789
   76loPI   C6A 1212  13.163  -0.082   7.771  0.0568  0.2697  0.0125
   76loPI   C1B 1213  13.377   0.929   9.909  0.4011  0.0686 -0.4130
   76loPI   C2B 1214  13.373   0.920   9.447  0.0618  0.2443 -0.1914
   76loPI   C3B 1215  13.477   0.859   9.087 -0.4406  0.4178 -0.1028
   76loPI   C4B 1216  13.638   0.933   8.731  0.1624 -0.1347 -0.1517
   77loPI    C1 1217  13.620   3.647  10.748 -0.0586  0.0319 -0.1909
   77loPI    C2 1218  13.228   3.663  10.828  0.0047  0.1736  0.1020
   77loPI    C3 1219  13.426   3.317  10.864 -0.0334  0.1665  0.2516
   77loPI   PO4 1220  13.623   3.749  10.455  0.1198 -0.1173 -0.0257
   77loPI   GL1 1221  13.769   3.644  10.049 -0.1459 -0.2055  0.0267
   77loPI   GL2 1222  13.471   3.603   9.918 -0.0310 -0.0559 -0.2276
   77loPI   C1A 1223  13.986   3.788   9.704  0.0054 -0.1010  0.0818
   77loPI   C2A 1224  14.043   3.730   9.283 -0.1608 -0.0959 -0.0576
   77loPI   C3A 1225  14.180   3.949   9.057 -0.0366  0.2509  0.1148
   77loPI   C4A 1226  14.237   4.052   8.703  0.0247  0.1242 -0.1541
   77loPI   C5A 1227  14.141   4.353   8.365 -0.3065  0.0615  0.3360
   77loPI   C6A 1228  14.079   4.769   8.065  0.0407 -0.2345 -0.0682
   77loPI   C1B 1229  13.525   3.643   9.499 -0.1314  0.2486  0.1447
   77loPI   C2B 1230  13.479   3.505   9.092 -0.1002 -0.0423 -0.0920
   77loPI   C3B 1231  13.636   3.234   8.812  0.0055 -0.0927 -0.2497
   77loPI   C4B 1232  13.857   2.833   8.656 -0.3347 -0.1940 -0.0070
   78loPI    C1 1233   9.864   5.515  10.446 -0.1233 -0.0338  0.3603
   78loPI    C2 1234   9.492   5.393  10.367  0.0284 -0.2302 -0.0816
   78loPI    C3 1235   9.788   5.126  10.397  0.1561 -0.0660  0.1570
   78loPI   PO4 1236   9.906   5.737  10.306  0.3110 -0.2415  0.0759
   78loPI   GL1 1237   9.765   5.997  10.023 -0.0162 -0.4291 -0.2422
   78loPI   GL2 1238   9.981   5.970   9.793  0.2286 -0.1134  0.2795
   78loPI   C1A 1239   9.742   6.415   9.808  0.2562  0.5450  0.0511
   78loPI   C2A 1240   9.580   6.551   9.479  0.1314  0.1867 -0.1887
   78loPI   C3A 1241   9.385   6.743   9.032 -0.1843  0.0885 -0.3045
   78loPI   C4A 1242   9.611   6.727   8.609  0.0071  0.2554 -0.0014
   78loPI   C5A 1243   9.766   6.813   8.076 -0.0083 -0.1083 -0.0544
   78loPI   C6A 1244   9.921   6.631   7.739 -0.1236 -0.2887 -0.0902
   78loPI   C1B 1245  10.202   5.739   9.491 -0.0045 -0.1456  0.2987
   78loPI   C2B 1246   9.967   5.675   9.122  0.0224  0.1569 -0.3352
   78loPI   C3B 1247   9.817   5.314   8.807 -0.1871  0.0761 -0.0128
   78loPI   C4B 1248   9.803   5.177   8.321 -0.2180 -0.2343 -0.2365
   79loPI    C1 1249  16.988  12.581  11.160  0.1629 -0.0401 -0.0783
   79loPI    C2 1250  17.386  12.556  11.127  0.1917  0.0969  0.1429
   79loPI    C3 1251  17.203  12.424  11.458  0.0151 -0.2990 -0.1050
   79loPI   PO4 1252  16.922  12.448  10.953 -0.2694  0.0143  0.1358
   79loPI   GL1 1253  17.226  12.457  10.664  0.0746  0.1357  0.0915
   79loPI   GL2 1254  17.452  12.253  10.727  0.2672  0.0923  0.0507
   79loPI   C1A 1255  17.280  12.496  10.256  0.3048 -0.0612 -0.0763
   79loPI   C2A 1256  17.210  12.491   9.838  0.1165 -0.0389  0.2907
   79loPI   C3A 1257  16.806  12.399   9.704 -0.0606 -0.2394  0.0657
   79loPI   C4A 1258  16.643  12.317   9.247 -0.0263  0.0581 -0.1040
   79loPI   C5A 1259  16.616  12.330   8.819  0.1196  0.1518  0.0831
   79loPI   C6A 1260  16.443  12.579   8.474  0.0161  0.2125 -0.0850
   79loPI   C1B 1261  17.469  12.016  10.355 -0.2289  0.0404 -0.2191
   79loPI   C2B 1262  17.579  12.023   9.917  0.1415 -0.1411 -0.1707
   79loPI   C3B 1263  17.605  11.765   9.587 -0.0737  0.0585  0.1402
   79loPI   C4B 1264  17.761  11.604   9.179 -0.2164  0.1973 -0.2676
   80loPI    C1 1265   0.729  12.837  10.985 -0.2372 -0.1929  0.0580
   80loPI    C2 1266   0.695  12.509  11.212 -0.0404 -0.0524  0.2974
   80loPI    C3 1267   0.519  12.850  11.325 -0.3578 -0.1043 -0.0191
   80loPI   PO4 1268   0.893  12.734  10.776  0.0626  0.2241  0.2002
   80loPI   GL1 1269   0.748  12.915  10.493 -0.0799  0.0659 -0.0370
   80loPI   GL2 1270   1.019  13.100  10.420  0.0554 -0.0572  0.0776
   80loPI   C1A 1271   0.842  12.884  10.051 -0.1974  0.2288  0.3377
   80loPI   C2A 1272   0.832  12.781   9.546 -0.2429  0.2596 -0.0653
   80loPI   C3A 1273   0.778  12.463   9.263  0.1119  0.1103 -0.0969
   80loPI   C4A 1274   0.928  12.528   8.793 -0.0679  0.0037  0.0951
   80loPI   C5A 1275   1.085  12.384   8.403 -0.0353 -0.1167  0.1612
   80loPI   C6A 1276   1.442  12.337   8.135  0.1622  0.0611  0.2454
   80loPI   C1B 1277   0.984  13.373  10.015 -0.1785  0.0784 -0.1853
   80loPI   C2B 1278   0.827  13.298   9.546 -0.4351  0.0838 -0.3903
   80loPI   C3B 1279   0.795  13.183   9.150 -0.0356  0.1018  0.0330
   80loPI   C4B 1280   0.480  13.316   8.908 -0.1150 -0.1593  0.1885
   81loPI    C1 1281   6.934  13.821  10.419  0.0066  0.1186  0.1066
   81loPI    C2 1282   7.007  13.696  10.792 -0.0858 -0.1400  0.0405
   81loPI    C3 1283   6.732  13.510  10.570 -0.0597  0.0381 -0.1440
   81loPI   PO4 1284   6.917  14.058  10.462 -0.2177  0.2852  0.0205
   81loPI   GL1 1285   7.098  14.454  10.210  0.2265  0.3510 -0.0003
   81loPI   GL2 1286   7.352  14.136  10.282  0.1375 -0.0100  0.3059
   81loPI   C1A 1287   6.972  14.388   9.734 -0.1443 -0.2181 -0.2568
   81loPI   C2A 1288   6.973  14.257   9.271  0.3029 -0.2178 -0.0984
   81loPI   C3A 1289   6.964  14.265   8.808  0.0427 -0.0807  0.3001
   81loPI   C4A 1290   7.190  14.246   8.486 -0.0761  0.0432 -0.2782
   81loPI   C5A 1291   7.334  14.179   8.153  0.0263  0.1282  0.0659
   81loPI   C6A 1292   7.284  13.915   7.845 -0.5193 -0.1969 -0.1973
   81loPI   C1B 1293   7.428  14.160   9.814 -0.1089 -0.1417  0.0775
   81loPI   C2B 1294   7.619  14.195   9.423  0.2274 -0.0330  0.2026
   81loPI   C3B 1295   7.617  13.997   8.961  0.0117  0.0455 -0.0513
   81loPI   C4B 1296   7.654  13.963   8.495  0.1176 -0.3693  0.0186
   82loPI    C1 1297   0.251  16.104  11.193  0.0063 -0.0513 -0.0023
   82loPI    C2 1298   0.312  16.462  11.361 -0.1454  0.0475 -0.1539
   82loPI    C3 1299  -0.019  16.254  11.447  0.0130 -0.1253  0.0486
   82loPI   PO4 1300   0.315  16.186  10.898 -0.2033  0.2176 -0.3151
   82loPI   GL1 1301   0.530  16.163  10.491  0.3168 -0.2498  0.0139
   82loPI   GL2 1302   0.436  16.457  10.451  0.2081  0.0291  0.3496
   82loPI   C1A 1303   0.640  16.189  10.085 -0.1316 -0.0110  0.1575
   82loPI   C2A 1304   0.717  16.313   9.703 -0.0093  0.0422  0.0838
   82loPI   C3A 1305   0.938  16.591   9.577 -0.2132  0.0146 -0.0483
   82loPI   C4A 1306   0.954  16.969   9.416  0.2434  0.0768 -0.0940
   82loPI   C5A 1307   0.961  17.291   9.172  0.2237 -0.1190  0.0477
   82loPI   C6A 1308   0.867  17.562   8.821 -0.3205 -0.0350 -0.0154
   82loPI   C1B 1309   0.141  16.497  10.076 -0.2026 -0.0080  0.0808
   82loPI   C2B 1310   0.279  16.447   9.615  0.1563  0.1488 -0.3396
   82loPI   C3B 1311   0.136  16.441   9.227 -0.1950 -0.1389  0.1606
   82loPI   C4B 1312   0.229  16.571   8.838  0.1832 -0.0733  0.0293
   83loPI    C1 1313   5.550  15.930  10.171 -0.1613 -0.0090  0.0940
   83loPI    C2 1314   5.864  16.047  10.388 -0.0635  0.1648 -0.1366
   83loPI    C3 1315   5.713  15.680  10.438  0.1102  0.1161  0.0489
   83loPI   PO4 1316   5.673  15.962   9.933 -0.2380 -0.3324 -0.0302
   83loPI   GL1 1317   5.676  16.112   9.517  0.4094  0.3683 -0.1312
   83loPI   GL2 1318   5.426  16.171   9.472  0.1317  0.2553 -0.1880
   83loPI   C1A 1319   5.973  16.088   9.265 -0.2245 -0.0612  0.2173
   83loPI   C2A 1320   5.941  16.071   8.893 -0.0369  0.0118 -0.1811
   83loPI   C3A 1321   6.095  16.327   8.557  0.0868  0.2977 -0.0080
   83loPI   C4A 1322   6.042  16.596   8.175 -0.1917  0.1083  0.1798
   83loPI   C5A 1323   5.877  16.841   7.776 -0.0693  0.0594  0.1138
   83loPI   C6A 1324   5.973  17.046   7.466 -0.0648 -0.1218  0.0593
   83loPI   C1B 1325   5.456  16.416   9.006 -0.0210  0.1028  0.3459
   83loPI   C2B 1326   5.565  16.311   8.582  0.2212 -0.1490  0.1181
   83loPI   C3B 1327   5.778  15.902   8.434 -0.0667 -0.2005 -0.0471
   83loPI   C4B 1328   5.802  15.793   7.984 -0.0280 -0.4008 -0.0688
   84loPI    C1 1329  11.050  12.429  10.516  0.0608 -0.0121  0.0488
   84loPI    C2 1330  10.651  12.406  10.497  0.0714 -0.0601 -0.1358
   84loPI    C3 1331  10.851  12.626  10.230  0.1383  0.3281  0.2251
   84loPI   PO4 1332  11.104  12.126  10.526 -0.0696 -0.0381 -0.0330
   84loPI   GL1 1333  10.944  11.753  10.363  0.1093 -0.0489  0.0517
   84loPI   GL2 1334  10.760  12.005  10.205 -0.4035  0.1750  0.1285
   84loPI   C1A 1335  10.795  11.533  10.021 -0.0911  0.0734  0.4624
   84loPI   C2A 1336  10.692  11.623   9.535 -0.3093  0.1476 -0.1285
   84loPI   C3A 1337  10.669  11.613   9.064  0.0445  0.1302 -0.2434
   84loPI   C4A 1338  10.768  11.657   8.641 -0.2818 -0.2424  0.2469
   84loPI   C5A 1339  10.965  11.817   8.315 -0.0938 -0.3273  0.0541
   84loPI   C6A 1340  11.039  12.242   8.077 -0.3399  0.0880 -0.1179
   84loPI   C1B 1341  11.001  11.945   9.738 -0.0215 -0.1253 -0.0786
   84loPI   C2B 1342  10.999  12.007   9.312 -0.1962  0.0292 -0.1018
   84loPI   C3B 1343  10.899  12.050   8.941  0.1976  0.3047 -0.3009
   84loPI   C4B 1344  10.782  12.240   8.599  0.0587 -0.1854  0.0419
   85loPI    C1 1345   2.128   1.187  10.657 -0.2499 -0.2374  0.1992
   85loPI    C2 1346   1.792   1.234  10.446 -0.0575 -0.2668 -0.1219
   85loPI    C3 1347   1.785   1.268  10.845 -0.3425  0.2509 -0.1625
   85loPI   PO4 1348   2.174   0.937  10.587  0.1552 -0.2108  0.2095
   85loPI   GL1 1349   2.215   0.616  10.216 -0.1600  0.4688 -0.0325
   85loPI   GL2 1350   2.286   0.327  10.189 -0.0372  0.1693  0.0650
   85loPI   C1A 1351   2.100   0.720   9.774  0.0712  0.1902  0.0734
   85loPI   C2A 1352   2.127   0.805   9.280 -0.2642  0.5119  0.2967
   85loPI   C3A 1353   2.220   0.883   8.862  0.2129 -0.3073  0.2627
   85loPI   C4A 1354   2.284   0.660   8.506 -0.0514  0.0719  0.2902
   85loPI   C5A 1355   2.411   0.539   8.059  0.0162  0.2061 -0.1393
   85loPI   C6A 1356   2.398   0.363   7.631  0.2745 -0.3189 -0.0963
   85loPI   C1B 1357   2.374   0.257   9.783  0.2907 -0.1629 -0.2117
   85loPI   C2B 1358   2.369   0.305   9.316  0.0971  0.2456  0.2675
   85loPI   C3B 1359   2.360   0.354   8.885  0.1854  0.7367  0.0819
   85loPI   C4B 1360   2.103   0.200   8.614 -0.2529  0.1368 -0.0820
   86loPI    C1 1361   9.253   5.844  10.333  0.0662  0.2985  0.0871
   86loPI    C2 1362   9.539   5.965  10.585 -0.1437  0.1532  0.4012
   86loPI    C3 1363   9.230   5.749  10.721 -0.0231 -0.3312 -0.0609
   86loPI   PO4 1364   9.231   6.015  10.193 -0.0632  0.1878  0.1571
   86loPI   GL1 1365   9.327   6.064   9.811 -0.1271  0.1204  0.1288
   86loPI   GL2 1366   9.270   6.390   9.862 -0.0853  0.0250  0.0336
   86loPI   C1A 1367   9.591   6.043   9.444 -0.0524  0.1791  0.0152
   86loPI   C2A 1368   9.600   6.008   9.037 -0.2288  0.3066  0.1184
   86loPI   C3A 1369   9.673   5.731   8.676 -0.2287  0.1691  0.0208
   86loPI   C4A 1370   9.701   5.851   8.245  0.1203 -0.1760 -0.0232
   86loPI   C5A 1371   9.636   5.712   7.851  0.0574 -0.2491 -0.2208
   86loPI   C6A 1372   9.652   5.903   7.566  0.1646 -0.1913  0.0737
   86loPI   C1B 1373   9.105   6.387   9.480  0.0378 -0.3699 -0.0016
   86loPI   C2B 1374   9.176   6.251   9.103  0.0147 -0.2246  0.3526
   86loPI   C3B 1375   9.323   6.251   8.726 -0.0779 -0.0087 -0.0366
   86loPI   C4B 1376   9.145   6.386   8.315  0.3518 -0.2472 -0.0585
   87loPI    C1 1377  10.043   0.920  10.293 -0.2052 -0.1013 -0.1941
   87loPI    C2 1378  10.040   1.230  10.040 -0.1086  0.0032 -0.0690
   87loPI    C3 1379  10.154   1.283  10.420 -0.1347 -0.1773 -0.0348
   87loPI   PO4 1380   9.821   0.788  10.222 -0.0002  0.1906 -0.0812
   87loPI   GL1 1381   9.632   0.473   9.907 -0.0536  0.0965  0.1533
   87loPI   GL2 1382   9.875   0.731   9.750  0.1852  0.2567 -0.1836
   87loPI   C1A 1383   9.592   0.363   9.491 -0.1744 -0.0724  0.0901
   87loPI   C2A 1384   9.586   0.389   9.065  0.2971  0.2808 -0.0564
   87loPI   C3A 1385   9.616   0.208   8.628 -0.0719 -0.1122  0.0851
   87loPI   C4A 1386   9.657   0.268   8.316 -0.2746  0.1816  0.1746
   87loPI   C5A 1387   9.966   0.516   7.951  0.1146 -0.1025  0.2328
   87loPI   C6A 1388   9.979   0.879   7.567  0.3852 -0.2386 -0.0736
   87loPI   C1B 1389  10.043   0.592   9.303 -0.0148 -0.1192 -0.1041
   87loPI   C2B 1390  10.008   0.595   8.872 -0.1257  0.0346  0.0362
   87loPI   C3B 1391  10.061   0.423   8.543  0.1879 -0.1180  0.3907
   87loPI   C4B 1392  10.438   0.532   8.240  0.0535 -0.2075 -0.1139
   88loPI    C1 1393  17.787   6.912  11.402  0.0893 -0.0363  0.0185
   88loPI    C2 1394  17.720   6.579  11.613 -0.0343  0.0182  0.0660
   88loPI    C3 1395  17.463   6.885  11.635 -0.1195 -0.0259 -0.2661
   88loPI   PO4 1396  18.019   6.863  11.243  0.0855 -0.1765  0.1576
   88loPI   GL1 1397  18.097   6.790  10.804 -0.0911 -0.1953  0.0621
   88loPI   GL2 1398  17.776   6.917  10.808  0.1016 -0.2193 -0.2185
   88loPI   C1A 1399  18.242   6.829  10.286  0.1725  0.0260 -0.4131
   88loPI   C2A 1400  18.085   7.118  10.057 -0.2390 -0.0078 -0.1074
   88loPI   C3A 1401  17.947   7.294   9.694 -0.2099 -0.3889 -0.1578
   88loPI   C4A 1402  17.937   7.248   9.330  0.4036  0.0415 -0.0478
   88loPI   C5A 1403  17.974   7.271   8.807 -0.2235 -0.0434 -0.0837
   88loPI   C6A 1404  18.123   7.150   8.393  0.0634  0.1186  0.3024
   88loPI   C1B 1405  17.779   6.575  10.497  0.2202 -0.2522  0.0077
   88loPI   C2B 1406  17.672   6.315  10.235 -0.2069  0.3331 -0.2446
   88loPI   C3B 1407  17.534   6.343   9.695 -0.1301  0.1129  0.0003
   88loPI   C4B 1408  17.290   6.449   9.338  0.0963 -0.2987 -0.1589
   89loPI    C1 1409   2.720  12.327  10.670 -0.2040  0.0407 -0.2193
   89loPI    C2 1410   2.908  12.165  10.984  0.0609  0.0445 -0.3730
   89loPI    C3 1411   2.757  12.535  11.009 -0.0330 -0.0039 -0.2102
   89loPI   PO4 1412   2.951  12.254  10.447 -0.0296  0.1145 -0.2366
   89loPI   GL1 1413   2.940  12.128  10.109  0.0316  0.1439  0.0785
   89loPI   GL2 1414   2.896  11.829   9.965  0.1654  0.2572  0.0290
   89loPI   C1A 1415   2.870  12.486   9.817 -0.2158  0.2382  0.0361
   89loPI   C2A 1416   2.610  12.522   9.453  0.0916  0.0781 -0.0280
   89loPI   C3A 1417   2.492  12.749   9.002  0.0080  0.0216  0.1293
   89loPI   C4A 1418   2.505  13.013   8.709 -0.0259  0.0841 -0.0787
   89loPI   C5A 1419   2.367  13.007   8.311 -0.1746 -0.0206 -0.0884
   89loPI   C6A 1420   2.277  12.951   7.893 -0.0297 -0.0137  0.2238
   89loPI   C1B 1421   2.776  11.692   9.622 -0.0227  0.1402 -0.1599
   89loPI   C2B 1422   2.698  11.542   9.260  0.3671 -0.4543  0.2988
   89loPI   C3B 1423   2.432  11.601   8.918 -0.4224 -0.0722  0.2203
   89loPI   C4B 1424   2.222  11.498   8.444  0.0552  0.3265  0.1220
   90loPI    C1 1425   6.769   8.139  10.253 -0.0486 -0.1242  0.0514
   90loPI    C2 1426   6.658   8.498  10.392  0.0247 -0.1220  0.1050
   90loPI    C3 1427   6.494   8.166  10.542 -0.2161 -0.1029 -0.1083
   90loPI   PO4 1428   7.055   8.328  10.193 -0.2799 -0.0474 -0.0303
   90loPI   GL1 1429   7.237   8.525   9.788 -0.0648 -0.0784 -0.1613
   90loPI   GL2 1430   7.069   8.544   9.625  0.4186 -0.1155 -0.1276
   90loPI   C1A 1431   7.514   8.524   9.405  0.1269 -0.1821  0.1718
   90loPI   C2A 1432   7.571   8.448   9.076  0.1724 -0.0614  0.0699
   90loPI   C3A 1433   7.764   8.434   8.665  0.0037 -0.2073 -0.4231
   90loPI   C4A 1434   7.999   8.233   8.236  0.2159  0.0365  0.1627
   90loPI   C5A 1435   8.116   7.987   7.900  0.0915 -0.2129 -0.0019
   90loPI   C6A 1436   8.367   7.671   7.757  0.0918  0.1101  0.1739
   90loPI   C1B 1437   7.101   8.468   9.185  0.1019  0.0087 -0.4020
   90loPI   C2B 1438   7.129   8.428   8.793  0.1105 -0.2167 -0.0551
   90loPI   C3B 1439   7.254   8.326   8.466  0.0488 -0.3028  0.2454
   90loPI   C4B 1440   7.292   8.123   8.118 -0.0492 -0.2494  0.0438
   91loPI    C1 1441  15.282  13.873  10.767 -0.1120  0.0127  0.0008
   91loPI    C2 1442  14.966  13.822  11.008 -0.0419  0.1983  0.1346
   91loPI    C3 1443  15.161  14.171  11.004  0.0893  0.1250 -0.0359
   91loPI   PO4 1444  15.249  13.687  10.526 -0.2659 -0.2209 -0.0226
   91loPI   GL1 1445  15.440  13.511  10.079  0.2780  0.1772 -0.0219
   91loPI   GL2 1446  15.751  13.427  10.240  0.1529 -0.0569  0.0105
   91loPI   C1A 1447  15.410  13.528   9.743 -0.0900 -0.2312  0.1033
   91loPI   C2A 1448  15.377  13.625   9.356 -0.1140  0.2383 -0.1616
   91loPI   C3A 1449  15.271  13.716   8.891 -0.1107 -0.2283  0.2835
   91loPI   C4A 1450  15.376  13.644   8.518  0.1770 -0.0330  0.0565
   91loPI   C5A 1451  15.578  13.727   8.122  0.0400  0.0020 -0.1110
   91loPI   C6A 1452  15.989  13.744   7.930 -0.1689 -0.1115  0.2790
   91loPI   C1B 1453  15.887  13.504   9.885 -0.3084  0.3550 -0.3694
   91loPI   C2B 1454  15.855  13.577   9.484 -0.0483 -0.0668  0.0934
   91loPI   C3B 1455  15.910  13.915   9.050 -0.0487 -0.0604 -0.0731
   91loPI   C4B 1456  15.759  14.042   8.720  0.1131  0.0697 -0.1950
   92loPI    C1 1457   7.687  11.739  10.630 -0.0088  0.0131 -0.0638
   92loPI    C2 1458   7.970  11.761  10.913 -0.1078  0.0033  0.0365
   92loPI    C3 1459   7.803  11.409  10.824 -0.1321  0.0188  0.0207
   92loPI   PO4 1460   7.789  11.909  10.373 -0.1315  0.1052 -0.3152
   92loPI   GL1 1461   7.674  11.863   9.989  0.4978  0.1433 -0.1612
   92loPI   GL2 1462   8.016  11.842   9.875 -0.0616 -0.0021  0.0355
   92loPI   C1A 1463   7.693  12.136   9.602 -0.1302 -0.0405 -0.0204
   92loPI   C2A 1464   7.643  12.046   9.240  0.3628 -0.1388 -0.0208
   92loPI   C3A 1465   7.794  11.824   8.788 -0.0779  0.0704  0.3350
   92loPI   C4A 1466   8.010  11.821   8.469 -0.2537 -0.0100 -0.2821
   92loPI   C5A 1467   8.143  12.077   8.055  0.0631  0.2693  0.1040
   92loPI   C6A 1468   8.037  12.381   7.690  0.2379 -0.1561  0.1456
   92loPI   C1B 1469   8.406  11.668   9.678 -0.0162 -0.0470 -0.1444
   92loPI   C2B 1470   8.698  11.843   9.409 -0.1552 -0.2662  0.1559
   92loPI   C3B 1471   9.121  11.749   9.130 -0.2289 -0.0814 -0.0748
   92loPI   C4B 1472   9.418  11.922   8.709  0.1502  0.1433 -0.1554
   93loPI    C1 1473  17.770   4.414  11.487 -0.0823  0.0328 -0.0562
   93loPI    C2 1474  18.040   4.168  11.651 -0.1098  0.0165 -0.0355
   93loPI    C3 1475  17.923   4.497  11.847  0.0055  0.1018 -0.1090
   93loPI   PO4 1476  17.917   4.470  11.260 -0.1690  0.0899 -0.0981
   93loPI   GL1 1477  17.992   4.384  10.792 -0.0163  0.0467  0.0544
   93loPI   GL2 1478  17.824   4.679  10.781  0.0222 -0.1478 -0.1718
   93loPI   C1A 1479  17.793   4.130  10.373  0.2112  0.0555  0.1788
   93loPI   C2A 1480  17.875   4.122   9.962  0.2501 -0.3385  0.2647
   93loPI   C3A 1481  17.988   4.129   9.526 -0.2106  0.1390 -0.0252
   93loPI   C4A 1482  17.966   4.123   9.069 -0.4274 -0.3092  0.0220
   93loPI   C5A 1483  17.936   4.043   8.759 -0.0104 -0.2033 -0.0211
   93loPI   C6A 1484  18.023   3.935   8.405 -0.1831 -0.0735 -0.0325
   93loPI   C1B 1485  17.691   4.679  10.378  0.1245 -0.1596 -0.0897
   93loPI   C2B 1486  17.518   4.441   9.986 -0.2582  0.0405 -0.3887
   93loPI   C3B 1487  17.453   4.136   9.651  0.1348  0.1105  0.1562
   93loPI   C4B 1488  17.397   3.974   9.205  0.0022 -0.2699 -0.3010
   94loPI    C1 1489  10.361  15.579  10.910 -0.0318 -0.1082  0.2295
   94loPI    C2 1490  10.710  15.414  11.015 -0.0095 -0.1267  0.1277
   94loPI    C3 1491  10.615  15.780  11.145  0.1018 -0.0718  0.0564
   94loPI   PO4 1492  10.333  15.545  10.660  0.3991 -0.1563 -0.0143
   94loPI   GL1 1493  10.364  15.496  10.177 -0.1009  0.1643  0.0582
   94loPI   GL2 1494  10.441  15.706  10.213  0.0191 -0.0655 -0.1011
   94loPI   C1A 1495  10.648  15.304   9.997  0.0833  0.1799  0.1097
   94loPI   C2A 1496  10.537  15.222   9.588  0.1514 -0.0876 -0.2706
   94loPI   C3A 1497  10.446  15.126   9.148 -0.0677 -0.1172  0.0029
   94loPI   C4A 1498  10.491  15.176   8.653 -0.0271 -0.3029  0.0236
   94loPI   C5A 1499  10.459  15.229   8.198  0.2139  0.1428  0.2481
   94loPI   C6A 1500  10.577  15.370   7.744 -0.0359  0.0128 -0.2380
   94loPI   C1B 1501  10.327  15.653   9.722  0.2224 -0.1804 -0.1566
   94loPI   C2B 1502  10.377  15.647   9.334 -0.0923  0.2482  0.1046
   94loPI   C3B 1503  10.256  15.567   8.903 -0.0431  0.0505 -0.0249
   94loPI   C4B 1504  10.119  15.691   8.510  0.0762  0.0014 -0.1723
   95loPI    C1 1505   6.051   7.662  10.352 -0.0091 -0.0554  0.0506
   95loPI    C2 1506   6.221   7.781  10.694  0.1401 -0.0784 -0.0147
   95loPI    C3 1507   6.055   7.418  10.668  0.1203 -0.0730  0.0360
   95loPI   PO4 1508   6.293   7.761  10.225 -0.1999  0.1919 -0.0725
   95loPI   GL1 1509   6.484   7.808   9.959  0.1855  0.2642 -0.0901
   95loPI   GL2 1510   6.783   7.629   9.898 -0.2388  0.1817 -0.1764
   95loPI   C1A 1511   6.338   7.868   9.493 -0.0203 -0.0513  0.0873
   95loPI   C2A 1512   6.218   8.013   9.082  0.3980  0.1253 -0.1152
   95loPI   C3A 1513   6.172   8.073   8.719  0.2391 -0.4147  0.2310
   95loPI   C4A 1514   6.225   8.055   8.372 -0.0714 -0.2204  0.0727
   95loPI   C5A 1515   6.317   7.964   7.952  0.2481 -0.3374  0.0318
   95loPI   C6A 1516   6.366   7.988   7.566  0.1211  0.0271 -0.1385
   95loPI   C1B 1517   6.902   7.738   9.531  0.0306 -0.0738  0.3300
   95loPI   C2B 1518   6.698   7.787   9.132  0.0938 -0.3071 -0.0403
   95loPI   C3B 1519   6.512   7.678   8.702 -0.2610 -0.0663  0.2911
   95loPI   C4B 1520   6.702   7.627   8.275 -0.1582 -0.0662 -0.2637
   96loPI    C1 1521   5.979  15.218  10.557 -0.2179  0.0856  0.0367
   96loPI    C2 1522   5.779  15.056  10.863 -0.0858 -0.1830 -0.0160
   96loPI    C3 1523   5.957  15.411  10.906 -0.0696 -0.2180  0.2185
   96loPI   PO4 1524   5.845  15.173  10.235 -0.0502  0.1740  0.0970
   96loPI   GL1 1525   5.903  15.097   9.795  0.1336 -0.3790 -0.1245
   96loPI   GL2 1526   5.892  14.840   9.859 -0.2283  0.0733  0.1271
   96loPI   C1A 1527   5.821  15.281   9.423 -0.1604  0.2360  0.0454
   96loPI   C2A 1528   5.656  15.313   8.997 -0.1972  0.0216 -0.0012
   96loPI   C3A 1529   5.519  15.492   8.638  0.3269 -0.3202 -0.1693
   96loPI   C4A 1530   5.380  15.651   8.222 -0.1827  0.0762  0.0967
   96loPI   C5A 1531   5.298  15.931   7.952  0.3274  0.0399 -0.1877
   96loPI   C6A 1532   4.983  16.119   7.631  0.1723  0.3876  0.2448
   96loPI   C1B 1533   6.081  14.747   9.406 -0.4635 -0.0791 -0.2110
   96loPI   C2B 1534   6.099  14.849   9.015 -0.0918  0.3335  0.2325
   96loPI   C3B 1535   5.905  14.988   8.552 -0.2605  0.1998 -0.1196
   96loPI   C4B 1536   5.996  14.995   8.025 -0.1989 -0.0615 -0.3094
   97loPI    C1 1537  11.004  16.577  10.650  0.0758 -0.1011 -0.1268
   97loPI    C2 1538  10.978  16.787  10.990  0.1008 -0.1030 -0.1239
   97loPI    C3 1539  10.648  16.708  10.778  0.0939 -0.0439 -0.1352
   97loPI   PO4 1540  11.358  16.614  10.643  0.0143 -0.1848 -0.2570
   97loPI   GL1 1541  11.533  16.600  10.247 -0.1574  0.1385 -0.1159
   97loPI   GL2 1542  11.809  16.373  10.114  0.0997  0.1113  0.4210
   97loPI   C1A 1543  11.451  16.570   9.842  0.0549  0.2182 -0.1354
   97loPI   C2A 1544  11.856  16.590   9.619  0.2702 -0.1096  0.0874
   97loPI   C3A 1545  12.045  16.426   9.257  0.0112 -0.2230 -0.1393
   97loPI   C4A 1546  11.809  16.411   8.848  0.0946  0.0921  0.0844
   97loPI   C5A 1547  11.828  16.138   8.594  0.3437 -0.0513  0.0653
   97loPI   C6A 1548  11.509  15.832   8.590 -0.1424 -0.0596 -0.0412
   97loPI   C1B 1549  11.958  16.088   9.817  0.1010 -0.0103  0.1034
   97loPI   C2B 1550  12.179  16.020   9.467 -0.1460 -0.1478 -0.0407
   97loPI   C3B 1551  12.316  15.871   9.005 -0.1983 -0.1377 -0.0078
   97loPI   C4B 1552  12.263  15.934   8.555  0.2814 -0.0011  0.1161
   98loPI    C1 1553   4.354   5.936  10.654  0.2578  0.0750  0.0856
   98loPI    C2 1554   4.206   6.185  10.930  0.2636  0.0524  0.1091
   98loPI    C3 1555   4.243   5.795  11.011 -0.0906 -0.0194 -0.0565
   98loPI   PO4 1556   4.251   5.947  10.450 -0.1062 -0.1771 -0.1519
   98loPI   GL1 1557   4.324   6.114  10.138  0.1641 -0.0262  0.3934
   98loPI   GL2 1558   4.171   6.290   9.910 -0.1582  0.0890  0.2980
   98loPI   C1A 1559   4.404   5.868   9.758  0.3266 -0.1320 -0.1214
   98loPI   C2A 1560   4.320   5.981   9.299  0.1123  0.0993  0.0503
   98loPI   C3A 1561   4.263   5.891   8.897 -0.0721  0.1231 -0.2086
   98loPI   C4A 1562   4.140   5.682   8.529 -0.1863  0.2328  0.2204
   98loPI   C5A 1563   4.244   5.716   8.130  0.1021 -0.1468 -0.1156
   98loPI   C6A 1564   4.561   5.803   8.096  0.0084 -0.1268  0.3475
   98loPI   C1B 1565   4.425   6.437   9.489  0.2216  0.3076 -0.3234
   98loPI   C2B 1566   4.555   6.384   9.123  0.0699  0.2452 -0.3774
   98loPI   C3B 1567   4.656   6.185   8.706 -0.4911 -0.2006  0.1579
   98loPI   C4B 1568   4.411   6.102   8.453 -0.2001 -0.1609 -0.1659
   99loPI    C1 1569  17.793   4.975  11.246 -0.1481 -0.2165  0.0358
   99loPI    C2 1570  17.580   5.245  11.451  0.0433 -0.0078 -0.0361
   99loPI    C3 1571  17.724   4.921  11.636 -0.1492 -0.0395  0.0609
   99loPI   PO4 1572  17.901   5.086  11.101  0.1802 -0.2520  0.0491
   99loPI   GL1 1573  17.810   5.251  10.678  0.1132 -0.0835  0.2296
   99loPI   GL2 1574  18.039   5.529  10.784 -0.0435  0.0492  0.1443
   99loPI   C1A 1575  17.739   5.197  10.297  0.1711 -0.1620 -0.0138
   99loPI   C2A 1576  17.763   5.326   9.870 -0.1681 -0.2857  0.0031
   99loPI   C3A 1577  17.794   5.142   9.457 -0.0794 -0.0789  0.0346
   99loPI   C4A 1578  17.801   5.012   9.035 -0.1356 -0.1788  0.0128
   99loPI   C5A 1579  17.787   4.787   8.713 -0.2075  0.0856  0.1173
   99loPI   C6A 1580  18.171   4.531   8.621  0.1579  0.3952 -0.5061
   99loPI   C1B 1581  18.267   5.478  10.290  0.0846  0.1085  0.0752
   99loPI   C2B 1582  18.258   5.273   9.871 -0.3068  0.1736 -0.0532
   99loPI   C3B 1583  18.146   5.507   9.508  0.0034  0.0448 -0.2581
   99loPI   C4B 1584  17.998   5.440   9.072  0.2149 -0.0951  0.0115
  100loPI    C1 1585   4.679   5.510  10.946 -0.3240 -0.0499  0.1378
  100loPI    C2 1586   4.876   5.222  11.140 -0.0513  0.0088 -0.0470
  100loPI    C3 1587   4.768   5.555  11.333  0.1625  0.0403  0.0210
  100loPI   PO4 1588   4.859   5.618  10.682 -0.2965  0.1834  0.2664
  100loPI   GL1 1589   4.762   5.762  10.198  0.3008  0.1170  0.0284
  100loPI   GL2 1590   4.436   5.623  10.163  0.3245 -0.2372  0.1196
  100loPI   C1A 1591   5.120   5.680   9.898 -0.0486  0.1144  0.0319
  100loPI   C2A 1592   5.398   5.565   9.566 -0.1526 -0.2078  0.1688
  100loPI   C3A 1593   5.463   5.549   9.089 -0.1631  0.2026 -0.0119
  100loPI   C4A 1594   5.327   5.666   8.719  0.0868  0.0719 -0.4824
  100loPI   C5A 1595   5.335   5.525   8.287 -0.3045  0.2932 -0.1756
  100loPI   C6A 1596   5.259   5.136   8.257  0.2610 -0.0280  0.2593
  100loPI   C1B 1597   4.658   5.488   9.749 -0.3053 -0.0096 -0.1015
  100loPI   C2B 1598   4.642   5.414   9.360  0.0404  0.0709 -0.0994
  100loPI   C3B 1599   4.460   5.498   9.093 -0.1128 -0.0816 -0.2129
  100loPI   C4B 1600   4.414   5.288   8.828 -0.0285 -0.2846  0.1869
  101loPI    C1 1601   3.340   0.817  10.528 -0.0673  0.0414  0.0675
  101loPI    C2 1602   3.029   0.998  10.704 -0.1946  0.0131 -0.1254
  101loPI    C3 1603   3.266   0.755  10.916 -0.4615 -0.1744 -0.0374
  101loPI   PO4 1604   3.209   0.640  10.350  0.2422 -0.0867 -0.4041
  101loPI   GL1 1605   3.358   0.383  10.083  0.1919  0.1196  0.0118
  101loPI   GL2 1606   3.647   0.072  10.106  0.0917  0.3756  0.1785
  101loPI   C1A 1607   3.392   0.416   9.676  0.1141  0.1069  0.3337
  101loPI   C2A 1608   3.477   0.377   9.230 -0.6114  0.2342 -0.1832
  101loPI   C3A 1609   3.436   0.336   8.914 -0.0533 -0.0353 -0.0664
  101loPI   C4A 1610   3.266   0.075   8.587 -0.2010 -0.1803  0.2194
  101loPI   C5A 1611   3.014  -0.138   8.355 -0.0224 -0.1637 -0.1246
  101loPI   C6A 1612   3.030  -0.546   7.995 -0.1312 -0.3194  0.2393
  101loPI   C1B 1613   3.662   0.025   9.558 -0.2822 -0.3198  0.0130
  101loPI   C2B 1614   3.775   0.026   9.147 -0.2800  0.0346 -0.3808
  101loPI   C3B 1615   3.787   0.036   8.744  0.2406 -0.1084  0.0181
  101loPI   C4B 1616   3.803   0.274   8.393 -0.1365 -0.0172  0.6527
  102loPI    C1 1617   1.527   9.268  10.796  0.0015  0.1523  0.1061
  102loPI    C2 1618   1.875   9.462  10.838  0.0115  0.1253  0.1487
  102loPI    C3 1619   1.709   9.277  11.152  0.0101  0.0509  0.1045
  102loPI   PO4 1620   1.351   9.455  10.711  0.0159 -0.0302  0.0430
  102loPI   GL1 1621   1.358   9.605  10.254 -0.2692  0.1490 -0.0231
  102loPI   GL2 1622   1.497   9.265  10.289 -0.1423  0.0317 -0.0044
  102loPI   C1A 1623   1.242   9.487   9.810  0.1237  0.0574  0.2858
  102loPI   C2A 1624   0.921   9.341   9.501 -0.1168  0.3868 -0.0244
  102loPI   C3A 1625   0.818   8.955   9.197 -0.1990 -0.1721  0.0782
  102loPI   C4A 1626   0.676   8.940   8.733  0.1246  0.1480 -0.1978
  102loPI   C5A 1627   0.967   8.812   8.380  0.1952  0.0696 -0.0241
  102loPI   C6A 1628   0.947   8.641   8.057 -0.1515  0.1444  0.2860
  102loPI   C1B 1629   1.578   9.128   9.874  0.1962 -0.0326 -0.0830
  102loPI   C2B 1630   1.666   9.302   9.482  0.1462  0.3028 -0.2299
  102loPI   C3B 1631   1.851   9.113   9.113 -0.0476  0.0940 -0.1737
  102loPI   C4B 1632   1.919   8.734   8.831 -0.2932  0.1996 -0.1189
  103loPI    C1 1633   8.928  10.658  10.652  0.0557  0.1803  0.0543
  103loPI    C2 1634   9.145  10.788  10.962  0.0997  0.1172  0.0500
  103loPI    C3 1635   8.929  11.047  10.746  0.1963  0.1851  0.0343
  103loPI   PO4 1636   9.078  10.583  10.375  0.0520 -0.1142 -0.0310
  103loPI   GL1 1637   9.045  10.548   9.979  0.0359  0.4797 -0.0219
  103loPI   GL2 1638   9.351  10.690   9.826  0.1647  0.0567 -0.1814
  103loPI   C1A 1639   8.795  10.908   9.668 -0.1297  0.0557  0.3606
  103loPI   C2A 1640   8.770  10.875   9.240 -0.1789  0.1851  0.1366
  103loPI   C3A 1641   8.713  10.919   8.824  0.1817 -0.0412  0.0883
  103loPI   C4A 1642   8.755  11.253   8.514 -0.0279 -0.0524 -0.2068
  103loPI   C5A 1643   8.871  11.453   8.168  0.0900 -0.1220  0.2465
  103loPI   C6A 1644   9.089  11.608   7.911  0.3984 -0.4012 -0.2681
  103loPI   C1B 1645   9.173  10.583   9.506  0.0121  0.2076 -0.0138
  103loPI   C2B 1646   9.209  10.673   9.069  0.0742 -0.0379  0.0335
  103loPI   C3B 1647   9.201  10.780   8.636 -0.0041 -0.1406 -0.3452
  103loPI   C4B 1648   9.148  10.935   8.222 -0.1241 -0.2286 -0.0225
  104loPI    C1 1649   6.571  10.890  10.019  0.3338 -0.1770  0.0097
  104loPI    C2 1650   6.635  10.999  10.399  0.2157  0.2172 -0.0793
  104loPI    C3 1651   6.451  10.653  10.319  0.1035  0.2029  0.2261
  104loPI   PO4 1652   6.777  10.877   9.952 -0.0234 -0.0205  0.0658
  104loPI   GL1 1653   6.917  10.818   9.524  0.0541  0.0832  0.0471
  104loPI   GL2 1654   7.107  10.656   9.676 -0.0160  0.4138  0.1944
  104loPI   C1A 1655   6.851  11.155   9.218  0.1647 -0.1036  0.0313
  104loPI   C2A 1656   6.748  11.047   8.779 -0.0280  0.3585 -0.1669
  104loPI   C3A 1657   6.541  10.986   8.322  0.1879 -0.1614 -0.2320
  104loPI   C4A 1658   6.544  10.927   7.957  0.1008 -0.2188 -0.0031
  104loPI   C5A 1659   6.248  10.728   7.609 -0.0734 -0.1474 -0.0207
  104loPI   C6A 1660   6.138  10.398   7.359 -0.2636  0.1342  0.0312
  104loPI   C1B 1661   7.322  10.554   9.318  0.0141  0.3012  0.1313
  104loPI   C2B 1662   7.359  10.395   8.884  0.0757 -0.0955 -0.1294
  104loPI   C3B 1663   7.317  10.202   8.468  0.0502  0.1331  0.2191
  104loPI   C4B 1664   7.440   9.993   8.056  0.0035  0.2627 -0.1463
  105loPI    C1 1665   0.224   4.164  11.118  0.1771 -0.0862  0.1726
  105loPI    C2 1666   0.331   4.045  11.485 -0.1393 -0.1702  0.2405
  105loPI    C3 1667   0.218   4.424  11.423 -0.0704 -0.1519  0.2253
  105loPI   PO4 1668   0.184   4.060  10.941  0.1573 -0.0507 -0.2376
  105loPI   GL1 1669   0.005   3.885  10.611 -0.3647  0.2475  0.3508
  105loPI   GL2 1670   0.188   3.690  10.463  0.2163  0.0685  0.2822
  105loPI   C1A 1671   0.129   4.178  10.294 -0.0394 -0.4390  0.0767
  105loPI   C2A 1672   0.239   4.264   9.882 -0.0107 -0.2052  0.1040
  105loPI   C3A 1673   0.274   4.266   9.410 -0.3469 -0.1525  0.1148
  105loPI   C4A 1674   0.240   4.176   8.908  0.0478  0.0023 -0.0390
  105loPI   C5A 1675   0.260   4.162   8.528 -0.0130  0.1298 -0.2976
  105loPI   C6A 1676   0.212   4.492   8.057 -0.0680  0.1351 -0.1407
  105loPI   C1B 1677   0.048   3.793  10.048 -0.0704  0.3289  0.1322
  105loPI   C2B 1678   0.170   3.788   9.692 -0.0969  0.2113 -0.1446
  105loPI   C3B 1679   0.113   3.796   9.235  0.1581 -0.0956  0.1716
  105loPI   C4B 1680   0.195   3.595   8.728  0.1546 -0.1480  0.1047
  106loPI    C1 1681  12.887   2.829  10.882  0.0021  0.2725 -0.0345
  106loPI    C2 1682  12.549   2.927  11.071 -0.1678 -0.1743 -0.0941
  106loPI    C3 1683  12.877   2.842  11.282 -0.1537  0.0368 -0.0286
  106loPI   PO4 1684  12.812   2.682  10.717 -0.1635  0.3574  0.2152
  106loPI   GL1 1685  12.687   2.573  10.223  0.0506  0.2715 -0.2436
  106loPI   GL2 1686  12.953   2.404  10.204 -0.1425  0.3339  0.1398
  106loPI   C1A 1687  12.596   2.589   9.829 -0.1309 -0.0702 -0.1827
  106loPI   C2A 1688  12.616   2.442   9.458 -0.0712  0.0766  0.0598
  106loPI   C3A 1689  12.659   2.455   8.992  0.1416 -0.3097 -0.3109
  106loPI   C4A 1690  12.871   2.509   8.537  0.1999 -0.1845  0.1027
  106loPI   C5A 1691  13.126   2.495   8.146  0.1863  0.2083 -0.1492
  106loPI   C6A 1692  13.297   2.572   7.785 -0.1309 -0.1251  0.0252
  106loPI   C1B 1693  13.004   2.222   9.803  0.4356  0.1999 -0.4837
  106loPI   C2B 1694  13.085   2.188   9.363  0.3174  0.0857 -0.4274
  106loPI   C3B 1695  13.187   2.258   8.888 -0.1674  0.0419 -0.0582
  106loPI   C4B 1696  13.353   2.297   8.488  0.0436 -0.1140 -0.1358
  107loPI    C1 1697  14.365   9.370  11.032  0.0093 -0.0356  0.2119
  107loPI    C2 1698  14.486   9.047  11.235  0.0166 -0.2366 -0.1055
  107loPI    C3 1699  14.213   9.292  11.394 -0.0867 -0.4709  0.0846
  107loPI   PO4 1700  14.305   9.334  10.860  0.2044  0.0483  0.0360
  107loPI   GL1 1701  14.499   9.310  10.435 -0.0281 -0.2338  0.0605
  107loPI   GL2 1702  14.593   9.607  10.339  0.2744  0.1432 -0.0249
  107loPI   C1A 1703  14.468   8.902  10.174 -0.2069 -0.1178  0.3983
  107loPI   C2A 1704  14.164   8.873   9.849  0.2261 -0.1999  0.1694
  107loPI   C3A 1705  14.118   8.821   9.393 -0.0413 -0.4147 -0.0257
  107loPI   C4A 1706  14.252   8.799   8.926 -0.1663 -0.2228  0.1549
  107loPI   C5A 1707  14.334   8.735   8.494  0.1238 -0.0143 -0.0799
  107loPI   C6A 1708  14.621   8.395   8.417 -0.0076  0.5204  0.3070
  107loPI   C1B 1709  14.604   9.342   9.961  0.2814 -0.2354  0.0718
  107loPI   C2B 1710  14.466   9.295   9.503  0.1017  0.0934 -0.0978
  107loPI   C3B 1711  14.626   9.219   9.117 -0.1667 -0.0903 -0.2171
  107loPI   C4B 1712  14.610   9.399   8.771 -0.3021 -0.0945  0.2870
  108loPI    C1 1713   3.978   2.113  10.341  0.2708  0.2292 -0.0027
  108loPI    C2 1714   3.838   2.239  10.693 -0.2301 -0.0947 -0.0764
  108loPI    C3 1715   4.060   1.908  10.674 -0.0825  0.0020 -0.0501
  108loPI   PO4 1716   4.115   2.359  10.248 -0.1008 -0.1605 -0.0659
  108loPI   GL1 1717   4.080   2.708  10.002  0.1756 -0.1060  0.0457
  108loPI   GL2 1718   3.874   2.999   9.938  0.2553  0.0882 -0.1238
  108loPI   C1A 1719   4.238   2.812   9.555  0.0536 -0.0710 -0.3695
  108loPI   C2A 1720   4.165   2.774   9.170  0.1767  0.0846  0.0265
  108loPI   C3A 1721   4.110   2.862   8.723  0.1583  0.2524  0.0064
  108loPI   C4A 1722   3.818   2.605   8.463  0.0597  0.0681  0.2265
  108loPI   C5A 1723   3.415   2.555   8.150  0.0815  0.0926  0.0092
  108loPI   C6A 1724   3.151   2.716   7.806 -0.1795 -0.0393 -0.0852
  108loPI   C1B 1725   3.754   2.995   9.463 -0.5055 -0.2289 -0.2007
  108loPI   C2B 1726   3.734   2.944   9.057 -0.0771  0.3024  0.1001
  108loPI   C3B 1727   3.743   3.181   8.683  0.0052 -0.1524  0.1440
  108loPI   C4B 1728   3.590   3.534   8.425  0.3377  0.0676  0.0776
  109loPI    C1 1729   6.437   0.709  10.754 -0.1269 -0.1035  0.2252
  109loPI    C2 1730   6.813   0.632  10.866 -0.1294 -0.2298  0.1491
  109loPI    C3 1731   6.680   1.009  10.858  0.0700 -0.1616 -0.0554
  109loPI   PO4 1732   6.309   0.606  10.389  0.1700 -0.2056  0.0822
  109loPI   GL1 1733   6.364   0.424   9.992 -0.0082  0.1840  0.0575
  109loPI   GL2 1734   6.002   0.322   9.907 -0.1859 -0.0994  0.0722
  109loPI   C1A 1735   6.395   0.139   9.570 -0.1564  0.0891 -0.0174
  109loPI   C2A 1736   6.334   0.079   9.069  0.4298  0.1747  0.1153
  109loPI   C3A 1737   6.298   0.310   8.712  0.0061  0.1292  0.0259
  109loPI   C4A 1738   6.391   0.287   8.285 -0.1194 -0.1287  0.1494
  109loPI   C5A 1739   5.975   0.346   7.991 -0.0643  0.1550 -0.0669
  109loPI   C6A 1740   5.659   0.623   8.087 -0.2509 -0.0931  0.1620
  109loPI   C1B 1741   5.908   0.269   9.627 -0.0009 -0.1632  0.0609
  109loPI   C2B 1742   5.804  -0.014   9.335  0.0274  0.3103  0.2109
  109loPI   C3B 1743   5.822   0.057   8.872  0.0325 -0.0076 -0.0451
  109loPI   C4B 1744   5.901   0.242   8.449 -0.2882 -0.2522  0.2538
  110loPI    C1 1745   8.276  16.416  10.445  0.3462  0.1011 -0.0364
  110loPI    C2 1746   8.081  16.523  10.778  0.0876 -0.1576 -0.1002
  110loPI    C3 1747   8.286  16.180  10.768 -0.0482 -0.2352 -0.2608
  110loPI   PO4 1748   8.066  16.283  10.297  0.0901 -0.2715 -0.0471
  110loPI   GL1 1749   7.852  16.335   9.939  0.1481  0.0124 -0.0516
  110loPI   GL2 1750   7.620  16.504   9.980 -0.0678 -0.1139 -0.0757
  110loPI   C1A 1751   7.823  16.186   9.563 -0.1705 -0.2848 -0.2559
  110loPI   C2A 1752   7.782  16.308   9.195 -0.1715  0.0672  0.0314
  110loPI   C3A 1753   7.590  16.199   8.765  0.2163 -0.2295 -0.0748
  110loPI   C4A 1754   7.246  15.963   8.540  0.1617  0.1771  0.0057
  110loPI   C5A 1755   7.185  15.682   8.109 -0.0227 -0.0742 -0.3157
  110loPI   C6A 1756   7.215  15.243   7.911  0.2334  0.0632  0.2072
  110loPI   C1B 1757   7.625  16.705   9.619 -0.2863 -0.3983  0.2005
  110loPI   C2B 1758   7.536  16.804   9.179  0.4324  0.3041  0.0348
  110loPI   C3B 1759   7.358  16.909   8.788  0.0234 -0.2560  0.1200
  110loPI   C4B 1760   7.132  17.047   8.349  0.3595  0.0540  0.0068
  111loPI    C1 1761  15.509   1.735  11.193  0.2241  0.1231 -0.1701
  111loPI    C2 1762  15.699   1.402  11.307 -0.0645  0.0621  0.1501
  111loPI    C3 1763  15.844   1.760  11.410  0.0673  0.0270  0.0883
  111loPI   PO4 1764  15.431   1.749  10.876 -0.1483 -0.3350  0.0632
  111loPI   GL1 1765  15.698   1.690  10.489 -0.0352 -0.1076  0.0891
  111loPI   GL2 1766  15.975   1.949  10.574  0.0247  0.1473  0.0475
  111loPI   C1A 1767  15.952   1.526  10.155 -0.0840  0.2039 -0.1047
  111loPI   C2A 1768  16.105   1.443   9.812  0.1991  0.2822 -0.1796
  111loPI   C3A 1769  15.925   1.493   9.351  0.0123  0.4371 -0.1965
  111loPI   C4A 1770  15.881   1.608   8.953 -0.0610 -0.0501 -0.1077
  111loPI   C5A 1771  15.801   1.561   8.562 -0.1695  0.0226 -0.0323
  111loPI   C6A 1772  15.675   1.402   8.261  0.1446  0.2262  0.0883
  111loPI   C1B 1773  16.057   1.991  10.135 -0.0417 -0.0564  0.1180
  111loPI   C2B 1774  16.148   1.904   9.605  0.0597  0.1000 -0.0712
  111loPI   C3B 1775  16.198   2.028   9.232 -0.1106 -0.0059 -0.0686
  111loPI   C4B 1776  16.267   2.246   8.902  0.0126  0.0089  0.1483
  112loPI    C1 1777   2.542   5.653  10.734  0.3007 -0.1474  0.0468
  112loPI    C2 1778   2.865   5.809  10.910  0.0918  0.0550  0.2586
  112loPI    C3 1779   2.570   5.656  11.133 -0.0088 -0.0285  0.0706
  112loPI   PO4 1780   2.389   5.843  10.580 -0.1275 -0.2384 -0.1547
  112loPI   GL1 1781   2.347   5.966  10.123 -0.1952  0.1699 -0.0292
  112loPI   GL2 1782   2.041   5.734  10.149  0.3078  0.0380  0.2110
  112loPI   C1A 1783   2.569   5.697   9.785  0.0631 -0.0982  0.1681
  112loPI   C2A 1784   2.462   5.494   9.414  0.4452 -0.1997  0.2043
  112loPI   C3A 1785   2.466   5.584   8.961  0.0840  0.0038  0.0827
  112loPI   C4A 1786   2.431   5.639   8.565  0.0447 -0.4591  0.0598
  112loPI   C5A 1787   2.373   5.912   8.185 -0.1637 -0.3195 -0.0664
  112loPI   C6A 1788   2.108   6.216   8.090  0.0388 -0.2158  0.0100
  112loPI   C1B 1789   2.081   5.709   9.710 -0.0057  0.3583  0.0915
  112loPI   C2B 1790   2.018   5.630   9.289 -0.3321  0.0333 -0.1598
  112loPI   C3B 1791   1.970   5.746   8.868  0.1154  0.0541 -0.3478
  112loPI   C4B 1792   2.011   5.906   8.510 -0.2778  0.3422  0.2334
  113loPI    C1 1793   9.118  16.418  10.505 -0.0258 -0.3560  0.0895
  113loPI    C2 1794   9.406  16.631  10.682 -0.0654 -0.2845  0.0681
  113loPI    C3 1795   9.398  16.234  10.724  0.0112 -0.2825  0.1044
  113loPI   PO4 1796   8.864  16.559  10.562  0.1159  0.0268 -0.0607
  113loPI   GL1 1797   8.849  16.864  10.250 -0.2696  0.0017  0.0410
  113loPI   GL2 1798   8.683  17.140  10.101  0.1101  0.1364 -0.1949
  113loPI   C1A 1799   9.060  16.679   9.903 -0.1200 -0.1200  0.0678
  113loPI   C2A 1800   9.267  16.732   9.535  0.0588 -0.0254  0.2091
  113loPI   C3A 1801   9.080  16.811   9.266 -0.1130 -0.2875 -0.0872
  113loPI   C4A 1802   8.859  16.967   8.889 -0.0556  0.3250 -0.0541
  113loPI   C5A 1803   8.714  17.109   8.451 -0.1340  0.0379 -0.0157
  113loPI   C6A 1804   8.997  17.047   8.113 -0.1999 -0.0994  0.0646
  113loPI   C1B 1805   8.911  17.167   9.643  0.0576  0.1426 -0.1419
  113loPI   C2B 1806   8.867  17.297   9.234 -0.2090 -0.1965  0.1216
  113loPI   C3B 1807   8.647  17.399   8.853  0.2061 -0.1101  0.1632
  113loPI   C4B 1808   8.550  17.573   8.467  0.2070 -0.1056 -0.2702
  114loPI    C1 1809  17.837  12.308  11.090 -0.1744 -0.0347 -0.2382
  114loPI    C2 1810  17.812  12.595  11.368 -0.0794  0.0217 -0.2877
  114loPI    C3 1811  17.642  12.239  11.433  0.2525 -0.0897 -0.0001
  114loPI   PO4 1812  17.973  12.424  10.879  0.1234 -0.1014  0.0712
  114loPI   GL1 1813  18.090  12.420  10.486 -0.1283 -0.1869 -0.1288
  114loPI   GL2 1814  17.780  12.635  10.304  0.1507  0.2284  0.1907
  114loPI   C1A 1815  17.976  12.111  10.270  0.1636 -0.0290 -0.0604
  114loPI   C2A 1816  18.008  11.741   9.931 -0.0669  0.0255  0.2258
  114loPI   C3A 1817  18.011  11.473   9.580  0.0629  0.0707  0.0467
  114loPI   C4A 1818  17.961  11.185   9.147  0.0042 -0.1786 -0.0369
  114loPI   C5A 1819  17.846  10.720   8.977 -0.1132  0.0608  0.3634
  114loPI   C6A 1820  17.591  10.547   8.569  0.3110 -0.2380  0.1048
  114loPI   C1B 1821  17.689  12.508   9.936 -0.0143  0.5178 -0.0027
  114loPI   C2B 1822  17.619  12.603   9.406 -0.0612 -0.1038  0.0090
  114loPI   C3B 1823  17.743  12.450   9.020  0.0885 -0.1016  0.2316
  114loPI   C4B 1824  18.086  12.492   8.773  0.1647 -0.0714  0.0524
  115loPI    C1 1825   1.939  16.778  10.583 -0.0662  0.1039  0.2963
  115loPI    C2 1826   1.912  17.071  10.313  0.0680 -0.3378 -0.2138
  115loPI    C3 1827   1.593  16.973  10.534 -0.1139 -0.1245 -0.3759
  115loPI   PO4 1828   2.250  16.650  10.443  0.1673  0.0467 -0.0442
  115loPI   GL1 1829   2.279  16.505  10.095 -0.3392 -0.0229  0.1835
  115loPI   GL2 1830   2.178  16.829   9.928  0.2581 -0.1284 -0.1658
  115loPI   C1A 1831   1.954  16.376   9.718 -0.2621  0.3324  0.2169
  115loPI   C2A 1832   1.879  16.431   9.243 -0.0242  0.0984  0.0267
  115loPI   C3A 1833   1.877  16.307   8.833 -0.1802  0.0531 -0.1061
  115loPI   C4A 1834   1.603  15.995   8.527 -0.2878  0.0403 -0.1426
  115loPI   C5A 1835   1.570  15.722   8.285 -0.1424 -0.2429 -0.1640
  115loPI   C6A 1836   1.511  15.298   8.132  0.3656  0.0445  0.0764
  115loPI   C1B 1837   2.282  16.733   9.493  0.2224 -0.0134  0.1006
  115loPI   C2B 1838   2.267  16.601   9.007 -0.3329 -0.2807 -0.0758
  115loPI   C3B 1839   2.227  16.530   8.547  0.3780 -0.0170 -0.0208
  115loPI   C4B 1840   1.861  16.417   8.240 -0.4042  0.0121 -0.0409
  116loPI    C1 1841  16.286   1.839  10.951 -0.4333  0.0563 -0.1056
  116loPI    C2 1842  16.420   1.462  10.955 -0.0779  0.1793 -0.0444
  116loPI    C3 1843  16.029   1.535  10.911 -0.1389 -0.1914 -0.1524
  116loPI   PO4 1844  16.460   1.978  10.772 -0.0045  0.0075 -0.0944
  116loPI   GL1 1845  16.438   1.991  10.356 -0.0240 -0.3039  0.0268
  116loPI   GL2 1846  16.384   2.308  10.329  0.0679 -0.0491 -0.0750
  116loPI   C1A 1847  16.521   1.750   9.922  0.1320  0.3200 -0.1777
  116loPI   C2A 1848  16.500   1.645   9.405 -0.0726 -0.2354 -0.1948
  116loPI   C3A 1849  16.399   1.625   8.974 -0.0501  0.1419 -0.1268
  116loPI   C4A 1850  16.219   1.818   8.634  0.0249 -0.2441  0.3788
  116loPI   C5A 1851  16.139   1.778   8.178  0.0290 -0.0955  0.0974
  116loPI   C6A 1852  16.215   2.106   7.878 -0.2176  0.2470  0.0615
  116loPI   C1B 1853  16.347   2.309   9.830 -0.1715 -0.1336  0.0791
  116loPI   C2B 1854  16.270   2.518   9.371  0.2757  0.0078 -0.0942
  116loPI   C3B 1855  16.177   2.794   9.066  0.1533  0.0238 -0.0226
  116loPI   C4B 1856  16.000   2.792   8.691  0.1496  0.0923  0.2412
  117loPI    C1 1857   9.127   1.487  10.499 -0.0983  0.1658 -0.0923
  117loPI    C2 1858   9.003   1.242  10.789  0.1382  0.0296 -0.1036
  117loPI    C3 1859   9.369   1.401  10.805  0.0054  0.3455 -0.1222
  117loPI   PO4 1860   8.898   1.567  10.371 -0.0988  0.1811 -0.2125
  117loPI   GL1 1861   8.568   1.582  10.094 -0.0620  0.0637  0.0685
  117loPI   GL2 1862   8.430   1.280  10.195 -0.0280  0.1131 -0.1368
  117loPI   C1A 1863   8.727   1.662   9.670 -0.1211 -0.3601  0.0976
  117loPI   C2A 1864   8.840   1.623   9.288  0.4677 -0.2010 -0.0213
  117loPI   C3A 1865   9.153   1.652   8.933 -0.3911  0.1763 -0.1045
  117loPI   C4A 1866   9.246   1.695   8.469 -0.1192 -0.2449  0.1474
  117loPI   C5A 1867   9.214   2.075   8.137  0.0437 -0.0831  0.2893
  117loPI   C6A 1868   8.992   2.355   7.766  0.0470  0.0063 -0.1136
  117loPI   C1B 1869   8.244   1.007   9.876  0.0148  0.0362 -0.3608
  117loPI   C2B 1870   8.141   1.059   9.440 -0.0961 -0.1687  0.1222
  117loPI   C3B 1871   8.140   1.095   8.981  0.0662 -0.1102 -0.1263
  117loPI   C4B 1872   8.144   1.313   8.595  0.0171  0.1088 -0.0179
  118loPI    C1 1873  11.440  15.317  10.641  0.0423  0.0003 -0.0421
  118loPI    C2 1874  11.403  15.713  10.682  0.1212 -0.0203  0.2466
  118loPI    C3 1875  11.172  15.466  10.897 -0.1432 -0.1329 -0.1561
  118loPI   PO4 1876  11.399  15.212  10.434 -0.0199 -0.1566  0.0738
  118loPI   GL1 1877  11.429  15.216  10.067  0.1337  0.0005  0.2422
  118loPI   GL2 1878  11.590  15.208   9.816  0.1471 -0.1361 -0.2213
  118loPI   C1A 1879  11.090  15.295   9.660 -0.3734 -0.0930 -0.0647
  118loPI   C2A 1880  10.909  15.430   9.335  0.0291  0.0757 -0.1026
  118loPI   C3A 1881  10.795  15.459   8.942  0.4129 -0.0324  0.3113
  118loPI   C4A 1882  10.714  15.658   8.545 -0.2138  0.0826 -0.0021
  118loPI   C5A 1883  10.615  15.786   8.121 -0.0655 -0.1138 -0.0972
  118loPI   C6A 1884  10.207  15.663   7.878 -0.0070  0.0625 -0.1274
  118loPI   C1B 1885  11.747  14.958   9.509 -0.2782  0.0442 -0.3304
  118loPI   C2B 1886  11.891  14.974   9.129 -0.1895 -0.1235 -0.0940
  118loPI   C3B 1887  11.988  14.632   8.779 -0.0274 -0.3602  0.2415
  118loPI   C4B 1888  12.061  14.368   8.414  0.0725 -0.3081 -0.1687
  119loPI    C1 1889   3.805   0.552  10.776 -0.1618  0.3080 -0.1056
  119loPI    C2 1890   3.797   0.946  10.843  0.3327  0.2941  0.0774
  119loPI    C3 1891   3.714   0.691  11.139  0.2064  0.2567  0.0106
  119loPI   PO4 1892   3.811   0.597  10.452  0.2666 -0.1753  0.0648
  119loPI   GL1 1893   3.914   0.435  10.075 -0.0311 -0.1015 -0.0703
  119loPI   GL2 1894   3.996   0.802  10.038  0.0469 -0.3649  0.2233
  119loPI   C1A 1895   3.908   0.502   9.592 -0.0528  0.2789 -0.2362
  119loPI   C2A 1896   3.980   0.520   9.172 -0.0874  0.2586  0.0174
  119loPI   C3A 1897   3.991   0.470   8.818 -0.0991  0.2729 -0.0742
  119loPI   C4A 1898   4.138   0.763   8.466  0.1201 -0.4943  0.1652
  119loPI   C5A 1899   4.090   0.963   8.080  0.1952  0.0598  0.0903
  119loPI   C6A 1900   3.888   1.205   7.668  0.3257  0.1446 -0.1369
  119loPI   C1B 1901   4.166   0.972   9.693 -0.3016  0.4332 -0.0197
  119loPI   C2B 1902   4.235   0.957   9.318 -0.2122 -0.6406  0.2166
  119loPI   C3B 1903   4.106   0.951   8.897  0.2531 -0.1568  0.1286
  119loPI   C4B 1904   4.361   1.209   8.565 -0.1059  0.1275  0.2128
  120loPI    C1 1905  16.285   2.698  11.217  0.1706 -0.3922  0.1352
  120loPI    C2 1906  16.656   2.838  11.272  0.1459 -0.2244 -0.1076
  120loPI    C3 1907  16.393   2.841  11.574  0.2346 -0.0136 -0.0307
  120loPI   PO4 1908  16.212   2.862  11.052  0.0959 -0.0916 -0.0659
  120loPI   GL1 1909  15.918   2.788  10.748  0.0019 -0.0821  0.1065
  120loPI   GL2 1910  16.022   2.772  10.487 -0.1634  0.1426  0.0217
  120loPI   C1A 1911  15.563   2.847  10.373 -0.0365 -0.1501  0.2812
  120loPI   C2A 1912  15.714   2.919   9.980 -0.0972  0.1448 -0.4159
  120loPI   C3A 1913  15.778   2.956   9.461  0.1063  0.2089  0.0747
  120loPI   C4A 1914  15.676   2.994   9.070  0.5353 -0.1818 -0.4004
  120loPI   C5A 1915  15.408   3.072   8.699  0.1717  0.1165  0.0026
  120loPI   C6A 1916  15.099   3.099   8.472 -0.0420 -0.2171  0.0982
  120loPI   C1B 1917  16.407   2.818  10.251  0.2517  0.0340  0.0605
  120loPI   C2B 1918  16.509   2.805   9.826 -0.3965 -0.1093 -0.1281
  120loPI   C3B 1919  16.531   3.032   9.348 -0.0020  0.2107 -0.0435
  120loPI   C4B 1920  16.498   3.085   8.871  0.1546 -0.1692  0.0157
  121loPI    C1 1921  13.174   1.603  10.814  0.0844  0.0879 -0.1350
  121loPI    C2 1922  13.381   1.912  10.667  0.0683  0.0609 -0.2147
  121loPI    C3 1923  13.566   1.565  10.743  0.1406  0.1682  0.1186
  121loPI   PO4 1924  12.954   1.620  10.685 -0.2890 -0.0365  0.1114
  121loPI   GL1 1925  13.010   1.856  10.289 -0.3036  0.1438  0.0989
  121loPI   GL2 1926  13.282   1.638  10.285 -0.0826  0.2298  0.1122
  121loPI   C1A 1927  12.967   1.719   9.917  0.1676  0.0716 -0.1104
  121loPI   C2A 1928  13.049   1.690   9.436  0.1376  0.0846  0.0841
  121loPI   C3A 1929  13.068   1.647   8.949  0.1342 -0.1410  0.2825
  121loPI   C4A 1930  13.214   1.711   8.531 -0.0988 -0.1650 -0.0366
  121loPI   C5A 1931  13.550   1.676   8.203  0.2110  0.0479  0.1895
  121loPI   C6A 1932  13.917   1.351   8.189  0.1957  0.1449 -0.0513
  121loPI   C1B 1933  13.397   1.457   9.907 -0.0935  0.0845 -0.2541
  121loPI   C2B 1934  13.461   1.413   9.465 -0.0319  0.1934  0.1091
  121loPI   C3B 1935  13.538   1.381   8.967  0.1081  0.0939 -0.1004
  121loPI   C4B 1936  13.554   1.346   8.532 -0.2053  0.0934 -0.0046
  122loPI    C1 1937  10.827   5.405  10.119 -0.0405 -0.0681 -0.2218
  122loPI    C2 1938  10.756   5.405  10.513  0.0627 -0.1362 -0.2025
  122loPI    C3 1939  10.801   5.059  10.318  0.1138 -0.0999 -0.2555
  122loPI   PO4 1940  10.972   5.632  10.063 -0.3652  0.0429  0.1024
  122loPI   GL1 1941  11.153   5.658   9.679 -0.0851  0.2670 -0.1313
  122loPI   GL2 1942  11.059   6.053   9.753 -0.0421  0.0531 -0.1848
  122loPI   C1A 1943  11.151   5.444   9.175 -0.1628  0.0663  0.2847
  122loPI   C2A 1944  11.411   5.231   8.884  0.1296 -0.1014  0.0200
  122loPI   C3A 1945  11.759   5.218   8.452  0.2951 -0.0511  0.2867
  122loPI   C4A 1946  11.949   5.468   8.095 -0.1881  0.2227  0.0545
  122loPI   C5A 1947  12.030   5.849   7.954  0.0136 -0.0466  0.0686
  122loPI   C6A 1948  11.975   6.259   8.076  0.0878  0.2987 -0.0855
  122loPI   C1B 1949  10.998   5.973   9.336 -0.0891 -0.0365  0.0272
  122loPI   C2B 1950  11.119   5.929   9.003  0.1258  0.0791 -0.1115
  122loPI   C3B 1951  11.311   5.652   8.707  0.3887  0.0325 -0.0365
  122loPI   C4B 1952  11.402   5.585   8.344 -0.0812 -0.0449 -0.0048
  123loPI    C1 1953  15.956   0.216  10.988 -0.4008  0.2145 -0.1280
  123loPI    C2 1954  15.879   0.488  11.271 -0.0980  0.0214  0.1468
  123loPI    C3 1955  15.854   0.098  11.356  0.0138 -0.0389 -0.0885
  123loPI   PO4 1956  15.876   0.194  10.771 -0.2077 -0.0932 -0.1824
  123loPI   GL1 1957  15.717   0.367  10.430 -0.0377  0.0102 -0.1375
  123loPI   GL2 1958  15.345   0.490  10.418 -0.1584  0.3184  0.0767
  123loPI   C1A 1959  15.459   0.104  10.128 -0.2225  0.0313  0.0233
  123loPI   C2A 1960  15.257   0.224   9.781  0.1898  0.1442 -0.5485
  123loPI   C3A 1961  15.254   0.257   9.322  0.1986  0.1308  0.0092
  123loPI   C4A 1962  15.194  -0.014   8.987  0.0106 -0.0526 -0.0567
  123loPI   C5A 1963  15.299  -0.306   8.723 -0.0080 -0.4876  0.0162
  123loPI   C6A 1964  15.556  -0.294   8.414  0.1051  0.0730  0.0031
  123loPI   C1B 1965  15.514   0.595  10.034 -0.2315 -0.2811 -0.2491
  123loPI   C2B 1966  15.544   0.645   9.666  0.0774 -0.2032  0.1273
  123loPI   C3B 1967  15.659   0.523   9.280  0.1850  0.1701 -0.1081
  123loPI   C4B 1968  15.605   0.315   8.858  0.0444 -0.0686  0.1883
  124loPI    C1 1969  14.307  16.536  10.916 -0.0505  0.1614 -0.0089
  124loPI    C2 1970  14.585  16.813  10.839  0.0478  0.0415 -0.0901
  124loPI    C3 1971  14.679  16.490  11.056 -0.0137 -0.0261 -0.1638
  124loPI   PO4 1972  14.131  16.609  10.721 -0.2014 -0.1326  0.0663
  124loPI   GL1 1973  14.132  16.533  10.282 -0.3508  0.1310 -0.1143
  124loPI   GL2 1974  13.852  16.650  10.195  0.0358 -0.3148  0.0649
  124loPI   C1A 1975  14.338  16.740   9.939 -0.3318  0.1505  0.0999
  124loPI   C2A 1976  14.403  16.801   9.513  0.4864 -0.0331  0.1443
  124loPI   C3A 1977  14.343  16.795   8.930 -0.0996 -0.2429  0.0569
  124loPI   C4A 1978  14.255  16.916   8.482  0.2447 -0.1141  0.0183
  124loPI   C5A 1979  14.197  16.720   8.083  0.1288  0.2115  0.0536
  124loPI   C6A 1980  14.029  16.734   7.618  0.0556 -0.2916 -0.1320
  124loPI   C1B 1981  13.911  17.090   9.970  0.2973 -0.2207  0.1151
  124loPI   C2B 1982  14.039  17.189   9.634 -0.2043 -0.1723 -0.2112
  124loPI   C3B 1983  14.036  17.177   9.192  0.2223  0.2020 -0.1047
  124loPI   C4B 1984  13.896  16.832   8.932  0.2931  0.1145  0.0727
  125loPI    C1 1985  14.729   2.322  11.230  0.1951  0.1384 -0.0365
  125loPI    C2 1986  14.984   2.630  11.242  0.1473  0.1805 -0.0929
  125loPI    C3 1987  15.027   2.324  11.496  0.1598  0.2613  0.0029
  125loPI   PO4 1988  14.743   2.185  10.941  0.3580 -0.0001  0.3996
  125loPI   GL1 1989  14.882   2.035  10.595 -0.0012 -0.0258 -0.2428
  125loPI   GL2 1990  15.167   1.930  10.359 -0.1710 -0.3412 -0.0925
  125loPI   C1A 1991  14.706   2.167  10.201 -0.0229  0.0410  0.0129
  125loPI   C2A 1992  14.791   2.063   9.729 -0.0122 -0.2260  0.1908
  125loPI   C3A 1993  14.845   2.293   9.357  0.2090 -0.0854 -0.2210
  125loPI   C4A 1994  14.751   2.491   8.925 -0.1611  0.2105  0.0624
  125loPI   C5A 1995  14.850   2.590   8.561 -0.0055  0.3438 -0.1882
  125loPI   C6A 1996  14.799   2.724   8.232  0.0758 -0.2853  0.0065
  125loPI   C1B 1997  15.216   1.910   9.916  0.0913  0.0753  0.0835
  125loPI   C2B 1998  15.241   2.006   9.481  0.1058 -0.1686 -0.0109
  125loPI   C3B 1999  15.323   2.273   9.008 -0.0048  0.0419  0.0393
  125loPI   C4B 2000  14.999   2.118   8.681 -0.2149  0.1587 -0.1014
  126loPI    C1 2001   7.951   3.205  10.837 -0.1868 -0.1296 -0.0622
  126loPI    C2 2002   7.979   2.905  11.100 -0.2531 -0.0220  0.0691
  126loPI    C3 2003   8.306   3.110  10.994 -0.2075 -0.1405 -0.0219
  126loPI   PO4 2004   7.867   3.075  10.547  0.1058 -0.2048  0.0808
  126loPI   GL1 2005   7.779   3.206  10.066  0.0577  0.1316  0.2137
  126loPI   GL2 2006   7.528   2.991   9.935  0.1828 -0.0140 -0.3570
  126loPI   C1A 2007   7.809   3.413   9.617  0.1692 -0.0628 -0.1964
  126loPI   C2A 2008   7.910   3.267   9.215 -0.2003 -0.0555 -0.1822
  126loPI   C3A 2009   7.872   3.040   8.805 -0.0292  0.3964 -0.1248
  126loPI   C4A 2010   7.878   3.137   8.459  0.0187 -0.0558  0.2635
  126loPI   C5A 2011   7.913   3.351   8.102  0.1422 -0.0909 -0.0084
  126loPI   C6A 2012   7.705   3.808   7.994  0.1504 -0.1755  0.1091
  126loPI   C1B 2013   7.433   3.082   9.450 -0.2505 -0.1870  0.2234
  126loPI   C2B 2014   7.258   3.084   9.092 -0.0122 -0.1519 -0.0002
  126loPI   C3B 2015   7.299   3.178   8.680 -0.0276 -0.0073 -0.0678
  126loPI   C4B 2016   7.415   3.470   8.436  0.1347  0.1034  0.3322
  127loPI    C1 2017   2.442  13.713  10.908 -0.2173 -0.0697 -0.1454
  127loPI    C2 2018   2.378  13.642  11.297 -0.4781 -0.0714 -0.1871
  127loPI    C3 2019   2.537  13.991  11.181 -0.2800 -0.1214 -0.0705
  127loPI   PO4 2020   2.189  13.718  10.826 -0.2990  0.0428 -0.1538
  127loPI   GL1 2021   1.943  13.851  10.521 -0.1078  0.1605  0.0568
  127loPI   GL2 2022   1.795  13.544  10.482 -0.1615 -0.0023 -0.0972
  127loPI   C1A 2023   1.951  13.884  10.069 -0.2776 -0.2014  0.6494
  127loPI   C2A 2024   2.191  13.829   9.571 -0.0591  0.2207 -0.0206
  127loPI   C3A 2025   2.190  13.840   9.179  0.3341  0.0494 -0.2414
  127loPI   C4A 2026   2.084  13.990   8.812  0.2504 -0.0253 -0.0881
  127loPI   C5A 2027   1.893  13.962   8.356 -0.0434 -0.0074  0.1760
  127loPI   C6A 2028   1.619  13.747   8.058 -0.0011  0.0588 -0.0950
  127loPI   C1B 2029   1.588  13.365  10.120 -0.2655 -0.2266 -0.0990
  127loPI   C2B 2030   1.495  13.489   9.817  0.1127  0.0005 -0.0837
  127loPI   C3B 2031   1.250  13.629   9.403  0.2440  0.4479  0.0313
  127loPI   C4B 2032   0.764  13.692   9.253 -0.2753 -0.2199 -0.0901
  128loPI    C1 2033   7.499   5.538  10.148 -0.0676 -0.0187  0.2555
  128loPI    C2 2034   7.323   5.830   9.939  0.3247  0.0832  0.0599
  128loPI    C3 2035   7.384   5.875  10.332 -0.0794  0.0459  0.1305
  128loPI   PO4 2036   7.747   5.464  10.013 -0.1977  0.1756 -0.0873
  128loPI   GL1 2037   7.822   5.302   9.625  0.0987  0.1084 -0.3438
  128loPI   GL2 2038   7.495   4.998   9.607 -0.0552  0.0020 -0.0826
  128loPI   C1A 2039   7.817   5.508   9.217 -0.0732 -0.1588  0.5052
  128loPI   C2A 2040   8.007   5.629   8.903  0.0018  0.0030  0.3686
  128loPI   C3A 2041   8.172   5.864   8.484  0.1392  0.0420 -0.1309
  128loPI   C4A 2042   8.375   5.630   8.186 -0.3519  0.2004  0.0666
  128loPI   C5A 2043   8.304   5.673   7.736 -0.4163  0.2173 -0.2916
  128loPI   C6A 2044   8.165   5.956   7.475 -0.2930 -0.4045  0.2403
  128loPI   C1B 2045   7.588   5.052   9.271 -0.4669  0.1047  0.5110
  128loPI   C2B 2046   7.688   5.189   8.871  0.2148 -0.2499 -0.0108
  128loPI   C3B 2047   7.704   5.176   8.417  0.3007  0.0860  0.1582
  128loPI   C4B 2048   7.868   5.504   8.323  0.1966 -0.0220  0.0549
  129loPI    C1 2049  15.088  12.265  10.798  0.0736  0.2670  0.1603
  129loPI    C2 2050  14.917  12.279  11.160 -0.0441  0.1530  0.1100
  129loPI    C3 2051  15.187  11.996  11.077  0.0279  0.2161  0.1277
  129loPI   PO4 2052  14.934  12.343  10.648 -0.1726  0.1040 -0.2389
  129loPI   GL1 2053  14.930  12.341  10.150  0.1642 -0.0549 -0.1844
  129loPI   GL2 2054  15.188  12.233  10.265  0.3164  0.1348 -0.1452
  129loPI   C1A 2055  15.067  12.259   9.702 -0.0107  0.1554 -0.1921
  129loPI   C2A 2056  15.346  12.205   9.415  0.0480  0.0455  0.0936
  129loPI   C3A 2057  15.344  12.115   8.963  0.0049  0.0360 -0.0012
  129loPI   C4A 2058  15.596  12.176   8.548 -0.2595 -0.0651  0.0193
  129loPI   C5A 2059  16.075  12.154   8.449  0.1652  0.4463  0.2570
  129loPI   C6A 2060  16.543  12.014   8.414 -0.2187 -0.0427 -0.1223
  129loPI   C1B 2061  15.469  12.301  10.020  0.3062 -0.1501 -0.1503
  129loPI   C2B 2062  15.855  12.599   9.830 -0.1254  0.1296  0.0638
  129loPI   C3B 2063  15.801  12.653   9.439  0.2057 -0.1351  0.0946
  129loPI   C4B 2064  15.718  12.452   9.036  0.0326  0.0078  0.2510
  130loPI    C1 2065   2.788  11.702  10.684  0.0029  0.0853 -0.0105
  130loPI    C2 2066   3.108  11.774  10.456 -0.0895  0.0335 -0.1580
  130loPI    C3 2067   3.149  11.738  10.852  0.0699  0.1369 -0.1639
  130loPI   PO4 2068   2.580  11.912  10.510 -0.1043  0.1650  0.2517
  130loPI   GL1 2069   2.353  12.037  10.151 -0.2152 -0.1640  0.4603
  130loPI   GL2 2070   2.183  11.724  10.287 -0.2855 -0.0062 -0.2445
  130loPI   C1A 2071   2.503  12.133   9.772  0.1510 -0.1185 -0.0668
  130loPI   C2A 2072   2.467  12.051   9.367 -0.1342  0.0832 -0.0043
  130loPI   C3A 2073   2.500  12.178   8.930 -0.3786 -0.2313 -0.4474
  130loPI   C4A 2074   2.518  12.066   8.529 -0.1009 -0.1785  0.2127
  130loPI   C5A 2075   2.316  11.872   8.189 -0.1265 -0.0248 -0.0194
  130loPI   C6A 2076   2.138  11.656   7.968 -0.1254  0.0243 -0.0981
  130loPI   C1B 2077   2.244  11.589   9.876 -0.3018  0.0596 -0.0090
  130loPI   C2B 2078   2.248  11.464   9.481 -0.2608 -0.0237  0.0633
  130loPI   C3B 2079   2.103  11.323   9.078  0.4163  0.0971 -0.2814
  130loPI   C4B 2080   1.840  11.267   8.747  0.2299  0.0296  0.0942
  131loPI    C1 2081   4.013   3.107  10.772 -0.2678  0.0112 -0.0583
  131loPI    C2 2082   3.896   2.975  10.413 -0.1875 -0.2344  0.0038
  131loPI    C3 2083   3.966   2.715  10.708  0.1924 -0.0697  0.0646
  131loPI   PO4 2084   4.078   3.327  10.723  0.1137  0.2241 -0.0379
  131loPI   GL1 2085   3.892   3.542  10.372 -0.1015  0.0951 -0.0322
  131loPI   GL2 2086   4.094   3.750  10.104  0.0632  0.0005 -0.0455
  131loPI   C1A 2087   3.686   3.494   9.894 -0.1610 -0.3483 -0.1521
  131loPI   C2A 2088   3.805   3.617   9.484 -0.0202  0.0191 -0.1376
  131loPI   C3A 2089   3.635   3.560   9.107  0.1710  0.1589  0.0752
  131loPI   C4A 2090   3.302   3.777   8.842  0.3187 -0.0582 -0.1871
  131loPI   C5A 2091   3.095   3.968   8.536  0.1578 -0.2442  0.1368
  131loPI   C6A 2092   3.146   4.201   8.127  0.0138  0.2898 -0.1283
  131loPI   C1B 2093   3.912   4.101   9.760  0.4822 -0.0603 -0.0862
  131loPI   C2B 2094   3.695   4.186   9.335  0.3489 -0.1977 -0.2271
  131loPI   C3B 2095   3.472   4.257   8.839  0.1304 -0.3136  0.2419
  131loPI   C4B 2096   3.107   4.450   8.766  0.1077  0.1115 -0.0742
  132loPI    C1 2097  12.513   7.259  11.035 -0.1066  0.1182 -0.0268
  132loPI    C2 2098  12.259   7.524  11.194 -0.0012 -0.0023  0.3524
  132loPI    C3 2099  12.385   7.212  11.411 -0.0107 -0.2858 -0.0403
  132loPI   PO4 2100  12.380   7.251  10.759 -0.0696  0.1550  0.0964
  132loPI   GL1 2101  12.117   7.307  10.442  0.0730 -0.1179  0.0403
  132loPI   GL2 2102  11.873   7.544  10.387 -0.1162 -0.1323 -0.0893
  132loPI   C1A 2103  12.429   7.403  10.061 -0.0132  0.1607  0.0302
  132loPI   C2A 2104  12.425   7.324   9.598 -0.0590 -0.0058  0.0537
  132loPI   C3A 2105  12.530   7.219   9.064 -0.3268  0.2399  0.1033
  132loPI   C4A 2106  12.614   7.117   8.670 -0.2890 -0.0013  0.0063
  132loPI   C5A 2107  12.829   6.935   8.299  0.1391  0.1636 -0.1556
  132loPI   C6A 2108  12.883   6.542   8.026 -0.1436 -0.0721  0.0595
  132loPI   C1B 2109  12.015   7.685   9.982 -0.2534 -0.0461  0.2427
  132loPI   C2B 2110  12.124   7.765   9.549 -0.0727 -0.2302 -0.2242
  132loPI   C3B 2111  12.230   7.665   9.190  0.1585 -0.0158  0.4388
  132loPI   C4B 2112  12.155   7.432   8.788 -0.0187  0.3069 -0.0534
  133loPI    C1 2113   7.488   0.551  10.919  0.1174 -0.2749 -0.1693
  133loPI    C2 2114   7.514   0.263  11.195 -0.1298  0.0170  0.1686
  133loPI    C3 2115   7.200   0.510  11.193 -0.0219  0.1596 -0.2434
  133loPI   PO4 2116   7.559   0.341  10.651 -0.1415  0.2239  0.0584
  133loPI   GL1 2117   7.584   0.374  10.217 -0.2388  0.2177  0.1044
  133loPI   GL2 2118   7.652   0.665  10.262  0.0410 -0.2678 -0.0286
  133loPI   C1A 2119   7.495   0.047  10.051  0.1897  0.1679  0.1465
  133loPI   C2A 2120   7.335   0.010   9.614  0.1234 -0.0193 -0.1632
  133loPI   C3A 2121   7.343  -0.047   9.249  0.0270 -0.1531  0.1621
  133loPI   C4A 2122   7.428   0.121   8.792 -0.3826  0.1089 -0.2070
  133loPI   C5A 2123   7.274   0.406   8.470 -0.1716  0.0363 -0.0650
  133loPI   C6A 2124   7.229   0.776   8.129 -0.0823  0.1073 -0.0776
  133loPI   C1B 2125   7.893   0.623   9.868  0.2057 -0.0115 -0.2849
  133loPI   C2B 2126   7.826   0.658   9.489  0.0099 -0.0766  0.2908
  133loPI   C3B 2127   7.796   0.653   9.053  0.1001  0.0665 -0.2038
  133loPI   C4B 2128   7.688   0.538   8.711  0.0763  0.0876  0.1831
  134loPI    C1 2129  14.525  10.124  11.169  0.1274  0.0152 -0.1822
  134loPI    C2 2130  14.226   9.888  11.047  0.0271  0.0495 -0.0062
  134loPI    C3 2131  14.493   9.751  11.311  0.1816  0.0113 -0.1797
  134loPI   PO4 2132  14.743  10.182  10.855 -0.0681 -0.0311 -0.0770
  134loPI   GL1 2133  14.865  10.022  10.441  0.1037  0.0945 -0.0172
  134loPI   GL2 2134  15.129  10.106  10.497  0.0291  0.2029 -0.0370
  134loPI   C1A 2135  14.783  10.220  10.014 -0.0831  0.2797  0.1364
  134loPI   C2A 2136  14.642  10.452   9.656  0.0117 -0.2548  0.2782
  134loPI   C3A 2137  14.600  10.461   9.263  0.4353 -0.2219 -0.2484
  134loPI   C4A 2138  14.748  10.506   8.883 -0.0202 -0.2819  0.0638
  134loPI   C5A 2139  14.949  10.596   8.504 -0.0438 -0.0110 -0.3897
  134loPI   C6A 2140  15.068  10.936   8.305  0.2896 -0.0409  0.2453
  134loPI   C1B 2141  15.380  10.242  10.196 -0.0138  0.2807  0.0365
  134loPI   C2B 2142  15.617  10.139   9.790 -0.2441 -0.0385  0.1836
  134loPI   C3B 2143  15.709   9.962   9.359  0.1469 -0.2000 -0.1522
  134loPI   C4B 2144  15.847   9.762   9.030 -0.1096 -0.2545 -0.1209
  135loPI    C1 2145   4.278  11.936  10.376  0.0334  0.0045 -0.1780
  135loPI    C2 2146   3.947  11.935  10.599 -0.0063  0.2443 -0.2326
  135loPI    C3 2147   4.248  12.182  10.690  0.2391 -0.1056 -0.0699
  135loPI   PO4 2148   4.149  11.941  10.095  0.0344 -0.0665  0.0870
  135loPI   GL1 2149   4.119  11.568   9.809  0.0449 -0.2466 -0.3558
  135loPI   GL2 2150   3.778  11.585   9.843 -0.1293  0.2693 -0.0393
  135loPI   C1A 2151   4.002  11.403   9.446 -0.0781 -0.0324 -0.1687
  135loPI   C2A 2152   4.092  11.395   8.979 -0.0580  0.0147 -0.1769
  135loPI   C3A 2153   4.109  11.352   8.527 -0.0250 -0.0250  0.1466
  135loPI   C4A 2154   3.950  11.458   8.053  0.1669  0.2151 -0.1646
  135loPI   C5A 2155   3.662  11.757   7.852 -0.0965 -0.0825 -0.0703
  135loPI   C6A 2156   3.587  12.194   7.774 -0.3699  0.0458 -0.1007
  135loPI   C1B 2157   3.586  11.753   9.528  0.0863  0.2960 -0.2679
  135loPI   C2B 2158   3.560  12.216   9.379 -0.1650 -0.0369 -0.1121
  135loPI   C3B 2159   3.607  12.314   9.073  0.0571  0.0405  0.0483
  135loPI   C4B 2160   3.390  12.421   8.759 -0.0807  0.0881  0.0403
  136loPI    C1 2161  11.093  13.437  10.811  0.0376 -0.1911  0.0653
  136loPI    C2 2162  11.233  13.791  10.935  0.0559 -0.1496 -0.0722
  136loPI    C3 2163  11.350  13.455  11.117  0.1233 -0.0934 -0.0113
  136loPI   PO4 2164  10.992  13.534  10.506 -0.0762 -0.4158  0.1548
  136loPI   GL1 2165  10.956  13.659  10.123 -0.1663 -0.2788  0.1497
  136loPI   GL2 2166  10.917  14.002  10.097  0.0642  0.2986  0.3403
  136loPI   C1A 2167  11.298  13.505   9.787  0.2020 -0.1497  0.0224
  136loPI   C2A 2168  11.535  13.651   9.497  0.1007 -0.0083  0.3893
  136loPI   C3A 2169  11.500  13.542   9.090 -0.1666  0.2066  0.0705
  136loPI   C4A 2170  11.552  13.679   8.649  0.1833  0.1546  0.0224
  136loPI   C5A 2171  11.582  13.541   8.197 -0.3765  0.0454 -0.1372
  136loPI   C6A 2172  11.516  13.213   7.927  0.0902  0.0676  0.1405
  136loPI   C1B 2173  10.995  14.376   9.817 -0.1577 -0.1006 -0.2052
  136loPI   C2B 2174  11.103  14.442   9.389 -0.1367 -0.2406 -0.2922
  136loPI   C3B 2175  10.855  14.249   9.101  0.0134  0.2465 -0.0805
  136loPI   C4B 2176  11.086  13.979   8.877 -0.0073 -0.0575  0.0752
  137loPI    C1 2177  16.865  13.838  10.793 -0.0408  0.1002 -0.2632
  137loPI    C2 2178  16.584  13.617  10.614 -0.0237  0.0056 -0.1743
  137loPI    C3 2179  16.480  13.890  10.886 -0.0205 -0.1223 -0.0434
  137loPI   PO4 2180  17.064  14.040  10.589 -0.2286  0.0827  0.4475
  137loPI   GL1 2181  17.108  14.024  10.260  0.2052 -0.1494 -0.0576
  137loPI   GL2 2182  17.490  13.968  10.155 -0.3476  0.1450 -0.0543
  137loPI   C1A 2183  16.896  14.214   9.981  0.1884 -0.0883 -0.2582
  137loPI   C2A 2184  16.835  14.226   9.527  0.1079  0.0280  0.0978
  137loPI   C3A 2185  16.946  14.183   9.070 -0.0053  0.2934 -0.0924
  137loPI   C4A 2186  17.253  14.214   8.850 -0.0031 -0.0371  0.1520
  137loPI   C5A 2187  17.497  14.264   8.505  0.2721 -0.0030  0.0694
  137loPI   C6A 2188  17.529  14.617   8.345  0.1035 -0.2737  0.0550
  137loPI   C1B 2189  17.293  14.084   9.769  0.1532  0.1741  0.0780
  137loPI   C2B 2190  17.280  14.019   9.371  0.1658  0.2972  0.3743
  137loPI   C3B 2191  17.148  13.690   8.997  0.1316  0.0105  0.0441
  137loPI   C4B 2192  17.495  13.432   8.800  0.0211 -0.2662  0.1391
  138loPI    C1 2193   7.776  17.652  10.758  0.2319 -0.1798  0.2036
  138loPI    C2 2194   7.642  18.021  10.838  0.0519 -0.1893 -0.0420
  138loPI    C3 2195   8.023  17.925  10.914  0.1428  0.0960 -0.1240
  138loPI   PO4 2196   7.759  17.573  10.481 -0.3021 -0.0096  0.0144
  138loPI   GL1 2197   8.060  17.677  10.217  0.0070  0.1836 -0.1789
  138loPI   GL2 2198   8.243  17.360  10.154  0.0704 -0.0524 -0.1858
  138loPI   C1A 2199   8.053  17.703   9.812 -0.1626  0.2093  0.2340
  138loPI   C2A 2200   8.186  17.694   9.524  0.0454 -0.0461 -0.1246
  138loPI   C3A 2201   8.213  17.821   9.141 -0.0659 -0.2654 -0.2674
  138loPI   C4A 2202   8.241  17.896   8.658  0.0531  0.2125 -0.1159
  138loPI   C5A 2203   8.100  18.028   8.227 -0.1123 -0.1745  0.0148
  138loPI   C6A 2204   8.050  18.391   8.127  0.0299  0.0322  0.1941
  138loPI   C1B 2205   8.393  17.258   9.709  0.0796 -0.3538  0.3458
  138loPI   C2B 2206   8.372  17.331   9.279  0.0759  0.1075  0.3610
  138loPI   C3B 2207   8.102  17.408   8.889 -0.0422  0.1062  0.0949
  138loPI   C4B 2208   7.910  17.305   8.479  0.3423  0.1122 -0.1708
  139loPI    C1 2209  12.564  10.564  10.612  0.1645  0.1005 -0.2192
  139loPI    C2 2210  12.212  10.721  10.506 -0.0084 -0.2828 -0.2313
  139loPI    C3 2211  12.406  10.862  10.826 -0.1191  0.0026 -0.2869
  139loPI   PO4 2212  12.494  10.287  10.557  0.0126 -0.0809  0.4514
  139loPI   GL1 2213  12.460  10.062  10.119  0.0461  0.0869 -0.2121
  139loPI   GL2 2214  12.458  10.416  10.090  0.1036 -0.1788  0.3271
  139loPI   C1A 2215  12.735   9.750   9.969 -0.4312  0.2351 -0.1373
  139loPI   C2A 2216  12.985   9.552   9.613 -0.0278  0.0003 -0.1549
  139loPI   C3A 2217  13.003   9.324   9.235  0.0365 -0.0774  0.0725
  139loPI   C4A 2218  13.197   8.962   9.049  0.2383 -0.0603  0.1779
  139loPI   C5A 2219  13.064   8.976   8.618  0.1798  0.3922 -0.0036
  139loPI   C6A 2220  12.991   9.100   8.089  0.2041 -0.0223  0.2271
  139loPI   C1B 2221  12.775  10.245   9.769  0.2800  0.4011  0.1447
  139loPI   C2B 2222  12.653   9.941   9.555 -0.3089 -0.0948 -0.0355
  139loPI   C3B 2223  12.726   9.810   9.154 -0.3432  0.3136 -0.2361
  139loPI   C4B 2224  12.849   9.917   8.712  0.0830  0.0902  0.0614
  140loPI    C1 2225  13.693   8.970  10.816  0.1016  0.0174  0.0292
  140loPI    C2 2226  13.740   8.673  11.080  0.1837 -0.1677 -0.1902
  140loPI    C3 2227  14.032   8.941  11.027  0.0928 -0.0213  0.0384
  140loPI   PO4 2228  13.632   8.776  10.544 -0.0281  0.1995 -0.1483
  140loPI   GL1 2229  13.629   8.936  10.072  0.1969 -0.3831  0.3575
  140loPI   GL2 2230  13.408   8.760  10.119  0.0547  0.1163 -0.1694
  140loPI   C1A 2231  13.623   8.916   9.570 -0.1858 -0.2653 -0.1658
  140loPI   C2A 2232  13.676   8.822   9.160  0.1942  0.0223  0.1284
  140loPI   C3A 2233  13.612   8.814   8.813  0.2876 -0.0354  0.1083
  140loPI   C4A 2234  13.622   9.118   8.494 -0.1477 -0.0354  0.1031
  140loPI   C5A 2235  13.368   9.350   8.276 -0.0155  0.3322 -0.1649
  140loPI   C6A 2236  13.030   9.706   8.259  0.0818 -0.2885  0.2722
  140loPI   C1B 2237  13.287   8.602   9.774 -0.0544 -0.0763 -0.0715
  140loPI   C2B 2238  13.267   8.521   9.359  0.3481 -0.0789 -0.0976
  140loPI   C3B 2239  13.192   8.547   8.840  0.0273  0.0119  0.0866
  140loPI   C4B 2240  12.838   8.509   8.529  0.0247 -0.2834 -0.0323
  141loPI    C1 2241   4.960   1.899  10.822 -0.1801 -0.1574 -0.2317
  141loPI    C2 2242   4.757   1.615  11.016 -0.0949 -0.0957 -0.0503
  141loPI    C3 2243   5.156   1.628  11.042 -0.0774 -0.1279 -0.2859
  141loPI   PO4 2244   4.903   1.876  10.572 -0.3416  0.1550  0.0160
  141loPI   GL1 2245   4.763   1.710  10.177 -0.2900  0.2392  0.1250
  141loPI   GL2 2246   4.904   2.007  10.093  0.2303  0.0380 -0.1284
  141loPI   C1A 2247   4.826   1.510   9.801 -0.1648  0.0276 -0.1473
  141loPI   C2A 2248   4.702   1.368   9.326  0.0351  0.3037  0.0771
  141loPI   C3A 2249   4.653   1.034   9.109 -0.1726  0.2148  0.3051
  141loPI   C4A 2250   4.816   0.997   8.675  0.0176 -0.0252  0.0362
  141loPI   C5A 2251   4.866   1.190   8.283  0.1161  0.0282  0.1981
  141loPI   C6A 2252   4.831   1.136   7.761  0.2659 -0.0275  0.2472
  141loPI   C1B 2253   4.871   2.077   9.545  0.0645 -0.0255 -0.3647
  141loPI   C2B 2254   4.992   2.196   9.088  0.1771 -0.0343  0.0659
  141loPI   C3B 2255   5.175   2.168   8.660  0.2770  0.0599  0.1651
  141loPI   C4B 2256   5.244   2.101   8.142 -0.2466 -0.2121  0.0983
  142loPI    C1 2257   2.094  14.230  10.857 -0.1755 -0.1370 -0.0631
  142loPI    C2 2258   1.847  14.434  11.097  0.0256  0.1280 -0.0765
  142loPI    C3 2259   2.240  14.429  11.171  0.0433 -0.1173 -0.1755
  142loPI   PO4 2260   2.129  14.373  10.577  0.0890 -0.1033  0.0387
  142loPI   GL1 2261   2.229  14.338  10.167  0.2613 -0.1002  0.0944
  142loPI   GL2 2262   2.582  14.324  10.113 -0.2310  0.1275 -0.1683
  142loPI   C1A 2263   2.347  14.378   9.633  0.2795  0.1095 -0.0722
  142loPI   C2A 2264   2.401  14.348   9.193 -0.0028  0.0310 -0.1488
  142loPI   C3A 2265   2.356  14.439   8.757  0.0993 -0.1136  0.2671
  142loPI   C4A 2266   2.113  14.568   8.339  0.0254 -0.1342  0.1023
  142loPI   C5A 2267   1.880  14.417   8.061 -0.1064  0.2033 -0.0510
  142loPI   C6A 2268   1.504  14.240   7.962 -0.3646 -0.0885 -0.2248
  142loPI   C1B 2269   2.775  14.670   9.802 -0.1349  0.1429  0.0297
  142loPI   C2B 2270   2.740  14.691   9.328 -0.1413  0.0044 -0.3419
  142loPI   C3B 2271   2.807  14.653   8.892  0.3411 -0.3436 -0.0827
  142loPI   C4B 2272   2.674  14.620   8.407 -0.1275 -0.1406  0.0240
  143loPI    C1 2273  16.224  12.338  10.847  0.0334 -0.0216 -0.3260
  143loPI    C2 2274  16.204  12.736  10.885 -0.1284 -0.0594  0.0235
  143loPI    C3 2275  15.868  12.521  10.848 -0.0431 -0.1689 -0.1299
  143loPI   PO4 2276  16.483  12.386  10.658 -0.0277  0.4735  0.4005
  143loPI   GL1 2277  16.766  12.525  10.397 -0.2268  0.1305 -0.4612
  143loPI   GL2 2278  16.590  12.800  10.344  0.2472 -0.0608  0.1751
  143loPI   C1A 2279  16.901  12.224  10.145  0.0087  0.0958  0.2773
  143loPI   C2A 2280  17.113  12.000   9.848  0.0641 -0.1317  0.0890
  143loPI   C3A 2281  17.178  12.149   9.407 -0.2814 -0.0940  0.2891
  143loPI   C4A 2282  17.399  12.114   9.032 -0.1958 -0.2274  0.0814
  143loPI   C5A 2283  17.425  11.757   8.776  0.0245 -0.1678 -0.1216
  143loPI   C6A 2284  17.385  11.537   8.333 -0.0421  0.0424  0.1862
  143loPI   C1B 2285  16.400  12.727  10.034  0.0767  0.2321  0.1827
  143loPI   C2B 2286  16.305  12.670   9.565 -0.1637  0.1948  0.0139
  143loPI   C3B 2287  16.251  12.551   9.193  0.0089  0.0817  0.1040
  143loPI   C4B 2288  16.140  12.281   8.920  0.0103 -0.4541  0.2413
  144loPI    C1 2289  13.232  17.089  10.941 -0.2035 -0.1182 -0.0307
  144loPI    C2 2290  13.188  16.746  10.740  0.3413 -0.2397  0.0405
  144loPI    C3 2291  13.379  16.749  11.091  0.1771  0.1108  0.1320
  144loPI   PO4 2292  13.391  17.233  10.688 -0.0663 -0.3264  0.0339
  144loPI   GL1 2293  13.360  17.392  10.292 -0.1324  0.1375 -0.1511
  144loPI   GL2 2294  13.045  17.227  10.310 -0.1395  0.2723 -0.0636
  144loPI   C1A 2295  13.625  17.544   9.922 -0.0395 -0.1752 -0.2094
  144loPI   C2A 2296  13.744  17.618   9.440 -0.2035 -0.2445  0.1620
  144loPI   C3A 2297  13.883  17.842   8.999 -0.4011 -0.1099  0.2024
  144loPI   C4A 2298  13.800  17.793   8.580  0.0793 -0.1973  0.0879
  144loPI   C5A 2299  13.517  17.723   8.300 -0.2459  0.1941 -0.2805
  144loPI   C6A 2300  13.689  17.668   7.858  0.2621  0.1062  0.4088
  144loPI   C1B 2301  13.123  17.435   9.886  0.1947  0.1843  0.0049
  144loPI   C2B 2302  13.249  17.597   9.461 -0.0393 -0.0947  0.0079
  144loPI   C3B 2303  13.295  17.592   8.972  0.0015 -0.2562 -0.1745
  144loPI   C4B 2304  13.276  17.341   8.544  0.1948 -0.0059 -0.0464
  145loPI    C1 2305   6.339   4.738  10.391  0.1784  0.2086  0.0462
  145loPI    C2 2306   6.711   4.767  10.534  0.1193  0.1457  0.2157
  145loPI    C3 2307   6.540   4.408  10.496  0.0902  0.1715  0.1000
  145loPI   PO4 2308   6.360   4.862  10.163  0.0994  0.0130  0.2907
  145loPI   GL1 2309   6.033   4.754   9.901  0.1578  0.0747  0.2241
  145loPI   GL2 2310   5.768   4.914   9.996 -0.0917 -0.1137  0.2279
  145loPI   C1A 2311   6.009   4.720   9.437 -0.0065  0.1574 -0.0908
  145loPI   C2A 2312   6.306   4.655   9.187 -0.3841 -0.1255 -0.2122
  145loPI   C3A 2313   6.372   4.813   8.806 -0.1272  0.0253 -0.0386
  145loPI   C4A 2314   6.340   4.467   8.432  0.1885  0.1719  0.1581
  145loPI   C5A 2315   6.211   4.158   8.023 -0.0013  0.2177  0.1560
  145loPI   C6A 2316   6.307   3.731   8.022  0.1285  0.3325  0.1392
  145loPI   C1B 2317   5.627   5.023   9.646  0.2477  0.2039 -0.2411
  145loPI   C2B 2318   5.545   5.091   9.224 -0.0714  0.1224 -0.1191
  145loPI   C3B 2319   5.640   5.203   8.829 -0.0271  0.4118  0.0745
  145loPI   C4B 2320   5.728   5.197   8.370 -0.0799  0.1040  0.1290
  146loPI    C1 2321  10.187   9.520  10.736  0.0583 -0.1659 -0.0142
  146loPI    C2 2322  10.025   9.467  11.098  0.0644  0.1030  0.0299
  146loPI    C3 2323  10.381   9.647  11.062  0.3418 -0.4454 -0.0694
  146loPI   PO4 2324  10.010   9.679  10.544  0.1009 -0.0706  0.5611
  146loPI   GL1 2325  10.040   9.933  10.227 -0.0778 -0.1865 -0.2588
  146loPI   GL2 2326  10.112   9.608  10.043  0.1173 -0.0320 -0.1698
  146loPI   C1A 2327   9.782  10.139   9.954  0.2194  0.3145 -0.1182
  146loPI   C2A 2328   9.547  10.136   9.634  0.0379 -0.0361 -0.2330
  146loPI   C3A 2329   9.361  10.182   9.238 -0.3205 -0.4099 -0.3942
  146loPI   C4A 2330   9.096  10.249   8.882  0.2233 -0.2352  0.0427
  146loPI   C5A 2331   8.940  10.432   8.444 -0.0672  0.0370 -0.1104
  146loPI   C6A 2332   8.684  10.777   8.340  0.3602 -0.3896  0.2922
  146loPI   C1B 2333  10.059   9.821   9.589 -0.2502  0.3785  0.0248
  146loPI   C2B 2334   9.838   9.970   9.228  0.0380 -0.0234  0.0276
  146loPI   C3B 2335   9.569   9.909   8.809  0.4154  0.3046 -0.3697
  146loPI   C4B 2336   9.121   9.894   8.591 -0.1410  0.0111 -0.1147
  147loPI    C1 2337   5.203  10.728   9.967  0.0655  0.0994  0.2776
  147loPI    C2 2338   5.281  10.501   9.647  0.1722  0.1814  0.2448
  147loPI    C3 2339   5.161  10.331   9.988 -0.1097  0.1076  0.1113
  147loPI   PO4 2340   5.165  10.961   9.874  0.0682  0.1728 -0.0219
  147loPI   GL1 2341   5.040  10.996   9.517  0.1130  0.0762 -0.0213
  147loPI   GL2 2342   4.774  10.855   9.530 -0.0350  0.2264 -0.1719
  147loPI   C1A 2343   4.908  11.303   9.351  0.1974 -0.1501 -0.2827
  147loPI   C2A 2344   4.658  11.428   9.054  0.2452  0.4289  0.1638
  147loPI   C3A 2345   4.641  11.290   8.585 -0.0502  0.1017 -0.1361
  147loPI   C4A 2346   4.428  11.312   8.159  0.0756  0.2364 -0.1259
  147loPI   C5A 2347   4.360  11.122   7.817 -0.1522 -0.0628 -0.0025
  147loPI   C6A 2348   4.168  10.713   7.914 -0.1002  0.2165  0.2085
  147loPI   C1B 2349   4.967  10.538   9.269  0.1661 -0.2175  0.2671
  147loPI   C2B 2350   4.993  10.324   8.849  0.2848  0.0970  0.0699
  147loPI   C3B 2351   4.973  10.315   8.371 -0.0175  0.0164  0.0260
  147loPI   C4B 2352   4.713  10.161   7.905  0.0632  0.2844  0.2756
  148loPI    C1 2353  15.728  13.594  10.699 -0.1203  0.0170  0.0874
  148loPI    C2 2354  15.706  13.844  11.011 -0.0829 -0.0128  0.1141
  148loPI    C3 2355  15.502  13.500  11.016 -0.2059  0.0583  0.0387
  148loPI   PO4 2356  16.066  13.589  10.641  0.0703  0.0179 -0.1394
  148loPI   GL1 2357  16.316  13.802  10.281 -0.0242 -0.0498 -0.0417
  148loPI   GL2 2358  16.628  13.765  10.165 -0.0564  0.0349  0.2886
  148loPI   C1A 2359  16.181  13.861   9.807  0.0362 -0.5251 -0.2318
  148loPI   C2A 2360  16.280  13.932   9.407  0.1191  0.4198  0.0723
  148loPI   C3A 2361  16.425  14.052   9.055 -0.5051 -0.2119 -0.0324
  148loPI   C4A 2362  16.715  13.914   8.710  0.0518  0.0343  0.0075
  148loPI   C5A 2363  16.589  13.567   8.368  0.0140  0.1085  0.1000
  148loPI   C6A 2364  16.432  13.407   7.981 -0.1647  0.1801 -0.2836
  148loPI   C1B 2365  16.782  13.808   9.742  0.0614  0.1316 -0.1024
  148loPI   C2B 2366  16.735  13.716   9.295  0.1292  0.0162 -0.1834
  148loPI   C3B 2367  16.745  13.412   8.896  0.2747 -0.2235 -0.2520
  148loPI   C4B 2368  17.029  13.355   8.521  0.2781  0.2486 -0.2861
  149loPI    C1 2369   2.779  13.392  10.671  0.0588 -0.0571 -0.1098
  149loPI    C2 2370   3.140  13.443  10.836 -0.1152  0.3057  0.1741
  149loPI    C3 2371   2.821  13.382  11.069 -0.2311 -0.0900 -0.0782
  149loPI   PO4 2372   2.653  13.558  10.503 -0.1576  0.0081  0.1757
  149loPI   GL1 2373   2.496  13.656  10.204  0.0942  0.2868  0.1570
  149loPI   GL2 2374   2.475  13.844  10.013 -0.2036 -0.1489 -0.1338
  149loPI   C1A 2375   2.558  13.403   9.791 -0.0964  0.4298 -0.1089
  149loPI   C2A 2376   2.440  13.427   9.338 -0.1611 -0.0741  0.0316
  149loPI   C3A 2377   2.314  13.455   8.923 -0.1015  0.0032  0.1209
  149loPI   C4A 2378   2.094  13.342   8.534 -0.1136 -0.0284 -0.4063
  149loPI   C5A 2379   1.891  13.165   8.150  0.1313 -0.0814  0.0957
  149loPI   C6A 2380   1.875  12.717   8.081 -0.0742 -0.0071 -0.2304
  149loPI   C1B 2381   2.685  13.863   9.582  0.0992 -0.2197 -0.1486
  149loPI   C2B 2382   2.679  13.915   9.221 -0.3407  0.0525 -0.0710
  149loPI   C3B 2383   2.580  13.866   8.809  0.2115 -0.0775  0.0302
  149loPI   C4B 2384   2.482  14.005   8.407  0.2855  0.2035  0.0983
  150loPI    C1 2385  13.886  13.515  10.609  0.2141  0.0018  0.1821
  150loPI    C2 2386  14.087  13.859  10.640  0.0992  0.0874 -0.0043
  150loPI    C3 2387  14.263  13.538  10.479  0.0472  0.1994 -0.2901
  150loPI   PO4 2388  13.684  13.515  10.392  0.1603 -0.0867  0.0244
  150loPI   GL1 2389  13.339  13.474  10.038  0.1258 -0.0716  0.0031
  150loPI   GL2 2390  12.988  13.450   9.917 -0.2061  0.1029  0.4133
  150loPI   C1A 2391  13.478  13.301   9.602 -0.1033 -0.2809  0.0130
  150loPI   C2A 2392  13.585  13.571   9.325  0.0935 -0.1357 -0.0674
  150loPI   C3A 2393  13.931  13.616   9.149  0.1514 -0.1241  0.0478
  150loPI   C4A 2394  14.280  13.711   8.807  0.1142  0.0311 -0.1126
  150loPI   C5A 2395  14.497  13.413   8.425  0.0327  0.2318 -0.0718
  150loPI   C6A 2396  14.603  13.243   8.023 -0.1081  0.1277 -0.1610
  150loPI   C1B 2397  13.129  13.591   9.498 -0.0242  0.2052  0.1133
  150loPI   C2B 2398  13.161  13.580   9.039 -0.0601 -0.0779  0.0535
  150loPI   C3B 2399  13.325  13.526   8.595 -0.0908 -0.0545  0.1894
  150loPI   C4B 2400  13.602  13.311   8.328  0.1233 -0.1780 -0.0527
  151loPI    C1 2401   8.635  17.507  10.553  0.1534  0.0069 -0.1088
  151loPI    C2 2402   8.243  17.506  10.632  0.1448  0.1034 -0.1488
  151loPI    C3 2403   8.507  17.443  10.926  0.1001  0.0654 -0.1168
  151loPI   PO4 2404   8.672  17.651  10.259  0.2844  0.3071 -0.1187
  151loPI   GL1 2405   9.010  17.708   9.995  0.0630 -0.0495 -0.1894
  151loPI   GL2 2406   9.207  17.799   9.794  0.2466 -0.1117  0.3900
  151loPI   C1A 2407   8.692  17.655   9.623 -0.2030  0.0162 -0.0440
  151loPI   C2A 2408   8.663  17.756   9.280  0.3347  0.2148  0.0626
  151loPI   C3A 2409   8.763  17.882   8.912  0.3044 -0.0805  0.3219
  151loPI   C4A 2410   9.162  18.015   8.661  0.2331 -0.0306  0.0293
  151loPI   C5A 2411   9.286  17.968   8.216  0.0758 -0.0195  0.1247
  151loPI   C6A 2412   9.658  18.128   7.954 -0.1943 -0.0889  0.1034
  151loPI   C1B 2413   9.168  17.744   9.302 -0.2268  0.0678 -0.0053
  151loPI   C2B 2414   9.140  17.541   8.899 -0.0335  0.0282  0.1005
  151loPI   C3B 2415   9.205  17.436   8.475  0.1683 -0.0344 -0.2335
  151loPI   C4B 2416   8.955  17.545   8.071  0.0940  0.3794  0.1625
  152loPI    C1 2417  15.795   3.774  10.942  0.2012  0.1570 -0.1360
  152loPI    C2 2418  16.093   3.674  11.190  0.0477 -0.0708 -0.0398
  152loPI    C3 2419  15.718   3.563  11.273 -0.0447  0.0874 -0.2357
  152loPI   PO4 2420  15.815   3.694  10.722  0.3391  0.0410  0.0896
  152loPI   GL1 2421  16.209   3.687  10.469  0.1361 -0.3101  0.1158
  152loPI   GL2 2422  16.488   3.500  10.535  0.3790  0.2310  0.0925
  152loPI   C1A 2423  16.037   3.691  10.090  0.0010  0.5517 -0.0875
  152loPI   C2A 2424  16.028   3.752   9.689  0.0753  0.0061 -0.0017
  152loPI   C3A 2425  16.036   3.897   9.342  0.0295 -0.1356 -0.1160
  152loPI   C4A 2426  15.991   3.940   8.911  0.1604 -0.0214 -0.0177
  152loPI   C5A 2427  16.037   3.742   8.501 -0.0191 -0.1340  0.1213
  152loPI   C6A 2428  16.101   3.612   7.998  0.1695  0.2204 -0.1297
  152loPI   C1B 2429  16.577   3.388  10.089 -0.0861  0.0048 -0.0416
  152loPI   C2B 2430  16.474   3.454   9.719  0.0272 -0.1161 -0.0469
  152loPI   C3B 2431  16.447   3.636   9.243  0.0001  0.4348 -0.3825
  152loPI   C4B 2432  16.341   3.573   8.839  0.3374  0.1565 -0.0118
  153loPI    C1 2433   0.035   8.144  11.213  0.1584  0.1764 -0.0394
  153loPI    C2 2434   0.047   7.769  11.074  0.1358  0.2063 -0.1227
  153loPI    C3 2435  -0.123   7.846  11.427  0.2615  0.1190 -0.0421
  153loPI   PO4 2436   0.075   8.242  10.930  0.2863 -0.1201 -0.0069
  153loPI   GL1 2437  -0.193   8.165  10.656 -0.2925  0.3074 -0.3271
  153loPI   GL2 2438   0.039   7.914  10.541  0.3191 -0.2367 -0.0494
  153loPI   C1A 2439  -0.311   8.348  10.175 -0.1885 -0.1106  0.0675
  153loPI   C2A 2440  -0.300   8.281   9.723  0.3669  0.0148  0.0763
  153loPI   C3A 2441  -0.464   8.184   9.319 -0.1158  0.1413 -0.3996
  153loPI   C4A 2442  -0.481   8.001   8.945  0.1894  0.1064  0.3238
  153loPI   C5A 2443  -0.289   8.168   8.560 -0.1143  0.3540  0.0690
  153loPI   C6A 2444   0.074   8.283   8.369  0.3360  0.1346  0.2567
  153loPI   C1B 2445   0.226   7.975  10.211 -0.1070  0.0699 -0.1255
  153loPI   C2B 2446   0.556   8.132  10.044 -0.0412 -0.0943  0.0840
  153loPI   C3B 2447   0.622   8.305   9.743  0.3117 -0.1800  0.0444
  153loPI   C4B 2448   0.672   8.605   9.508 -0.2358 -0.1088 -0.1739
  154loPI    C1 2449   9.070  15.861  10.606  0.1899  0.1482 -0.0592
  154loPI    C2 2450   8.999  15.538  10.831 -0.2401  0.2328 -0.0639
  154loPI    C3 2451   9.314  15.772  10.910  0.1803 -0.2786 -0.1700
  154loPI   PO4 2452   9.211  15.843  10.361  0.0309  0.0303 -0.1200
  154loPI   GL1 2453   9.231  15.902   9.958  0.2710 -0.1072 -0.0168
  154loPI   GL2 2454   9.055  16.212  10.031 -0.2588 -0.0058 -0.0025
  154loPI   C1A 2455   9.237  15.751   9.584  0.2313  0.2408  0.0289
  154loPI   C2A 2456   9.202  15.830   9.160  0.0599 -0.0523 -0.0519
  154loPI   C3A 2457   9.345  16.023   8.830  0.1521 -0.3311  0.0298
  154loPI   C4A 2458   9.540  16.094   8.480  0.0096  0.0471 -0.2912
  154loPI   C5A 2459   9.444  16.252   8.044 -0.2979 -0.0139  0.1190
  154loPI   C6A 2460   9.421  16.618   7.928  0.2015  0.1619 -0.2720
  154loPI   C1B 2461   8.924  16.243   9.615  0.3136 -0.2365 -0.2309
  154loPI   C2B 2462   9.009  16.306   9.187 -0.0631  0.0162  0.0975
  154loPI   C3B 2463   8.785  16.404   8.902 -0.1501 -0.0442  0.2117
  154loPI   C4B 2464   8.631  16.637   8.575  0.2302 -0.0873  0.0915
  155loPI    C1 2465   2.986  18.144  10.818 -0.1497  0.0929 -0.1193
  155loPI    C2 2466   2.702  18.265  11.072  0.0168  0.1801  0.0271
  155loPI    C3 2467   3.068  18.428  11.087  0.1478 -0.1063  0.0060
  155loPI   PO4 2468   2.909  18.119  10.615 -0.1557 -0.1853 -0.1705
  155loPI   GL1 2469   2.793  18.218  10.318  0.0659  0.1379 -0.4089
  155loPI   GL2 2470   2.938  18.419  10.230 -0.1161  0.0416  0.2088
  155loPI   C1A 2471   2.689  18.120   9.948  0.0423 -0.1925  0.1462
  155loPI   C2A 2472   2.642  18.111   9.515  0.3816  0.0348  0.2196
  155loPI   C3A 2473   2.626  18.136   9.130 -0.0411  0.0700  0.1405
  155loPI   C4A 2474   2.535  18.058   8.688 -0.0610 -0.1291  0.0545
  155loPI   C5A 2475   2.413  18.229   8.278  0.1947 -0.2806 -0.0433
  155loPI   C6A 2476   2.663  18.043   7.996  0.0131 -0.0514  0.0642
  155loPI   C1B 2477   2.912  18.515   9.789 -0.1176  0.0413 -0.2422
  155loPI   C2B 2478   2.903  18.512   9.363 -0.1052  0.0341  0.1277
  155loPI   C3B 2479   2.960  18.488   8.931 -0.0294  0.0044  0.0184
  155loPI   C4B 2480   2.725  18.539   8.536 -0.1117 -0.2452  0.0637
  156loPI    C1 2481   8.623   8.306  10.660  0.0920  0.2649 -0.3130
  156loPI    C2 2482   8.878   8.596  10.763  0.1570  0.0384  0.1908
  156loPI    C3 2483   8.521   8.570  10.942  0.0389 -0.0294 -0.0511
  156loPI   PO4 2484   8.574   8.288  10.463  0.0606 -0.0305  0.1880
  156loPI   GL1 2485   8.809   8.317  10.179  0.1224  0.1601 -0.2667
  156loPI   GL2 2486   8.615   8.544   9.975  0.0004  0.2262 -0.2272
  156loPI   C1A 2487   8.866   8.242   9.650 -0.2233  0.3262 -0.0992
  156loPI   C2A 2488   8.877   8.139   9.241 -0.0997 -0.4197  0.1939
  156loPI   C3A 2489   8.840   8.089   8.854 -0.1964  0.0480 -0.2735
  156loPI   C4A 2490   8.871   8.182   8.415 -0.0485  0.0881 -0.2415
  156loPI   C5A 2491   9.151   8.355   8.084 -0.3178  0.0305  0.0084
  156loPI   C6A 2492   9.552   8.271   7.888  0.5098  0.1022 -0.0030
  156loPI   C1B 2493   8.565   8.676   9.660  0.4240  0.5387  0.2943
  156loPI   C2B 2494   8.594   8.654   9.234  0.3227 -0.0082  0.0302
  156loPI   C3B 2495   8.661   8.592   8.815  0.5843  0.1877  0.0662
  156loPI   C4B 2496   8.758   8.661   8.459 -0.2262  0.0259  0.2181
  157loPI    C1 2497   5.261   1.491  10.424  0.0851  0.1654 -0.3178
  157loPI    C2 2498   4.970   1.299  10.229  0.0591 -0.1020 -0.0230
  157loPI    C3 2499   4.933   1.373  10.620  0.2166  0.2129 -0.0653
  157loPI   PO4 2500   5.298   1.712  10.336  0.0207  0.2176  0.0673
  157loPI   GL1 2501   5.426   2.013   9.939 -0.1048  0.3282  0.2495
  157loPI   GL2 2502   5.228   1.716   9.833  0.0074 -0.1853  0.0832
  157loPI   C1A 2503   5.400   2.055   9.517 -0.0930 -0.0393  0.2422
  157loPI   C2A 2504   5.446   1.938   9.030  0.0014 -0.0703  0.0259
  157loPI   C3A 2505   5.490   1.824   8.639  0.0262 -0.2487 -0.0653
  157loPI   C4A 2506   5.432   1.631   8.258  0.1271  0.0991 -0.0760
  157loPI   C5A 2507   5.783   1.559   8.062  0.2243 -0.1535  0.0976
  157loPI   C6A 2508   6.198   1.550   7.976  0.2724  0.0883  0.0819
  157loPI   C1B 2509   5.148   1.649   9.412  0.1132  0.0047  0.1755
  157loPI   C2B 2510   5.118   1.617   8.967  0.0571  0.0590  0.1426
  157loPI   C3B 2511   5.008   1.728   8.513 -0.0708  0.2416  0.1068
  157loPI   C4B 2512   4.536   1.678   8.299  0.2803 -0.2211  0.0101
  158loPI    C1 2513   9.746  18.091  10.543  0.3188  0.1587 -0.0558
  158loPI    C2 2514   9.690  18.333  10.856  0.0625  0.0543 -0.0181
  158loPI    C3 2515   9.845  17.969  10.911 -0.3331 -0.1098  0.0455
  158loPI   PO4 2516   9.930  18.190  10.428 -0.0218  0.0064  0.1162
  158loPI   GL1 2517  10.070  18.091  10.095 -0.0286  0.0730 -0.2596
  158loPI   GL2 2518  10.154  17.796   9.909 -0.0323 -0.1480  0.0116
  158loPI   C1A 2519  10.127  18.246   9.581 -0.0507 -0.1943  0.0749
  158loPI   C2A 2520  10.118  18.273   9.280 -0.1037 -0.1219  0.0615
  158loPI   C3A 2521  10.045  18.204   8.862  0.1858  0.0822 -0.2228
  158loPI   C4A 2522   9.906  17.976   8.434 -0.0534  0.2751  0.0663
  158loPI   C5A 2523   9.636  17.673   8.199 -0.2551  0.1326 -0.2138
  158loPI   C6A 2524   9.446  17.649   7.787  0.1729 -0.2659  0.1906
  158loPI   C1B 2525  10.271  17.790   9.453 -0.3194 -0.4432  0.0368
  158loPI   C2B 2526  10.193  17.761   9.108 -0.2275  0.1647 -0.0522
  158loPI   C3B 2527  10.029  17.641   8.824  0.2373 -0.4058  0.0744
  158loPI   C4B 2528  10.101  17.529   8.433  0.1499 -0.1523 -0.0520
  159loPI    C1 2529  15.966  14.908  10.937  0.2762  0.0373  0.2184
  159loPI    C2 2530  15.846  14.813  11.307  0.1276  0.2234  0.2197
  159loPI    C3 2531  15.743  15.165  11.148 -0.0910  0.0096 -0.1251
  159loPI   PO4 2532  15.875  14.775  10.791  0.0839  0.0633  0.0455
  159loPI   GL1 2533  15.961  14.544  10.424 -0.0107  0.1304 -0.1439
  159loPI   GL2 2534  15.865  14.656  10.097 -0.3120  0.1768  0.3549
  159loPI   C1A 2535  16.269  14.347  10.072  0.2487 -0.1847  0.1775
  159loPI   C2A 2536  16.408  14.323   9.692 -0.1195  0.2063 -0.0626
  159loPI   C3A 2537  16.310  14.531   9.251 -0.3172  0.1602  0.1803
  159loPI   C4A 2538  16.139  14.401   8.866  0.0334  0.0518 -0.0165
  159loPI   C5A 2539  16.241  14.204   8.530 -0.0888  0.0800 -0.0238
  159loPI   C6A 2540  16.517  14.133   8.263 -0.0427  0.0365  0.0670
  159loPI   C1B 2541  15.638  14.896   9.817 -0.1136  0.0820 -0.0901
  159loPI   C2B 2542  15.248  14.992   9.621  0.3364 -0.0668 -0.4791
  159loPI   C3B 2543  15.376  15.202   9.287 -0.1788  0.1390  0.1990
  159loPI   C4B 2544  15.650  15.363   9.021  0.3564  0.1517  0.3828
  160loPI    C1 2545  17.390   8.263  10.847 -0.1796 -0.0234  0.0224
  160loPI    C2 2546  17.728   8.410  11.003 -0.2756  0.0709  0.1433
  160loPI    C3 2547  17.494   8.643  10.777 -0.1582 -0.0532 -0.1106
  160loPI   PO4 2548  17.491   8.012  10.600  0.3031 -0.1404 -0.0731
  160loPI   GL1 2549  17.168   8.014  10.249  0.0511 -0.1362 -0.2044
  160loPI   GL2 2550  17.450   8.057  10.073  0.0696  0.1081  0.1483
  160loPI   C1A 2551  16.996   8.230   9.823  0.0902 -0.1094 -0.2435
  160loPI   C2A 2552  17.136   8.149   9.464  0.2091 -0.0580  0.2415
  160loPI   C3A 2553  17.275   8.179   9.103  0.2797 -0.0014 -0.2585
  160loPI   C4A 2554  17.597   8.500   8.846 -0.1443  0.2888 -0.1499
  160loPI   C5A 2555  17.992   8.795   8.623  0.1057  0.0233 -0.2547
  160loPI   C6A 2556  18.126   9.119   8.459  0.2273  0.1174 -0.1340
  160loPI   C1B 2557  17.518   7.858   9.621 -0.2538 -0.2427 -0.1813
  160loPI   C2B 2558  17.619   7.655   9.292 -0.1121  0.3897 -0.0231
  160loPI   C3B 2559  17.527   7.347   9.038  0.3117 -0.1647 -0.2884
  160loPI   C4B 2560  17.186   7.135   8.836 -0.0023  0.1414  0.0928
  161loPI    C1 2561   5.314  16.686  10.621 -0.1014 -0.1289  0.0067
  161loPI    C2 2562   5.554  16.933  10.824  0.1869 -0.2169 -0.2196
  161loPI    C3 2563   5.161  17.004  10.808  0.2210  0.0368 -0.0037
  161loPI   PO4 2564   5.376  16.696  10.399  0.2750 -0.1068  0.1954
  161loPI   GL1 2565   5.328  16.691   9.951  0.2759 -0.1569  0.0606
  161loPI   GL2 2566   4.889  16.532   9.927 -0.1183 -0.2170 -0.0277
  161loPI   C1A 2567   5.515  16.627   9.454  0.1399  0.1748 -0.4814
  161loPI   C2A 2568   5.854  16.698   9.144  0.0458  0.0608 -0.0145
  161loPI   C3A 2569   5.774  16.746   8.757  0.3254  0.0611  0.1489
  161loPI   C4A 2570   5.624  16.787   8.299 -0.0341  0.1355  0.1620
  161loPI   C5A 2571   5.373  16.775   7.840  0.1117  0.0460  0.2465
  161loPI   C6A 2572   4.995  16.866   7.921 -0.0199 -0.0539 -0.1329
  161loPI   C1B 2573   5.041  16.535   9.516  0.0941 -0.2041  0.3749
  161loPI   C2B 2574   4.949  16.451   9.066  0.1273 -0.3350  0.1429
  161loPI   C3B 2575   4.994  16.363   8.593  0.0407 -0.3599  0.0919
  161loPI   C4B 2576   5.191  16.404   8.148  0.0056 -0.2912 -0.1223
  162loPI    C1 2577   4.129  17.318  10.592  0.1257 -0.0774  0.2766
  162loPI    C2 2578   4.150  16.926  10.516  0.1938 -0.0781  0.2975
  162loPI    C3 2579   3.989  17.055  10.858  0.0166 -0.0809  0.2165
  162loPI   PO4 2580   4.022  17.438  10.377 -0.0686 -0.3016  0.1163
  162loPI   GL1 2581   3.960  17.137  10.110  0.0452  0.2925  0.1664
  162loPI   GL2 2582   3.764  17.309   9.930 -0.1920  0.1134 -0.3206
  162loPI   C1A 2583   3.931  16.875   9.678  0.1225 -0.2023 -0.2117
  162loPI   C2A 2584   3.887  16.801   9.237  0.0162  0.1714  0.0644
  162loPI   C3A 2585   3.624  16.778   8.906 -0.4163  0.1366  0.2092
  162loPI   C4A 2586   3.678  16.562   8.527  0.0402 -0.0029  0.1606
  162loPI   C5A 2587   4.021  16.613   8.188 -0.0626  0.2889  0.1715
  162loPI   C6A 2588   4.183  16.918   7.918 -0.3014  0.2247  0.5335
  162loPI   C1B 2589   3.766  17.310   9.525  0.1036  0.1491  0.1376
  162loPI   C2B 2590   3.767  17.305   9.072  0.2995  0.0664 -0.1159
  162loPI   C3B 2591   3.758  17.324   8.636  0.1259 -0.2229 -0.1062
  162loPI   C4B 2592   4.025  17.248   8.278 -0.0519 -0.1452 -0.0612
  163loPI    C1 2593   7.821   7.022  10.171 -0.0781  0.0514 -0.0104
  163loPI    C2 2594   7.800   7.239  10.506 -0.1919 -0.0418  0.0437
  163loPI    C3 2595   7.728   6.846  10.518 -0.0543 -0.0713 -0.0656
  163loPI   PO4 2596   7.912   7.214   9.997  0.0970  0.0396 -0.2183
  163loPI   GL1 2597   7.962   7.124   9.615  0.0289 -0.4002 -0.1013
  163loPI   GL2 2598   8.220   6.969   9.388 -0.1377  0.0003  0.0735
  163loPI   C1A 2599   7.711   6.975   9.268  0.8908  0.1275  0.0825
  163loPI   C2A 2600   7.337   6.917   8.983 -0.2617 -0.3671 -0.1074
  163loPI   C3A 2601   7.232   6.885   8.527  0.3450 -0.2580 -0.0379
  163loPI   C4A 2602   7.143   6.851   8.067 -0.0148 -0.1843  0.1455
  163loPI   C5A 2603   7.425   6.880   7.703  0.1066 -0.0711 -0.1404
  163loPI   C6A 2604   7.436   7.124   7.396 -0.0859  0.2150 -0.0577
  163loPI   C1B 2605   8.315   6.728   8.964  0.0582  0.4864 -0.0212
  163loPI   C2B 2606   8.506   6.666   8.569 -0.0368 -0.0874 -0.3133
  163loPI   C3B 2607   8.688   6.790   8.231 -0.2214 -0.2074  0.3177
  163loPI   C4B 2608   8.812   6.839   7.803  0.1390 -0.1186  0.3532
  164loPI    C1 2609   8.139  14.551  10.449 -0.2104  0.0141 -0.0425
  164loPI    C2 2610   8.192  14.202  10.637 -0.2454  0.0586  0.0502
  164loPI    C3 2611   8.121  14.534  10.848 -0.3711  0.0932 -0.0456
  164loPI   PO4 2612   8.302  14.495  10.194 -0.0117  0.3265 -0.1459
  164loPI   GL1 2613   8.475  14.701   9.866 -0.2844 -0.4541 -0.1177
  164loPI   GL2 2614   8.730  14.894   9.881  0.1205 -0.0314  0.1456
  164loPI   C1A 2615   8.360  14.589   9.463  0.1440 -0.1674  0.2248
  164loPI   C2A 2616   8.318  14.602   9.100  0.1288  0.0626 -0.0391
  164loPI   C3A 2617   8.101  14.737   8.827 -0.2465  0.3492 -0.1994
  164loPI   C4A 2618   8.014  14.844   8.452  0.1585  0.1274 -0.0623
  164loPI   C5A 2619   7.951  14.875   8.018  0.1235 -0.0899 -0.2030
  164loPI   C6A 2620   8.012  14.594   7.638  0.2403 -0.2098 -0.1816
  164loPI   C1B 2621   8.728  15.050   9.495 -0.0749  0.0184 -0.3003
  164loPI   C2B 2622   8.539  15.034   9.043  0.0397  0.3485 -0.2025
  164loPI   C3B 2623   8.488  15.032   8.652  0.2405 -0.0874  0.0309
  164loPI   C4B 2624   8.445  15.002   8.188  0.0942  0.3974 -0.0691
  165loPI    C1 2625  12.949  17.952  10.594 -0.1346  0.0098 -0.1874
  165loPI    C2 2626  12.939  17.567  10.701 -0.1849  0.0571 -0.0200
  165loPI    C3 2627  13.290  17.756  10.668 -0.1807  0.1312  0.3933
  165loPI   PO4 2628  12.828  17.949  10.360 -0.3024  0.0787  0.0466
  165loPI   GL1 2629  12.759  17.724   9.971 -0.1187 -0.0281 -0.0640
  165loPI   GL2 2630  12.576  17.358   9.910 -0.2270  0.0262  0.2346
  165loPI   C1A 2631  12.661  17.721   9.609 -0.1787  0.2001  0.1159
  165loPI   C2A 2632  12.669  17.588   9.190  0.3749 -0.2191  0.1398
  165loPI   C3A 2633  12.693  17.510   8.729 -0.0212 -0.2251  0.1153
  165loPI   C4A 2634  12.732  17.407   8.372  0.2280 -0.0758 -0.3404
  165loPI   C5A 2635  12.732  17.073   8.049  0.0892 -0.0494  0.3692
  165loPI   C6A 2636  12.597  17.077   7.584 -0.0132  0.2047 -0.1602
  165loPI   C1B 2637  12.509  17.235   9.469  0.0565 -0.1704 -0.2023
  165loPI   C2B 2638  12.455  17.105   9.091 -0.0687 -0.1117 -0.0530
  165loPI   C3B 2639  12.257  17.163   8.657 -0.1287  0.0703  0.2323
  165loPI   C4B 2640  12.175  17.099   8.237 -0.0824 -0.0229  0.0665
  166loPI    C1 2641   3.112   4.163  10.450  0.1301 -0.3341 -0.3939
  166loPI    C2 2642   3.209   4.549  10.420 -0.0311 -0.2798 -0.2334
  166loPI    C3 2643   3.472   4.287  10.569  0.0229 -0.2063 -0.1989
  166loPI   PO4 2644   3.073   4.109  10.179  0.2067  0.0253 -0.1790
  166loPI   GL1 2645   2.980   4.259   9.753  0.2444 -0.1701 -0.0116
  166loPI   GL2 2646   3.191   4.502   9.870 -0.0814 -0.3200  0.1043
  166loPI   C1A 2647   2.817   3.871   9.498 -0.1253  0.0513 -0.1821
  166loPI   C2A 2648   2.933   3.559   9.139 -0.0871 -0.0869  0.3103
  166loPI   C3A 2649   2.875   3.448   8.747  0.1547  0.0203  0.0371
  166loPI   C4A 2650   2.886   3.501   8.406  0.0466  0.0219  0.0883
  166loPI   C5A 2651   3.013   3.653   8.077  0.1916  0.1013  0.1135
  166loPI   C6A 2652   3.062   3.441   7.624  0.0069  0.0057 -0.0494
  166loPI   C1B 2653   3.266   4.837   9.454 -0.3916 -0.0041 -0.0806
  166loPI   C2B 2654   3.068   4.961   9.122  0.1420  0.2219 -0.1681
  166loPI   C3B 2655   3.198   5.012   8.673  0.1361 -0.1077 -0.1539
  166loPI   C4B 2656   2.877   4.866   8.506  0.2440 -0.0292 -0.2182
  167loPI    C1 2657   1.187   4.504  11.133  0.0601  0.0412  0.0856
  167loPI    C2 2658   1.488   4.727  11.275  0.1553  0.0909 -0.1875
  167loPI    C3 2659   1.472   4.336  11.359  0.2012  0.1223 -0.0296
  167loPI   PO4 2660   1.088   4.603  10.783  0.0183  0.1827  0.0350
  167loPI   GL1 2661   1.180   4.853  10.454 -0.0717  0.2019 -0.2869
  167loPI   GL2 2662   1.418   4.722  10.188 -0.2031 -0.0842  0.1428
  167loPI   C1A 2663   0.915   5.060  10.107 -0.0041 -0.1787  0.0222
  167loPI   C2A 2664   0.786   5.085   9.752 -0.1114 -0.0542 -0.0634
  167loPI   C3A 2665   0.481   5.117   9.500  0.1822  0.1015  0.1019
  167loPI   C4A 2666   0.328   5.202   9.123 -0.1803  0.2431  0.2455
  167loPI   C5A 2667   0.094   5.014   8.787  0.1179 -0.1093 -0.4137
  167loPI   C6A 2668  -0.219   5.210   8.601 -0.3071  0.1268  0.0640
  167loPI   C1B 2669   1.215   4.806   9.803  0.0640  0.1447 -0.2490
  167loPI   C2B 2670   1.117   4.947   9.415 -0.0320  0.2484  0.0332
  167loPI   C3B 2671   0.869   4.992   9.038  0.0163 -0.0949  0.2465
  167loPI   C4B 2672   0.648   5.309   8.689 -0.0321 -0.2229  0.1047
  168loPI    C1 2673   3.587  14.855  10.761  0.2366 -0.0431 -0.1683
  168loPI    C2 2674   3.872  14.793  11.035  0.1607 -0.1451 -0.1116
  168loPI    C3 2675   3.509  14.919  11.149  0.0875 -0.3183 -0.1501
  168loPI   PO4 2676   3.716  14.799  10.527 -0.3812  0.0924 -0.3524
  168loPI   GL1 2677   3.570  14.869  10.114  0.0501 -0.3761 -0.2538
  168loPI   GL2 2678   3.417  14.584  10.025  0.2264  0.0410  0.1719
  168loPI   C1A 2679   3.893  14.863   9.845 -0.2799  0.0237 -0.0098
  168loPI   C2A 2680   4.135  14.854   9.461  0.3313  0.3315  0.1345
  168loPI   C3A 2681   4.459  14.653   9.341  0.2330 -0.0693  0.2718
  168loPI   C4A 2682   4.657  14.525   9.132  0.2322  0.1077  0.0574
  168loPI   C5A 2683   4.587  14.613   8.737  0.2240 -0.3847  0.3541
  168loPI   C6A 2684   4.632  14.614   8.208  0.0875  0.1779  0.2192
  168loPI   C1B 2685   3.477  14.532   9.569  0.0034  0.1632  0.1500
  168loPI   C2B 2686   3.727  14.643   9.189  0.0095  0.0520 -0.0819
  168loPI   C3B 2687   3.781  14.741   8.675  0.2147 -0.2998 -0.0781
  168loPI   C4B 2688   3.431  14.999   8.370  0.0673  0.0210 -0.0089
  169loPI    C1 2689  16.890   8.243  10.668 -0.1667  0.1057  0.0999
  169loPI    C2 2690  16.939   8.107  11.041  0.1227  0.1355  0.0749
  169loPI    C3 2691  16.940   7.852  10.732  0.1472  0.1385  0.0725
  169loPI   PO4 2692  16.989   8.399  10.537 -0.3745  0.0188  0.1949
  169loPI   GL1 2693  16.828   8.657  10.220 -0.1694  0.2039  0.0313
  169loPI   GL2 2694  16.427   8.631  10.123 -0.2747  0.2279 -0.0638
  169loPI   C1A 2695  17.030   8.719   9.783 -0.1611  0.1221  0.1361
  169loPI   C2A 2696  16.917   8.615   9.368 -0.3179 -0.1105 -0.1190
  169loPI   C3A 2697  17.011   8.570   8.922 -0.0072 -0.0740  0.0032
  169loPI   C4A 2698  17.098   8.509   8.427 -0.2361 -0.2265  0.1480
  169loPI   C5A 2699  17.177   8.947   8.231  0.1474 -0.1155  0.4497
  169loPI   C6A 2700  17.220   9.407   8.478 -0.0379  0.1740 -0.2291
  169loPI   C1B 2701  16.558   8.479   9.710  0.6154 -0.2622 -0.1185
  169loPI   C2B 2702  16.438   8.411   9.255 -0.2462 -0.1877 -0.1467
  169loPI   C3B 2703  16.301   8.033   8.988  0.3941 -0.1406 -0.0981
  169loPI   C4B 2704  15.927   7.918   8.873 -0.2913  0.1076 -0.1551
  170loPI    C1 2705  14.307   7.157  11.067  0.0845  0.0831  0.1799
  170loPI    C2 2706  14.146   6.805  11.168 -0.2046  0.2482  0.3022
  170loPI    C3 2707  14.390   6.994  11.423  0.1691  0.0115  0.1280
  170loPI   PO4 2708  14.388   7.094  10.704  0.1123  0.0512  0.3208
  170loPI   GL1 2709  14.326   7.042  10.330 -0.2002  0.1752  0.1531
  170loPI   GL2 2710  14.597   6.772  10.352  0.1835 -0.1836  0.1456
  170loPI   C1A 2711  14.465   7.291  10.106  0.2946  0.2684 -0.4020
  170loPI   C2A 2712  14.729   7.472   9.932 -0.0922  0.0695  0.0918
  170loPI   C3A 2713  14.893   7.545   9.600  0.1026  0.1054 -0.1375
  170loPI   C4A 2714  15.143   7.383   9.277 -0.0778 -0.0923  0.1482
  170loPI   C5A 2715  15.162   7.432   8.805  0.1216 -0.3700  0.2559
  170loPI   C6A 2716  15.178   7.761   8.544 -0.3464  0.1128  0.4886
  170loPI   C1B 2717  14.497   6.795   9.873 -0.2128 -0.0637  0.1770
  170loPI   C2B 2718  14.505   6.749   9.449 -0.1459 -0.0100  0.0448
  170loPI   C3B 2719  14.341   6.918   9.094  0.0410  0.3054  0.1411
  170loPI   C4B 2720  13.961   7.144   8.926 -0.0989  0.2370 -0.0016
  171loPI    C1 2721  14.750  17.790  10.801 -0.1776  0.1493  0.0771
  171loPI    C2 2722  14.571  17.671  11.138  0.0241  0.1880  0.2001
  171loPI    C3 2723  14.953  17.575  11.071 -0.0009  0.2223  0.0042
  171loPI   PO4 2724  14.638  17.769  10.683 -0.0959  0.0230  0.0353
  171loPI   GL1 2725  14.452  17.503  10.286  0.1442 -0.1810 -0.1241
  171loPI   GL2 2726  14.464  17.271  10.052 -0.1878 -0.2066  0.2332
  171loPI   C1A 2727  14.126  17.616   9.931  0.1076  0.1429  0.0720
  171loPI   C2A 2728  14.225  17.652   9.518 -0.1656 -0.2206  0.0712
  171loPI   C3A 2729  14.365  17.693   9.082  0.1250 -0.2121  0.2220
  171loPI   C4A 2730  14.216  17.479   8.627 -0.0656 -0.0343 -0.0095
  171loPI   C5A 2731  14.373  17.336   8.235  0.3281 -0.3470  0.1263
  171loPI   C6A 2732  14.471  17.104   7.940  0.0041  0.2400 -0.2763
  171loPI   C1B 2733  14.584  17.268   9.620 -0.0692  0.0828 -0.0488
  171loPI   C2B 2734  14.561  17.231   9.244  0.0766 -0.3393  0.0018
  171loPI   C3B 2735  14.654  17.212   8.783  0.4468 -0.3164 -0.2077
  171loPI   C4B 2736  14.746  16.779   8.521  0.2054  0.2560  0.1573
  172loPI    C1 2737   5.443  14.661  10.089 -0.0225 -0.0969  0.0987
  172loPI    C2 2738   5.614  14.744  10.442 -0.0340  0.0096  0.0797
  172loPI    C3 2739   5.775  14.468  10.201 -0.1898 -0.2757  0.2959
  172loPI   PO4 2740   5.378  14.924  10.017  0.3260  0.0965  0.2771
  172loPI   GL1 2741   5.429  15.005   9.580  0.0520  0.0595 -0.1742
  172loPI   GL2 2742   5.132  15.168   9.714 -0.0265 -0.0160 -0.1563
  172loPI   C1A 2743   5.624  14.830   9.169  0.1859  0.0742 -0.0597
  172loPI   C2A 2744   5.480  14.880   8.709  0.3538 -0.0838 -0.3356
  172loPI   C3A 2745   5.428  14.701   8.329  0.2920 -0.0689 -0.2078
  172loPI   C4A 2746   5.118  14.759   8.035 -0.1169 -0.1607 -0.0158
  172loPI   C5A 2747   4.808  15.073   7.928 -0.0764 -0.2317 -0.1869
  172loPI   C6A 2748   4.372  15.050   7.960 -0.0111 -0.0404  0.2116
  172loPI   C1B 2749   5.195  15.218   9.234 -0.0302 -0.0274 -0.0326
  172loPI   C2B 2750   5.115  15.318   8.814  0.0243  0.1213  0.4699
  172loPI   C3B 2751   4.912  15.427   8.320 -0.1149  0.1562  0.1230
  172loPI   C4B 2752   4.874  15.623   7.872 -0.0316  0.0136  0.0873
  173loPI    C1 2753  13.016   8.266  10.914  0.1854 -0.0613  0.1327
  173loPI    C2 2754  12.834   8.265  11.270  0.0882  0.3266  0.0888
  173loPI    C3 2755  12.763   8.561  11.010  0.3040  0.1478 -0.1792
  173loPI   PO4 2756  13.126   8.049  10.913 -0.0197  0.2007 -0.1530
  173loPI   GL1 2757  13.170   7.828  10.483 -0.3310 -0.1098 -0.1459
  173loPI   GL2 2758  12.880   8.139  10.466  0.3978 -0.0662 -0.2024
  173loPI   C1A 2759  13.087   7.543  10.167 -0.1128 -0.0145  0.0260
  173loPI   C2A 2760  13.113   7.687   9.768  0.0318  0.2243  0.0320
  173loPI   C3A 2761  13.265   7.743   9.382 -0.0089 -0.1799 -0.0245
  173loPI   C4A 2762  13.633   7.519   9.198 -0.0052  0.4029 -0.1591
  173loPI   C5A 2763  13.642   7.449   8.671  0.0901 -0.1228  0.3011
  173loPI   C6A 2764  13.826   7.320   8.388  0.0831  0.2796  0.2883
  173loPI   C1B 2765  12.961   8.158  10.030 -0.0627  0.0644 -0.0306
  173loPI   C2B 2766  12.915   8.150   9.638 -0.1935 -0.0373  0.0460
  173loPI   C3B 2767  12.952   8.176   9.194  0.1609 -0.2270  0.2373
  173loPI   C4B 2768  12.875   8.132   8.840  0.1884  0.1047 -0.0288
  174loPI    C1 2769   8.485   3.766  10.516 -0.1183 -0.1636 -0.1468
  174loPI    C2 2770   8.881   3.724  10.554 -0.1150  0.1464  0.2407
  174loPI    C3 2771   8.634   3.449  10.709 -0.0560 -0.0405  0.0099
  174loPI   PO4 2772   8.434   3.876  10.175  0.0368  0.0273  0.1393
  174loPI   GL1 2773   8.059   4.076   9.946 -0.0224  0.0881  0.3714
  174loPI   GL2 2774   8.048   3.650  10.023  0.0064 -0.2219  0.3224
  174loPI   C1A 2775   8.114   4.161   9.570  0.2330 -0.0741  0.0524
  174loPI   C2A 2776   8.124   4.155   9.169  0.0666 -0.2679 -0.1183
  174loPI   C3A 2777   7.939   4.266   8.832  0.0858  0.0172 -0.0740
  174loPI   C4A 2778   8.221   4.407   8.523  0.0174 -0.0998  0.2782
  174loPI   C5A 2779   8.384   4.668   8.162  0.2031  0.0580 -0.1770
  174loPI   C6A 2780   8.214   4.831   7.768  0.1425 -0.0449 -0.3880
  174loPI   C1B 2781   8.222   3.699   9.624 -0.0511 -0.2682 -0.0102
  174loPI   C2B 2782   8.193   3.662   9.295  0.0869 -0.1592 -0.0394
  174loPI   C3B 2783   8.328   3.818   8.859  0.0712  0.0409  0.0769
  174loPI   C4B 2784   8.590   4.073   8.433 -0.0268  0.2332  0.1038
  175loPI    C1 2785   3.358   7.897  10.234  0.0443 -0.1103  0.1197
  175loPI    C2 2786   3.276   7.562  10.438 -0.0164 -0.2250 -0.0901
  175loPI    C3 2787   3.102   7.907  10.542  0.1079 -0.2402  0.1778
  175loPI   PO4 2788   3.589   7.850  10.184 -0.2908 -0.1804  0.2123
  175loPI   GL1 2789   3.624   7.576   9.894  0.2422  0.1274  0.3872
  175loPI   GL2 2790   3.318   7.447   9.958  0.0244 -0.0452 -0.2331
  175loPI   C1A 2791   3.441   7.507   9.440  0.0040 -0.1926  0.2968
  175loPI   C2A 2792   3.527   7.488   8.979  0.1285  0.0758 -0.0749
  175loPI   C3A 2793   3.826   7.459   8.581  0.1001  0.0728 -0.0259
  175loPI   C4A 2794   4.166   7.402   8.294 -0.0764 -0.1025 -0.1838
  175loPI   C5A 2795   4.400   7.204   7.958 -0.0276 -0.0032 -0.1848
  175loPI   C6A 2796   4.633   7.145   7.596 -0.0456  0.0319 -0.1271
  175loPI   C1B 2797   3.241   7.144   9.647 -0.0964  0.1384 -0.1649
  175loPI   C2B 2798   3.284   7.066   9.143 -0.1093  0.0507 -0.1332
  175loPI   C3B 2799   3.245   7.084   8.683  0.4605 -0.1993 -0.5323
  175loPI   C4B 2800   3.137   7.073   8.203 -0.0567  0.2222  0.0925
  176loPI    C1 2801   3.891  10.005  10.848  0.1648 -0.3747  0.0503
  176loPI    C2 2802   3.583   9.766  10.937 -0.1287 -0.1502 -0.3290
  176loPI    C3 2803   3.604  10.133  11.096 -0.0128 -0.1934 -0.2427
  176loPI   PO4 2804   3.879   9.970  10.525  0.2342  0.0022 -0.1212
  176loPI   GL1 2805   3.688   9.708  10.141 -0.1565 -0.0530  0.1672
  176loPI   GL2 2806   3.437   9.809  10.265 -0.2349  0.0412 -0.2872
  176loPI   C1A 2807   3.811   9.837   9.715 -0.3362  0.0714  0.3184
  176loPI   C2A 2808   4.096  10.149   9.357  0.3774  0.0271  0.1085
  176loPI   C3A 2809   4.156  10.047   8.928 -0.1441 -0.1346  0.4364
  176loPI   C4A 2810   3.950   9.982   8.588 -0.2012 -0.3549  0.1838
  176loPI   C5A 2811   3.774   9.787   8.242 -0.0785  0.1387 -0.0255
  176loPI   C6A 2812   3.550   9.800   7.923 -0.0389 -0.0428  0.1266
  176loPI   C1B 2813   3.311   9.739   9.778 -0.0528  0.2362 -0.5996
  176loPI   C2B 2814   3.451   9.549   9.377 -0.0865  0.3485 -0.3007
  176loPI   C3B 2815   3.428   9.500   8.886  0.3349 -0.0043 -0.3143
  176loPI   C4B 2816   3.416   9.546   8.427 -0.1879 -0.1587  0.2022
  177loPI    C1 2817  15.230   0.910  10.952  0.0527 -0.2565  0.0228
  177loPI    C2 2818  15.238   0.683  11.281 -0.0853 -0.1893  0.0734
  177loPI    C3 2819  15.561   0.894  11.175 -0.1269  0.0003  0.3154
  177loPI   PO4 2820  15.145   0.766  10.787  0.0589  0.1181 -0.1570
  177loPI   GL1 2821  14.856   0.696  10.449  0.0976  0.2292 -0.1096
  177loPI   GL2 2822  14.572   0.740  10.423  0.7715  0.1536  0.0666
  177loPI   C1A 2823  14.981   0.620  10.100 -0.0282 -0.1836  0.2343
  177loPI   C2A 2824  15.038   0.625   9.650 -0.0211 -0.1191  0.0070
  177loPI   C3A 2825  14.867   0.531   9.210  0.2304 -0.4198  0.1054
  177loPI   C4A 2826  15.014   0.421   8.732  0.0258  0.0431 -0.0224
  177loPI   C5A 2827  15.171   0.149   8.398  0.3089  0.1268 -0.2381
  177loPI   C6A 2828  15.115  -0.297   8.210 -0.2689  0.2901 -0.1667
  177loPI   C1B 2829  14.347   0.834  10.023 -0.0722  0.0128 -0.0736
  177loPI   C2B 2830  14.361   0.853   9.568 -0.1010  0.0644  0.1634
  177loPI   C3B 2831  14.393   0.918   9.095  0.2054  0.5398 -0.0346
  177loPI   C4B 2832  14.360   0.913   8.666 -0.0108 -0.2338 -0.0085
  178loPI    C1 2833  12.654   5.294  10.554  0.1762 -0.1331  0.0474
  178loPI    C2 2834  12.759   5.187  10.925  0.3332  0.0996  0.0722
  178loPI    C3 2835  12.598   5.547  10.859  0.3202  0.0648 -0.0886
  178loPI   PO4 2836  12.583   4.997  10.434  0.0785 -0.1539  0.1176
  178loPI   GL1 2837  12.294   4.842  10.121  0.0184  0.0083 -0.3822
  178loPI   GL2 2838  11.962   4.869  10.263  0.0680 -0.1458  0.2257
  178loPI   C1A 2839  12.459   5.090   9.769  0.3820 -0.0377  0.1410
  178loPI   C2A 2840  12.532   5.237   9.371  0.2368  0.3321 -0.0715
  178loPI   C3A 2841  12.620   5.107   9.019 -0.2243 -0.0006  0.1940
  178loPI   C4A 2842  12.700   5.069   8.566 -0.1382 -0.0302 -0.2228
  178loPI   C5A 2843  13.015   4.999   8.226 -0.0980 -0.0219  0.1382
  178loPI   C6A 2844  13.330   5.085   8.050 -0.0172  0.0746  0.0615
  178loPI   C1B 2845  11.947   5.008   9.777 -0.2866 -0.0633 -0.1916
  178loPI   C2B 2846  12.092   5.006   9.296 -0.1411 -0.0682 -0.1095
  178loPI   C3B 2847  12.230   4.806   9.020  0.0528 -0.0891  0.0096
  178loPI   C4B 2848  12.243   4.964   8.605  0.0605  0.1472  0.1301
  179loPI    C1 2849   4.889  14.218  10.044  0.3138  0.0681 -0.1334
  179loPI    C2 2850   5.165  14.289  10.324  0.2225  0.1097 -0.0536
  179loPI    C3 2851   4.968  14.594  10.156  0.2012  0.0780 -0.0860
  179loPI   PO4 2852   4.763  13.979  10.125  0.1885 -0.1290  0.0917
  179loPI   GL1 2853   4.597  13.781   9.777  0.0269  0.1746 -0.0349
  179loPI   GL2 2854   4.534  13.431   9.743 -0.1081 -0.0497  0.2832
  179loPI   C1A 2855   4.843  13.721   9.436  0.2124  0.0195  0.1969
  179loPI   C2A 2856   4.743  13.688   9.034  0.1738 -0.0622 -0.0452
  179loPI   C3A 2857   4.910  13.721   8.613 -0.1389  0.0717  0.3447
  179loPI   C4A 2858   4.952  13.831   8.237  0.0094  0.4563 -0.0259
  179loPI   C5A 2859   4.812  13.844   7.849  0.1752  0.0336 -0.5588
  179loPI   C6A 2860   4.602  14.202   7.697 -0.0194  0.0566  0.2320
  179loPI   C1B 2861   4.367  13.550   9.394  0.0694  0.3374 -0.2757
  179loPI   C2B 2862   4.284  13.514   8.915  0.0580 -0.0572 -0.1184
  179loPI   C3B 2863   4.406  13.564   8.496 -0.0897 -0.0821  0.3037
  179loPI   C4B 2864   4.119  13.510   8.166 -0.0796  0.2750  0.1486
  180loPI    C1 2865   1.591   3.220  10.767  0.4525  0.1073 -0.0979
  180loPI    C2 2866   1.855   3.256  11.065 -0.1886  0.1613  0.4881
  180loPI    C3 2867   1.543   3.009  11.103 -0.1681  0.0010 -0.2412
  180loPI   PO4 2868   1.679   3.158  10.504 -0.1459  0.2620 -0.4294
  180loPI   GL1 2869   1.457   3.057  10.166  0.0479  0.3538 -0.0494
  180loPI   GL2 2870   1.270   2.709   9.996  0.0397  0.2723  0.0430
  180loPI   C1A 2871   1.581   3.081   9.805  0.1531 -0.1283 -0.0177
  180loPI   C2A 2872   1.514   3.171   9.396 -0.2042 -0.0643  0.1122
  180loPI   C3A 2873   1.542   3.162   9.047  0.3841 -0.2799  0.0694
  180loPI   C4A 2874   1.516   3.196   8.630 -0.2215 -0.2283 -0.2141
  180loPI   C5A 2875   1.759   3.058   8.229 -0.3235  0.1133  0.0533
  180loPI   C6A 2876   2.093   3.031   7.969 -0.1700  0.1876 -0.0643
  180loPI   C1B 2877   1.238   2.740   9.562  0.0193  0.0899  0.0679
  180loPI   C2B 2878   1.208   2.833   9.196 -0.0604 -0.1596  0.2085
  180loPI   C3B 2879   1.002   2.568   8.875  0.0422  0.2093  0.0608
  180loPI   C4B 2880   0.907   2.657   8.443 -0.0596  0.2961 -0.1370
  181loPI    C1 2881  13.977  14.300  10.554  0.1462  0.0057  0.1231
  181loPI    C2 2882  14.014  14.635  10.768  0.0635  0.0843  0.0157
  181loPI    C3 2883  13.655  14.463  10.727  0.1123 -0.0396  0.1030
  181loPI   PO4 2884  14.150  14.371  10.374 -0.1248  0.0286 -0.1270
  181loPI   GL1 2885  14.208  14.629  10.051  0.2984  0.1551  0.2669
  181loPI   GL2 2886  14.318  14.352   9.917 -0.2749 -0.0672 -0.0767
  181loPI   C1A 2887  14.291  14.951   9.633  0.0819 -0.0941 -0.0945
  181loPI   C2A 2888  14.391  14.998   9.170  0.0435 -0.1066 -0.0211
  181loPI   C3A 2889  14.586  14.813   8.830  0.2059  0.0515 -0.0174
  181loPI   C4A 2890  14.738  15.014   8.452 -0.0931 -0.0624  0.1550
  181loPI   C5A 2891  14.965  15.338   8.266 -0.2052  0.0232  0.0236
  181loPI   C6A 2892  15.246  15.634   8.068  0.2139  0.2261  0.3347
  181loPI   C1B 2893  14.236  14.503   9.501 -0.1674 -0.2488  0.3082
  181loPI   C2B 2894  13.964  14.629   9.129  0.1083 -0.2894 -0.1224
  181loPI   C3B 2895  14.070  14.882   8.739  0.0932  0.0231 -0.1423
  181loPI   C4B 2896  14.243  15.059   8.405  0.2752 -0.1310 -0.2942
  182loPI    C1 2897   0.883  11.534  11.517  0.4472  0.0167 -0.2601
  182loPI    C2 2898   0.834  11.138  11.514 -0.0402  0.0710 -0.2241
  182loPI    C3 2899   0.910  11.327  11.858  0.2207  0.0092 -0.2455
  182loPI   PO4 2900   0.801  11.571  11.243 -0.0849 -0.1266 -0.2101
  182loPI   GL1 2901   0.893  11.381  10.878 -0.0954 -0.0560 -0.3628
  182loPI   GL2 2902   0.677  11.615  10.768  0.0329  0.1801  0.0830
  182loPI   C1A 2903   0.936  11.441  10.394 -0.2119 -0.0306 -0.0801
  182loPI   C2A 2904   0.916  11.581  10.031 -0.1762  0.2310  0.0699
  182loPI   C3A 2905   0.829  11.477   9.567 -0.2580  0.2823 -0.0129
  182loPI   C4A 2906   0.594  11.538   9.121 -0.0271 -0.2358  0.1723
  182loPI   C5A 2907   0.561  11.720   8.645 -0.2612  0.5959 -0.0987
  182loPI   C6A 2908   0.492  11.874   8.188  0.2568 -0.1625 -0.1099
  182loPI   C1B 2909   0.397  11.646  10.429 -0.0251  0.0109 -0.0513
  182loPI   C2B 2910   0.368  11.617   9.975  0.2974 -0.0301 -0.0569
  182loPI   C3B 2911   0.380  11.385   9.730 -0.1483  0.3732  0.0707
  182loPI   C4B 2912   0.388  11.232   9.382 -0.0731  0.0592 -0.0965
  183loPI    C1 2913  13.227   7.038  11.149  0.3788 -0.1949 -0.1987
  183loPI    C2 2914  13.426   7.103  11.490  0.0651  0.0286 -0.0535
  183loPI    C3 2915  13.169   6.797  11.463  0.0803  0.0187 -0.0849
  183loPI   PO4 2916  13.348   7.016  10.969  0.0797 -0.1974  0.0196
  183loPI   GL1 2917  13.340   6.709  10.571 -0.0920 -0.2801  0.2599
  183loPI   GL2 2918  13.671   6.735  10.423  0.1923  0.0478  0.0777
  183loPI   C1A 2919  13.139   6.850  10.200 -0.0314 -0.0679 -0.0323
  183loPI   C2A 2920  13.104   6.676   9.808  0.0113 -0.0640 -0.2280
  183loPI   C3A 2921  13.099   6.479   9.394  0.0723  0.2146  0.1680
  183loPI   C4A 2922  13.187   6.400   9.022 -0.3104  0.4779 -0.1546
  183loPI   C5A 2923  13.477   6.524   8.664 -0.5636 -0.2723  0.3339
  183loPI   C6A 2924  13.696   6.857   8.465  0.1519 -0.2237  0.1998
  183loPI   C1B 2925  14.037   6.691  10.134 -0.0017  0.0508  0.0115
  183loPI   C2B 2926  14.061   6.748   9.698 -0.2776  0.0055  0.3387
  183loPI   C3B 2927  13.914   7.239   9.499  0.0374 -0.0214  0.0650
  183loPI   C4B 2928  13.662   7.694   9.669 -0.1518 -0.0627  0.1150
  184loPI    C1 2929   5.116  14.962  10.468  0.1766  0.0221 -0.1888
  184loPI    C2 2930   5.100  15.227  10.767 -0.1173 -0.0321 -0.1539
  184loPI    C3 2931   5.419  15.217  10.526  0.1248  0.0090  0.1584
  184loPI   PO4 2932   4.730  14.941  10.463  0.4992 -0.2362 -0.0372
  184loPI   GL1 2933   4.570  14.825   9.981 -0.0533 -0.1040  0.3949
  184loPI   GL2 2934   4.440  14.534   9.916 -0.0878 -0.1803  0.1401
  184loPI   C1A 2935   4.867  14.678   9.673  0.0234 -0.3015 -0.2136
  184loPI   C2A 2936   5.100  14.682   9.293  0.0926 -0.2029 -0.1019
  184loPI   C3A 2937   5.039  14.714   8.895  0.0274  0.0844  0.2353
  184loPI   C4A 2938   5.010  14.933   8.491 -0.0177  0.0417 -0.1234
  184loPI   C5A 2939   5.321  15.194   8.278  0.0019  0.0095  0.1329
  184loPI   C6A 2940   5.735  15.328   8.243 -0.3326  0.0189  0.0160
  184loPI   C1B 2941   4.571  14.231   9.611 -0.2498  0.1790 -0.0940
  184loPI   C2B 2942   4.497  14.033   9.312 -0.1700 -0.1571  0.0868
  184loPI   C3B 2943   4.422  14.017   8.887  0.1221 -0.0826  0.4260
  184loPI   C4B 2944   4.494  14.198   8.479 -0.1867  0.2172 -0.0926
  185loPI    C1 2945   6.449   4.056  10.870  0.0924  0.1832 -0.0658
  185loPI    C2 2946   6.208   4.375  10.880  0.0316  0.1331  0.0992
  185loPI    C3 2947   6.425   4.278  11.201 -0.1457 -0.1399  0.1409
  185loPI   PO4 2948   6.314   3.908  10.628 -0.1009  0.2420  0.0033
  185loPI   GL1 2949   6.395   3.981  10.180  0.1062  0.2002 -0.0970
  185loPI   GL2 2950   6.200   4.271  10.084  0.3629 -0.0462  0.0080
  185loPI   C1A 2951   6.665   4.151   9.858  0.1428  0.1597  0.0883
  185loPI   C2A 2952   6.697   4.299   9.447  0.3201  0.0521  0.3360
  185loPI   C3A 2953   6.568   4.258   9.022  0.0164  0.0641  0.0475
  185loPI   C4A 2954   6.728   4.153   8.569  0.1017 -0.0735  0.0765
  185loPI   C5A 2955   6.834   4.321   8.215  0.1473 -0.2372  0.2119
  185loPI   C6A 2956   6.604   4.414   7.774  0.3555  0.2974 -0.2799
  185loPI   C1B 2957   6.173   4.275   9.681  0.1298 -0.0176  0.0869
  185loPI   C2B 2958   6.169   4.173   9.339 -0.2185  0.0850  0.0172
  185loPI   C3B 2959   6.122   4.123   8.910 -0.1845  0.1405 -0.0976
  185loPI   C4B 2960   5.979   4.162   8.496 -0.2059 -0.0446  0.1578
  186loPI    C1 2961   0.631   3.507  10.944 -0.1568  0.0388  0.1201
  186loPI    C2 2962   0.628   3.862  11.128 -0.1412 -0.0745  0.3420
  186loPI    C3 2963   0.515   3.532  11.326 -0.0805 -0.2050  0.1617
  186loPI   PO4 2964   0.564   3.563  10.749 -0.1560 -0.0377 -0.2529
  186loPI   GL1 2965   0.799   3.661  10.329 -0.0351  0.2343 -0.0348
  186loPI   GL2 2966   0.992   3.865  10.320 -0.0776  0.0695 -0.1220
  186loPI   C1A 2967   0.595   4.009  10.044 -0.2018 -0.1405  0.1678
  186loPI   C2A 2968   0.592   3.998   9.655 -0.4270  0.1447  0.2182
  186loPI   C3A 2969   0.677   3.905   9.233  0.1188  0.1696 -0.5395
  186loPI   C4A 2970   0.634   3.871   8.860 -0.1332  0.0528 -0.0702
  186loPI   C5A 2971   0.583   3.738   8.426  0.0967 -0.3963 -0.0815
  186loPI   C6A 2972   0.930   3.725   8.100 -0.1922  0.1438  0.1234
  186loPI   C1B 2973   1.093   3.879   9.861 -0.1451 -0.2546  0.1430
  186loPI   C2B 2974   1.101   3.975   9.389 -0.0589 -0.1072  0.2150
  186loPI   C3B 2975   1.131   4.055   8.902  0.4624 -0.2530 -0.0213
  186loPI   C4B 2976   0.984   4.085   8.507  0.1324  0.0565  0.2093
  187loPI    C1 2977   7.114   3.376  10.763  0.0684  0.1564  0.3405
  187loPI    C2 2978   7.353   3.170  10.517 -0.0813  0.3115  0.0603
  187loPI    C3 2979   7.511   3.424  10.783  0.0961 -0.0514  0.3085
  187loPI   PO4 2980   6.922   3.393  10.644 -0.0225 -0.0686  0.1880
  187loPI   GL1 2981   6.993   3.337  10.229  0.1876 -0.1688 -0.0975
  187loPI   GL2 2982   7.063   3.005  10.111 -0.2671  0.1132 -0.0682
  187loPI   C1A 2983   6.936   3.288   9.769 -0.0187 -0.0214 -0.0925
  187loPI   C2A 2984   6.841   3.289   9.319  0.0270  0.0294 -0.1114
  187loPI   C3A 2985   6.806   3.265   8.898 -0.0481 -0.0371 -0.0238
  187loPI   C4A 2986   6.866   3.058   8.465  0.1831  0.3017  0.2973
  187loPI   C5A 2987   6.743   2.865   8.054 -0.0924 -0.1702 -0.1460
  187loPI   C6A 2988   6.694   3.014   7.580 -0.2067 -0.1495 -0.0601
  187loPI   C1B 2989   7.036   2.834   9.744 -0.2679  0.4684  0.1371
  187loPI   C2B 2990   6.825   2.807   9.295  0.4012 -0.0325 -0.0328
  187loPI   C3B 2991   6.496   2.806   8.895  0.3399 -0.1211  0.1999
  187loPI   C4B 2992   6.463   2.724   8.490 -0.0108  0.0344 -0.0377
  188loPI    C1 2993  13.276   2.859  10.637 -0.1049 -0.0520 -0.0414
  188loPI    C2 2994  13.208   2.876  10.243  0.0749 -0.0811 -0.0745
  188loPI    C3 2995  13.018   3.127  10.489 -0.0516 -0.0748 -0.1773
  188loPI   PO4 2996  13.550   2.914  10.599  0.2240  0.1535  0.2255
  188loPI   GL1 2997  13.787   2.961  10.296  0.0227 -0.1592 -0.0869
  188loPI   GL2 2998  13.932   2.715  10.296  0.2158  0.1143  0.0656
  188loPI   C1A 2999  13.563   3.093   9.898 -0.4076 -0.3795 -0.0510
  188loPI   C2A 3000  13.485   3.060   9.460 -0.3044 -0.2374  0.0036
  188loPI   C3A 3001  13.797   2.898   9.204 -0.3665 -0.0495  0.0958
  188loPI   C4A 3002  13.857   2.464   9.040 -0.0277 -0.1368 -0.0443
  188loPI   C5A 3003  13.919   2.273   8.661  0.0019 -0.0681 -0.1563
  188loPI   C6A 3004  14.034   2.200   8.168  0.2142 -0.2749 -0.2093
  188loPI   C1B 3005  13.556   2.592   9.940  0.4157  0.2452 -0.1074
  188loPI   C2B 3006  13.190   2.770   9.729 -0.1019 -0.0776 -0.4231
  188loPI   C3B 3007  13.122   2.669   9.326  0.0024 -0.2439  0.3317
  188loPI   C4B 3008  13.432   2.736   8.990 -0.1124 -0.0301 -0.0135
  189loPI    C1 3009  15.142   7.404  10.941 -0.1410  0.3174  0.1163
  189loPI    C2 3010  15.175   7.284  11.321  0.0133 -0.0374 -0.0052
  189loPI    C3 3011  14.839   7.210  11.116 -0.0128  0.0210  0.0162
  189loPI   PO4 3012  15.387   7.294  10.851 -0.0745  0.1921  0.2131
  189loPI   GL1 3013  15.617   7.201  10.456 -0.0700  0.1864 -0.1586
  189loPI   GL2 3014  15.680   7.527  10.325  0.1124 -0.3705 -0.2837
  189loPI   C1A 3015  15.595   7.227   9.956  0.1673 -0.1177 -0.0898
  189loPI   C2A 3016  15.627   7.177   9.562 -0.0978 -0.0890 -0.1685
  189loPI   C3A 3017  15.587   7.140   9.169  0.0198 -0.2431 -0.0628
  189loPI   C4A 3018  15.696   6.985   8.668 -0.0398 -0.0923 -0.2553
  189loPI   C5A 3019  15.683   6.641   8.458  0.1184 -0.0408  0.0576
  189loPI   C6A 3020  15.722   6.471   8.027  0.0088  0.1651 -0.0213
  189loPI   C1B 3021  15.698   7.843  10.116  0.2116 -0.0422 -0.2382
  189loPI   C2B 3022  15.783   8.000   9.788 -0.0931  0.3686  0.0240
  189loPI   C3B 3023  15.901   8.074   9.367  0.1493  0.1629 -0.0097
  189loPI   C4B 3024  15.565   8.188   9.078  0.0594 -0.0640  0.2376
  190loPI    C1 3025  17.387   1.630  10.914  0.0586  0.0695  0.0245
  190loPI    C2 3026  17.232   1.438  11.229 -0.3749  0.2742 -0.0572
  190loPI    C3 3027  17.416   1.790  11.280  0.0680  0.0349  0.0389
  190loPI   PO4 3028  17.293   1.539  10.697  0.0290 -0.0692  0.0698
  190loPI   GL1 3029  17.466   1.286  10.383  0.0284 -0.1332  0.2297
  190loPI   GL2 3030  17.093   1.186  10.421 -0.0492  0.2082  0.1011
  190loPI   C1A 3031  17.351   1.159  10.029 -0.0392 -0.2816  0.0526
  190loPI   C2A 3032  17.264   1.128   9.595  0.1066 -0.0979 -0.0532
  190loPI   C3A 3033  17.151   1.096   9.213  0.0417  0.1040  0.1862
  190loPI   C4A 3034  17.205   0.950   8.807  0.1296  0.1386  0.0486
  190loPI   C5A 3035  17.388   0.936   8.356  0.1789  0.0149 -0.4364
  190loPI   C6A 3036  17.596   1.116   8.121 -0.0878 -0.1755  0.5577
  190loPI   C1B 3037  16.948   0.863  10.081  0.1328  0.3246 -0.2978
  190loPI   C2B 3038  16.589   0.674  10.105  0.1164  0.2376  0.1255
  190loPI   C3B 3039  16.280   0.447   9.996  0.0795 -0.0155  0.0637
  190loPI   C4B 3040  16.054   0.543   9.651  0.1160  0.0113 -0.0615
  191loPI    C1 3041   3.040   8.963  10.643  0.1587 -0.0654 -0.0720
  191loPI    C2 3042   2.815   8.706  10.852 -0.2090  0.1691 -0.1700
  191loPI    C3 3043   2.844   9.088  10.969  0.0904  0.1567 -0.1960
  191loPI   PO4 3044   2.947   8.958  10.372 -0.1850  0.0272 -0.0914
  191loPI   GL1 3045   2.995   8.700   9.978 -0.0487 -0.2461  0.2184
  191loPI   GL2 3046   2.697   8.891   9.940  0.2124 -0.1490  0.0041
  191loPI   C1A 3047   3.026   8.411   9.566  0.0007  0.4232 -0.1169
  191loPI   C2A 3048   3.066   8.338   9.108 -0.0970 -0.4138 -0.0598
  191loPI   C3A 3049   3.063   8.236   8.707 -0.0130 -0.0070 -0.1223
  191loPI   C4A 3050   3.346   8.424   8.367  0.0003 -0.1411  0.1954
  191loPI   C5A 3051   3.492   8.348   7.881  0.1723  0.3076  0.0878
  191loPI   C6A 3052   3.564   8.262   7.515  0.0040 -0.0576  0.1729
  191loPI   C1B 3053   2.674   8.740   9.532 -0.1032 -0.0086  0.2812
  191loPI   C2B 3054   2.739   8.716   9.182  0.1326  0.0347  0.0186
  191loPI   C3B 3055   2.828   8.659   8.778  0.5768 -0.3688 -0.1700
  191loPI   C4B 3056   2.976   8.774   8.401  0.0963 -0.0753  0.1298
  192loPI    C1 3057  10.178  17.664  10.627  0.3041 -0.0224 -0.0676
  192loPI    C2 3058   9.991  17.310  10.626 -0.0263  0.1473  0.0866
  192loPI    C3 3059   9.832  17.622  10.431  0.1357  0.2751  0.1561
  192loPI   PO4 3060  10.468  17.554  10.589 -0.0171  0.2152 -0.0733
  192loPI   GL1 3061  10.752  17.483  10.388  0.2034 -0.0373  0.0144
  192loPI   GL2 3062  10.914  17.681  10.125  0.0771 -0.0180  0.0204
  192loPI   C1A 3063  10.675  17.060   9.938  0.2255  0.0608 -0.0221
  192loPI   C2A 3064  10.560  16.980   9.478  0.1466 -0.1802 -0.1489
  192loPI   C3A 3065  10.634  16.982   9.049  0.0981  0.0129  0.1565
  192loPI   C4A 3066  10.632  16.954   8.646 -0.2261 -0.2819 -0.0019
  192loPI   C5A 3067  10.815  16.820   8.212 -0.1915  0.0683  0.0969
  192loPI   C6A 3068  11.040  16.522   8.098 -0.0016  0.0776  0.2586
  192loPI   C1B 3069  10.580  17.590   9.826  0.1304 -0.0760 -0.1582
  192loPI   C2B 3070  10.619  17.465   9.352  0.1874  0.2072 -0.2618
  192loPI   C3B 3071  10.586  17.491   8.995 -0.0508  0.1373  0.0648
  192loPI   C4B 3072  10.578  17.436   8.599  0.1390 -0.2959  0.1834
  193loPI    C1 3073  17.323  16.818  11.088  0.0417  0.2021 -0.0434
  193loPI    C2 3074  17.388  17.162  11.283  0.1455  0.1243  0.0608
  193loPI    C3 3075  17.021  17.003  11.273  0.0798  0.2812 -0.0595
  193loPI   PO4 3076  17.261  16.695  10.830  0.0617  0.1750  0.1029
  193loPI   GL1 3077  17.335  16.652  10.413  0.0117  0.2755 -0.1678
  193loPI   GL2 3078  17.188  16.969  10.294  0.3110 -0.1434 -0.3381
  193loPI   C1A 3079  17.282  16.563   9.985 -0.2772  0.0685 -0.3075
  193loPI   C2A 3080  17.300  16.524   9.608 -0.2445 -0.3115 -0.1430
  193loPI   C3A 3081  17.485  16.469   9.236  0.2679 -0.3462 -0.2255
  193loPI   C4A 3082  17.450  16.728   8.852  0.1916  0.3977 -0.1045
  193loPI   C5A 3083  17.526  16.951   8.568 -0.0155 -0.1307  0.2801
  193loPI   C6A 3084  17.219  17.228   8.427  0.0680 -0.1969  0.0250
  193loPI   C1B 3085  17.026  16.964   9.909 -0.1786 -0.0172 -0.0089
  193loPI   C2B 3086  16.950  16.847   9.485 -0.2368  0.1002 -0.1321
  193loPI   C3B 3087  16.835  16.546   9.117 -0.0909  0.2654  0.1600
  193loPI   C4B 3088  16.428  16.442   8.867 -0.1472 -0.1621 -0.0382
  194loPI    C1 3089  14.455  14.350  10.794 -0.0490  0.0139 -0.2957
  194loPI    C2 3090  14.655  14.214  11.112  0.1035  0.0598 -0.3710
  194loPI    C3 3091  14.499  13.957  10.849 -0.0192  0.0220 -0.2624
  194loPI   PO4 3092  14.645  14.561  10.728 -0.1524 -0.0546 -0.1662
  194loPI   GL1 3093  14.657  14.432  10.286  0.0036  0.0799  0.2341
  194loPI   GL2 3094  14.841  14.638  10.190  0.0687  0.0272 -0.1671
  194loPI   C1A 3095  14.810  14.177   9.911 -0.2324 -0.0030 -0.0815
  194loPI   C2A 3096  14.767  14.281   9.430 -0.1376 -0.0283  0.1165
  194loPI   C3A 3097  14.873  14.415   8.980  0.2784  0.2700 -0.3016
  194loPI   C4A 3098  14.863  14.456   8.542  0.2139  0.1853 -0.0346
  194loPI   C5A 3099  14.705  14.291   8.098  0.1637  0.1374  0.0216
  194loPI   C6A 3100  14.559  13.886   8.107  0.1053 -0.1238 -0.2644
  194loPI   C1B 3101  14.709  14.647   9.793 -0.0006 -0.0365  0.3124
  194loPI   C2B 3102  14.761  14.814   9.420 -0.1890  0.1823 -0.1895
  194loPI   C3B 3103  14.914  15.069   9.156  0.1714 -0.0681  0.1247
  194loPI   C4B 3104  15.119  15.302   8.819 -0.0856  0.3904 -0.0790
  195loPI    C1 3105  16.570   2.265  11.222 -0.0325  0.0315 -0.2346
  195loPI    C2 3106  16.184   2.184  11.287  0.0134 -0.1014 -0.1225
  195loPI    C3 3107  16.417   2.301  11.590  0.0182  0.1614 -0.2256
  195loPI   PO4 3108  16.661   2.381  11.030  0.2128 -0.1982 -0.0002
  195loPI   GL1 3109  16.805   2.285  10.561 -0.3695  0.0984  0.1949
  195loPI   GL2 3110  17.055   2.069  10.421 -0.1546 -0.3505  0.3775
  195loPI   C1A 3111  16.961   2.521  10.273 -0.1291  0.1530  0.1525
  195loPI   C2A 3112  16.925   2.547   9.817  0.3004  0.2985 -0.0196
  195loPI   C3A 3113  16.778   2.535   9.458  0.0637 -0.0675  0.1398
  195loPI   C4A 3114  16.651   2.591   9.041 -0.1264  0.1003  0.2809
  195loPI   C5A 3115  16.488   2.652   8.604 -0.2316 -0.0771 -0.1096
  195loPI   C6A 3116  16.398   2.482   8.345  0.1472  0.0535  0.0057
  195loPI   C1B 3117  16.764   2.108  10.021 -0.4100  0.2006  0.2432
  195loPI   C2B 3118  16.697   2.060   9.584  0.0234 -0.0284 -0.0338
  195loPI   C3B 3119  16.691   2.054   9.159  0.0833  0.0658 -0.2391
  195loPI   C4B 3120  16.765   2.138   8.751 -0.0250  0.1643  0.0040
  196loPI    C1 3121   5.016   6.460  10.371  0.1849 -0.0304  0.1099
  196loPI    C2 3122   4.771   6.153  10.446 -0.0793  0.1194 -0.1209
  196loPI    C3 3123   4.997   6.305  10.740 -0.0294 -0.2196  0.0214
  196loPI   PO4 3124   4.996   6.509  10.114  0.1821  0.0425  0.5341
  196loPI   GL1 3125   4.838   6.582   9.768 -0.1164  0.2005 -0.0987
  196loPI   GL2 3126   5.148   6.467   9.632 -0.3702  0.1599 -0.3379
  196loPI   C1A 3127   4.770   6.760   9.383  0.1264  0.2172  0.0891
  196loPI   C2A 3128   4.815   6.813   8.847 -0.1387 -0.2241 -0.0812
  196loPI   C3A 3129   4.866   6.585   8.432  0.0317 -0.0600 -0.0085
  196loPI   C4A 3130   4.776   6.325   8.165 -0.2108 -0.0449 -0.1136
  196loPI   C5A 3131   5.086   6.320   7.845 -0.1031 -0.1245  0.2173
  196loPI   C6A 3132   5.246   6.186   7.416  0.2289 -0.1704  0.1278
  196loPI   C1B 3133   5.062   6.382   9.162 -0.1073  0.0463  0.2182
  196loPI   C2B 3134   5.161   6.232   8.732 -0.1758  0.1517 -0.0194
  196loPI   C3B 3135   5.046   5.997   8.438 -0.1132  0.0494  0.1970
  196loPI   C4B 3136   5.055   5.827   8.001 -0.2776  0.0629  0.1187
  197loPI    C1 3137   7.591  11.222  10.417  0.0182 -0.0452 -0.0700
  197loPI    C2 3138   7.704  10.860  10.292  0.1844 -0.0492  0.0873
  197loPI    C3 3139   7.449  10.895  10.598  0.1221 -0.0335  0.0337
  197loPI   PO4 3140   7.507  11.358  10.208 -0.1497  0.0519 -0.2054
  197loPI   GL1 3141   7.473  11.409   9.785  0.0751  0.5562 -0.3112
  197loPI   GL2 3142   7.207  11.211   9.711  0.0066  0.0115  0.3801
  197loPI   C1A 3143   7.718  11.578   9.489 -0.1489 -0.0110 -0.2016
  197loPI   C2A 3144   7.980  11.620   9.229  0.0786 -0.2049 -0.1374
  197loPI   C3A 3145   8.302  11.873   9.101 -0.0781 -0.4049  0.0848
  197loPI   C4A 3146   8.663  11.758   8.863 -0.0653  0.1679 -0.1815
  197loPI   C5A 3147   8.928  11.777   8.559 -0.0824  0.3373  0.1150
  197loPI   C6A 3148   9.237  12.023   8.274 -0.1012 -0.1974  0.1160
  197loPI   C1B 3149   7.359  11.101   9.312  0.3721 -0.0612 -0.0830
  197loPI   C2B 3150   7.326  11.013   8.912  0.0872 -0.0952  0.1836
  197loPI   C3B 3151   7.258  11.157   8.545  0.0920 -0.2084  0.0346
  197loPI   C4B 3152   7.027  10.987   8.180  0.0449 -0.1609  0.1611
  198loPI    C1 3153  15.201   9.736  10.793 -0.0057 -0.0157 -0.1274
  198loPI    C2 3154  15.297   9.489  11.091  0.1311  0.0383 -0.1256
  198loPI    C3 3155  15.030   9.781  11.151 -0.1013 -0.1648 -0.1537
  198loPI   PO4 3156  15.110   9.601  10.557  0.1105  0.2052 -0.0213
  198loPI   GL1 3157  15.061   9.345  10.271  0.2199 -0.0140  0.1931
  198loPI   GL2 3158  14.900   9.000  10.432 -0.2533 -0.1576 -0.0955
  198loPI   C1A 3159  15.107   9.369   9.842 -0.2585  0.0578  0.4144
  198loPI   C2A 3160  14.992   9.475   9.441 -0.0044  0.0985 -0.1195
  198loPI   C3A 3161  15.148   9.705   9.079 -0.0068 -0.1020 -0.2419
  198loPI   C4A 3162  15.462   9.756   8.768  0.1218 -0.0554 -0.0982
  198loPI   C5A 3163  15.662   9.911   8.338 -0.2108  0.0378  0.0545
  198loPI   C6A 3164  15.470  10.039   7.984 -0.1928  0.2325 -0.1375
  198loPI   C1B 3165  14.934   8.934  10.012 -0.1442 -0.3289  0.0878
  198loPI   C2B 3166  14.737   8.918   9.645  0.4210 -0.1179  0.0620
  198loPI   C3B 3167  14.568   8.702   9.259  0.4147  0.0795  0.0351
  198loPI   C4B 3168  14.752   8.843   8.847 -0.2137  0.0225  0.1021
  199loPI    C1 3169  13.303   5.469  10.980 -0.1210  0.2938  0.1521
  199loPI    C2 3170  13.000   5.554  11.227 -0.0337  0.2928  0.2600
  199loPI    C3 3171  13.375   5.543  11.366 -0.0276 -0.1425  0.2240
  199loPI   PO4 3172  13.180   5.413  10.732  0.1206 -0.1053 -0.1513
  199loPI   GL1 3173  13.017   5.573  10.358  0.1427 -0.1116  0.0507
  199loPI   GL2 3174  12.883   5.312  10.131  0.0414  0.3077  0.3046
  199loPI   C1A 3175  13.210   5.957  10.143 -0.3791 -0.2867  0.0156
  199loPI   C2A 3176  13.262   6.099   9.714  0.1311 -0.2001  0.1139
  199loPI   C3A 3177  13.418   6.119   9.401  0.0574 -0.0087 -0.0691
  199loPI   C4A 3178  13.669   6.246   8.989  0.0213  0.3367  0.1560
  199loPI   C5A 3179  13.861   6.218   8.585 -0.0750  0.1480  0.1621
  199loPI   C6A 3180  14.162   5.951   8.345  0.0878  0.1059 -0.1442
  199loPI   C1B 3181  13.226   5.576   9.857 -0.0167  0.3824 -0.0376
  199loPI   C2B 3182  13.282   5.664   9.402  0.1517 -0.0504  0.2469
  199loPI   C3B 3183  13.194   5.841   8.919  0.1483  0.0646  0.3397
  199loPI   C4B 3184  13.356   5.924   8.445  0.0289 -0.1075 -0.3054
  200loPI    C1 3185   3.497   3.266  10.399  0.1340  0.3949  0.0259
  200loPI    C2 3186   3.175   3.353  10.620 -0.0341  0.2016 -0.1381
  200loPI    C3 3187   3.539   3.360  10.785 -0.1394  0.2384  0.0967
  200loPI   PO4 3188   3.445   2.926  10.193 -0.0138 -0.0518 -0.0640
  200loPI   GL1 3189   3.520   2.657   9.849 -0.3379 -0.2570  0.3971
  200loPI   GL2 3190   3.660   2.307   9.957  0.0488 -0.1285  0.1156
  200loPI   C1A 3191   3.408   2.657   9.314  0.3314 -0.0080 -0.0519
  200loPI   C2A 3192   3.431   2.668   8.801  0.2114 -0.1112 -0.1457
  200loPI   C3A 3193   3.421   2.291   8.557 -0.1348 -0.3163 -0.0755
  200loPI   C4A 3194   3.557   2.061   8.166 -0.2330  0.0356 -0.0351
  200loPI   C5A 3195   3.948   2.341   8.010  0.0220  0.1117  0.0432
  200loPI   C6A 3196   4.378   2.445   8.094 -0.0308 -0.1334 -0.0039
  200loPI   C1B 3197   3.847   2.488   9.565  0.3395 -0.0949 -0.2999
  200loPI   C2B 3198   4.145   2.305   9.392 -0.0928  0.0215  0.1184
  200loPI   C3B 3199   4.342   2.225   9.024  0.0955 -0.1166 -0.1444
  200loPI   C4B 3200   4.245   2.370   8.573  0.2471  0.5466  0.2099
  201loPI    C1 3201  10.359   5.328   9.847 -0.0806 -0.0230  0.1111
  201loPI    C2 3202  10.330   5.333  10.246 -0.3264  0.1246  0.0932
  201loPI    C3 3203  10.341   5.677  10.042 -0.2521  0.0489 -0.0314
  201loPI   PO4 3204  10.555   5.118   9.845 -0.0828 -0.0872  0.1297
  201loPI   GL1 3205  10.831   5.259   9.588 -0.3274  0.0583  0.0668
  201loPI   GL2 3206  11.105   5.157   9.696  0.1010  0.0142 -0.0458
  201loPI   C1A 3207  10.792   5.118   9.147 -0.0089  0.1118 -0.0214
  201loPI   C2A 3208  10.894   5.326   8.749 -0.1660  0.0845  0.5053
  201loPI   C3A 3209  11.017   5.158   8.344  0.0524  0.2692 -0.0795
  201loPI   C4A 3210  11.407   5.083   8.157  0.2220  0.0630  0.1210
  201loPI   C5A 3211  11.672   5.085   7.904  0.0053 -0.2140  0.1091
  201loPI   C6A 3212  12.126   5.004   7.832  0.0641 -0.2213 -0.0840
  201loPI   C1B 3213  11.495   5.303   9.481 -0.1846  0.0816  0.3464
  201loPI   C2B 3214  11.781   5.371   9.207 -0.2192 -0.0499 -0.0426
  201loPI   C3B 3215  12.030   5.355   8.862  0.0147 -0.2871 -0.5123
  201loPI   C4B 3216  12.298   5.472   8.497  0.0962 -0.1366  0.0889
  202loPI    C1 3217  13.661   9.755  10.861 -0.0399  0.2059 -0.1775
  202loPI    C2 3218  13.749  10.017  11.150 -0.0717 -0.2003  0.2132
  202loPI    C3 3219  13.828  10.106  10.768  0.0687  0.3034  0.3511
  202loPI   PO4 3220  13.834   9.485  10.901  0.0449  0.0019  0.0733
  202loPI   GL1 3221  14.079   9.608  10.546 -0.1231  0.0149 -0.0385
  202loPI   GL2 3222  13.936   9.832  10.398 -0.1170 -0.1670  0.0592
  202loPI   C1A 3223  14.148   9.458  10.048  0.0284 -0.0654 -0.1696
  202loPI   C2A 3224  14.150   9.693   9.596  0.3583  0.1779 -0.2518
  202loPI   C3A 3225  14.197   9.720   9.130 -0.0033 -0.0158 -0.1579
  202loPI   C4A 3226  14.187   9.723   8.731  0.0130 -0.5037 -0.0252
  202loPI   C5A 3227  14.079   9.727   8.297  0.2608  0.0279 -0.0617
  202loPI   C6A 3228  14.040   9.371   7.972  0.0184  0.0342 -0.0138
  202loPI   C1B 3229  13.812   9.821  10.000  0.1381 -0.0392  0.0154
  202loPI   C2B 3230  13.640   9.809   9.686 -0.1039 -0.2519  0.0696
  202loPI   C3B 3231  13.341   9.893   9.674  0.0302  0.0310 -0.0556
  202loPI   C4B 3232  13.175  10.101   9.375 -0.2488 -0.0475  0.2945
  203loPI    C1 3233   7.988   4.468  10.624 -0.1457 -0.0716  0.0819
  203loPI    C2 3234   8.162   4.118  10.537  0.0109  0.0050  0.0826
  203loPI    C3 3235   8.326   4.360  10.809  0.0711  0.2149 -0.1365
  203loPI   PO4 3236   8.021   4.622  10.288 -0.1046 -0.1104 -0.0674
  203loPI   GL1 3237   8.010   4.664   9.915 -0.0831  0.0639  0.2595
  203loPI   GL2 3238   8.133   4.900   9.804 -0.0106 -0.0894 -0.0391
  203loPI   C1A 3239   7.637   4.458   9.650  0.0654 -0.2232  0.4015
  203loPI   C2A 3240   7.653   4.508   9.190  0.0888  0.2463 -0.0678
  203loPI   C3A 3241   7.515   4.447   8.784 -0.0220  0.0356  0.1676
  203loPI   C4A 3242   7.732   4.338   8.387 -0.0555 -0.0182  0.1626
  203loPI   C5A 3243   7.977   3.924   8.385 -0.3577 -0.1108  0.0802
  203loPI   C6A 3244   8.354   3.556   8.379  0.0568  0.1114  0.0642
  203loPI   C1B 3245   8.034   4.827   9.353  0.3058 -0.0711 -0.2431
  203loPI   C2B 3246   8.130   4.755   8.931 -0.1655  0.2217  0.2473
  203loPI   C3B 3247   7.890   4.758   8.648  0.0375 -0.3417 -0.0050
  203loPI   C4B 3248   7.856   4.772   8.193  0.0748 -0.0055  0.3018
  204loPI    C1 3249   2.464   9.060  10.612  0.2145  0.1191  0.1403
  204loPI    C2 3250   2.261   8.730  10.711  0.0400  0.0776 -0.3321
  204loPI    C3 3251   2.177   9.077  10.891 -0.0547 -0.0525 -0.1207
  204loPI   PO4 3252   2.439   9.014  10.315  0.3487  0.1567 -0.0798
  204loPI   GL1 3253   2.276   8.693  10.121  0.3200 -0.0701  0.3458
  204loPI   GL2 3254   1.992   8.598  10.239 -0.0601 -0.0956  0.0225
  204loPI   C1A 3255   2.215   8.668   9.725  0.0343 -0.0803  0.1743
  204loPI   C2A 3256   2.090   8.639   9.343  0.3023  0.0919 -0.1497
  204loPI   C3A 3257   2.367   8.506   8.917  0.1996  0.0368 -0.1241
  204loPI   C4A 3258   2.379   8.344   8.539  0.0260 -0.0114  0.0157
  204loPI   C5A 3259   2.739   8.365   8.257 -0.1397 -0.1169  0.0550
  204loPI   C6A 3260   3.088   8.017   8.260  0.1765 -0.1571 -0.2138
  204loPI   C1B 3261   1.689   8.549   9.949  0.1858 -0.0198  0.3518
  204loPI   C2B 3262   1.641   8.697   9.589 -0.2174 -0.1848  0.0302
  204loPI   C3B 3263   1.613   8.591   9.147  0.0214  0.3595 -0.0450
  204loPI   C4B 3264   1.913   8.259   9.032 -0.2414 -0.2006 -0.3773
  205loPI    C1 3265   6.426   9.029  10.206  0.2300  0.0609 -0.0819
  205loPI    C2 3266   6.120   9.280  10.145  0.0565 -0.1137  0.0596
  205loPI    C3 3267   6.379   9.348  10.442  0.0176 -0.0944  0.0891
  205loPI   PO4 3268   6.329   8.764  10.170 -0.1409 -0.0801  0.1360
  205loPI   GL1 3269   6.573   8.441   9.833  0.0838  0.0105 -0.2018
  205loPI   GL2 3270   6.498   8.848   9.710 -0.0214  0.0910 -0.1745
  205loPI   C1A 3271   6.597   8.311   9.320  0.0252  0.3802  0.1372
  205loPI   C2A 3272   6.675   8.197   8.873  0.0559  0.0445  0.0546
  205loPI   C3A 3273   6.711   8.141   8.429 -0.1508 -0.1657  0.3463
  205loPI   C4A 3274   6.772   8.077   8.004 -0.0575  0.0503 -0.0229
  205loPI   C5A 3275   6.852   7.731   7.811  0.0618  0.1350 -0.0890
  205loPI   C6A 3276   6.874   7.240   7.969  0.1006  0.2518  0.0191
  205loPI   C1B 3277   6.703   8.742   9.342  0.1785 -0.3175  0.0768
  205loPI   C2B 3278   6.748   8.691   8.927 -0.1497  0.0011  0.0729
  205loPI   C3B 3279   6.855   8.775   8.468 -0.4695 -0.0681  0.1306
  205loPI   C4B 3280   6.974   8.537   8.069  0.2164  0.0999 -0.0577
  206loPI    C1 3281   2.714   2.489  10.898  0.0038 -0.0575 -0.1162
  206loPI    C2 3282   2.598   2.107  10.922 -0.0503 -0.0376 -0.0614
  206loPI    C3 3283   2.483   2.370  11.201  0.1003 -0.0109 -0.0238
  206loPI   PO4 3284   2.633   2.567  10.666  0.0492 -0.0788 -0.1542
  206loPI   GL1 3285   2.690   2.524  10.208  0.0427  0.1204 -0.0701
  206loPI   GL2 3286   2.370   2.561  10.163  0.1515 -0.0510  0.0923
  206loPI   C1A 3287   2.912   2.404   9.757  0.0008 -0.0846 -0.0632
  206loPI   C2A 3288   2.769   2.128   9.385  0.0913 -0.1292 -0.0942
  206loPI   C3A 3289   2.642   2.065   8.943  0.2471  0.2690  0.5206
  206loPI   C4A 3290   2.924   2.075   8.641 -0.0413  0.1260  0.1346
  206loPI   C5A 3291   3.021   1.844   8.196  0.2381 -0.3210 -0.1664
  206loPI   C6A 3292   3.181   1.849   7.764 -0.0620  0.2016 -0.0953
  206loPI   C1B 3293   2.424   2.574   9.716 -0.0949 -0.4771 -0.4344
  206loPI   C2B 3294   2.502   2.541   9.291 -0.0803  0.3725  0.0051
  206loPI   C3B 3295   2.539   2.518   8.860  0.1220  0.2589  0.1792
  206loPI   C4B 3296   2.503   2.370   8.474 -0.4343  0.0794 -0.2349
  207loPI    C1 3297  17.864   0.746  10.946 -0.1976  0.1795  0.1652
  207loPI    C2 3298  17.725   0.465  11.195  0.1583 -0.1023  0.0538
  207loPI    C3 3299  17.943   0.768  11.338  0.3631 -0.2642  0.0893
  207loPI   PO4 3300  17.803   0.600  10.725  0.1095  0.1583 -0.1743
  207loPI   GL1 3301  17.724   0.222  10.412 -0.0727  0.0494 -0.2290
  207loPI   GL2 3302  17.589  -0.057  10.279 -0.0229  0.3106  0.2147
  207loPI   C1A 3303  17.810   0.346   9.988 -0.0814  0.2040  0.0190
  207loPI   C2A 3304  17.742   0.434   9.578 -0.0690  0.0324 -0.0721
  207loPI   C3A 3305  17.844   0.523   9.151 -0.1241  0.2226  0.0897
  207loPI   C4A 3306  18.091   0.337   8.827 -0.1178 -0.0803 -0.1367
  207loPI   C5A 3307  18.087   0.111   8.461 -0.1349  0.1603 -0.2388
  207loPI   C6A 3308  18.408  -0.225   8.314 -0.1631  0.0668 -0.2079
  207loPI   C1B 3309  17.414   0.018   9.849  0.0976  0.2841 -0.2102
  207loPI   C2B 3310  17.335   0.159   9.404  0.0221  0.0263  0.0525
  207loPI   C3B 3311  17.411   0.437   8.993  0.1141 -0.1365  0.0384
  207loPI   C4B 3312  17.252   0.456   8.613 -0.1626 -0.1047 -0.0551
  208loPI    C1 3313   8.284   8.673  10.467 -0.0449  0.1480 -0.0532
  208loPI    C2 3314   7.983   8.826  10.682 -0.0615  0.3326 -0.2052
  208loPI    C3 3315   7.915   8.685  10.314  0.0026  0.1935 -0.1649
  208loPI   PO4 3316   8.469   8.885  10.464  0.2090  0.2505 -0.3507
  208loPI   GL1 3317   8.682   9.039  10.169  0.0223  0.2598 -0.3754
  208loPI   GL2 3318   8.968   8.821  10.247  0.0567 -0.0334 -0.1238
  208loPI   C1A 3319   8.747   9.137   9.679 -0.1307 -0.0932  0.1089
  208loPI   C2A 3320   8.828   9.158   9.268 -0.1750  0.0547 -0.1013
  208loPI   C3A 3321   8.848   9.045   8.808 -0.0213 -0.1210  0.1435
  208loPI   C4A 3322   8.832   9.214   8.509  0.1876 -0.1440  0.1328
  208loPI   C5A 3323   8.848   9.069   8.125  0.0341  0.2705 -0.0681
  208loPI   C6A 3324   8.704   9.013   7.623  0.1303  0.1832  0.0350
  208loPI   C1B 3325   9.051   8.684   9.927  0.0649  0.3961 -0.2211
  208loPI   C2B 3326   9.113   8.679   9.592 -0.0075  0.0386  0.2757
  208loPI   C3B 3327   9.063   8.669   9.142 -0.0696 -0.1345  0.1019
  208loPI   C4B 3328   9.108   8.474   8.785  0.1683 -0.4472  0.0632
  209loPI    C1 3329  15.447  17.467  11.161 -0.0533  0.2709  0.0717
  209loPI    C2 3330  15.628  17.433  11.516 -0.0731 -0.0528  0.0538
  209loPI    C3 3331  15.282  17.244  11.449  0.0130 -0.1274 -0.1910
  209loPI   PO4 3332  15.707  17.583  11.027 -0.0259 -0.2192  0.1202
  209loPI   GL1 3333  15.964  17.797  10.621  0.1514  0.3277 -0.0966
  209loPI   GL2 3334  15.735  17.996  10.525  0.1402 -0.3708  0.0803
  209loPI   C1A 3335  16.082  17.754  10.198  0.2002 -0.3152  0.0549
  209loPI   C2A 3336  16.158  17.770   9.743 -0.0766 -0.2896 -0.2277
  209loPI   C3A 3337  16.174  17.891   9.364 -0.1571  0.3644  0.2269
  209loPI   C4A 3338  16.183  17.870   8.953 -0.1024 -0.2665 -0.2292
  209loPI   C5A 3339  16.004  18.020   8.553  0.0446 -0.3706  0.1055
  209loPI   C6A 3340  15.956  17.909   8.170 -0.2567 -0.0972  0.1342
  209loPI   C1B 3341  15.588  17.785  10.194  0.1692 -0.2797 -0.0670
  209loPI   C2B 3342  15.680  17.572   9.732 -0.1572 -0.1622  0.0026
  209loPI   C3B 3343  15.808  17.602   9.174  0.2264 -0.2055 -0.2019
  209loPI   C4B 3344  15.797  17.635   8.741  0.1057 -0.1161  0.1475
  210loPI    C1 3345  16.319  15.617  10.862 -0.2723 -0.1005  0.0575
  210loPI    C2 3346  16.201  15.333  11.117 -0.0919 -0.1184  0.1226
  210loPI    C3 3347  16.406  15.649  11.251 -0.0169 -0.1162  0.0038
  210loPI   PO4 3348  16.436  15.607  10.642  0.2961  0.1302  0.0104
  210loPI   GL1 3349  16.608  15.769  10.240 -0.2852 -0.1690  0.0496
  210loPI   GL2 3350  16.605  16.045  10.383  0.0417  0.6069  0.0075
  210loPI   C1A 3351  16.690  15.910   9.789 -0.3591  0.0618 -0.1749
  210loPI   C2A 3352  16.906  15.984   9.403 -0.0202 -0.0034  0.2157
  210loPI   C3A 3353  16.844  16.016   8.965  0.1323 -0.0421 -0.1859
  210loPI   C4A 3354  17.053  16.070   8.524  0.1611  0.2749  0.3361
  210loPI   C5A 3355  17.431  16.101   8.264  0.2179 -0.0029  0.0625
  210loPI   C6A 3356  17.295  16.249   7.847 -0.0244 -0.0879  0.0628
  210loPI   C1B 3357  16.326  16.132  10.022 -0.0053 -0.2168  0.1556
  210loPI   C2B 3358  16.035  16.219   9.668 -0.0095  0.0044 -0.0237
  210loPI   C3B 3359  15.885  16.140   9.277 -0.1888  0.2219 -0.1457
  210loPI   C4B 3360  15.930  16.262   8.838 -0.0141  0.2399  0.0838
  211loPI    C1 3361  13.749   0.815  10.894 -0.1876  0.0634 -0.0030
  211loPI    C2 3362  13.379   0.692  10.805 -0.0588 -0.2147 -0.1692
  211loPI    C3 3363  13.626   0.452  11.009  0.0747 -0.0831 -0.1735
  211loPI   PO4 3364  13.822   1.021  10.733 -0.2256 -0.1128 -0.1889
  211loPI   GL1 3365  13.998   1.035  10.323 -0.0307  0.0172 -0.2320
  211loPI   GL2 3366  13.727   1.156  10.181 -0.0304 -0.0256 -0.1976
  211loPI   C1A 3367  14.279   1.311  10.108  0.0787  0.2344  0.3049
  211loPI   C2A 3368  14.306   1.341   9.727 -0.1913  0.0226 -0.0448
  211loPI   C3A 3369  14.359   1.330   9.341 -0.2032 -0.0982 -0.1424
  211loPI   C4A 3370  14.517   1.398   8.912  0.1167 -0.0678  0.0160
  211loPI   C5A 3371  14.445   1.407   8.478 -0.0748 -0.1244 -0.0348
  211loPI   C6A 3372  14.576   1.067   8.110  0.0590 -0.0387  0.0077
  211loPI   C1B 3373  13.920   1.023   9.781  0.0618 -0.0794 -0.3361
  211loPI   C2B 3374  13.862   1.070   9.398 -0.0745  0.0826  0.1685
  211loPI   C3B 3375  13.997   1.124   9.046 -0.0986  0.1305  0.2618
  211loPI   C4B 3376  14.035   1.268   8.722  0.2747 -0.0096 -0.0270
  212loPI    C1 3377  13.931  11.651  10.678 -0.0037  0.1644  0.1089
  212loPI    C2 3378  13.607  11.508  10.864 -0.0715  0.1814  0.0048
  212loPI    C3 3379  13.613  11.886  10.735  0.0690  0.2442  0.1895
  212loPI   PO4 3380  14.003  11.434  10.476 -0.2609 -0.0639 -0.4157
  212loPI   GL1 3381  13.935  11.432  10.085  0.2319  0.2557  0.0822
  212loPI   GL2 3382  13.850  11.715  10.106 -0.2228  0.0027  0.1316
  212loPI   C1A 3383  13.714  11.260   9.732 -0.3703  0.2068 -0.0662
  212loPI   C2A 3384  13.430  10.928   9.574  0.1704  0.0110  0.1156
  212loPI   C3A 3385  13.438  10.569   9.321  0.0159  0.0862 -0.2592
  212loPI   C4A 3386  13.308  10.265   8.955 -0.0750  0.1252 -0.1128
  212loPI   C5A 3387  13.317  10.025   8.597  0.2754 -0.3088 -0.2474
  212loPI   C6A 3388  13.559   9.665   8.612 -0.1209 -0.2108  0.1945
  212loPI   C1B 3389  13.971  11.710   9.663 -0.5045  0.0314 -0.0004
  212loPI   C2B 3390  13.826  11.782   9.230  0.0510  0.1249  0.2871
  212loPI   C3B 3391  13.846  11.674   8.881 -0.0620 -0.0410 -0.1702
  212loPI   C4B 3392  14.069  11.894   8.578  0.1192 -0.1520  0.0476
  213loPI    C1 3393  16.283   7.713  10.495 -0.0542  0.2768 -0.1020
  213loPI    C2 3394  16.161   8.014  10.261 -0.1371  0.2416 -0.1047
  213loPI    C3 3395  15.963   7.931  10.599 -0.1726  0.1289 -0.1529
  213loPI   PO4 3396  16.502   7.631  10.481  0.1293  0.1785  0.1606
  213loPI   GL1 3397  16.833   7.607  10.177 -0.1612 -0.3666 -0.2156
  213loPI   GL2 3398  16.546   7.662   9.993  0.4167 -0.0631 -0.2507
  213loPI   C1A 3399  17.008   7.734   9.834 -0.0584  0.1254  0.0328
  213loPI   C2A 3400  17.100   7.643   9.360  0.2701 -0.2490 -0.1428
  213loPI   C3A 3401  17.145   7.649   8.892  0.2039 -0.1400  0.1383
  213loPI   C4A 3402  17.172   7.967   8.608  0.1310  0.0029 -0.2549
  213loPI   C5A 3403  17.405   8.168   8.303 -0.4820  0.0196  0.1600
  213loPI   C6A 3404  17.673   7.923   7.955 -0.0072  0.0801 -0.0697
  213loPI   C1B 3405  16.592   7.514   9.583 -0.1297 -0.0469  0.0343
  213loPI   C2B 3406  16.599   7.505   9.190  0.0508 -0.0457  0.0278
  213loPI   C3B 3407  16.585   7.661   8.701  0.0896 -0.1260 -0.3145
  213loPI   C4B 3408  16.822   7.466   8.376 -0.3680 -0.0815 -0.0863
  214loPI    C1 3409   0.313  13.158  10.994  0.0991 -0.0348 -0.0883
  214loPI    C2 3410   0.644  13.313  11.155  0.1095 -0.0122 -0.1314
  214loPI    C3 3411   0.286  13.455  11.261  0.1022 -0.1736  0.0683
  214loPI   PO4 3412   0.388  13.104  10.732 -0.5212 -0.0166  0.1702
  214loPI   GL1 3413   0.314  13.166  10.326  0.2329  0.1711 -0.0494
  214loPI   GL2 3414   0.227  12.848  10.363 -0.0891  0.2113  0.2659
  214loPI   C1A 3415   0.268  13.130   9.864  0.0213  0.1045 -0.1243
  214loPI   C2A 3416   0.239  13.002   9.453 -0.0955  0.1408 -0.1481
  214loPI   C3A 3417   0.428  12.788   9.140 -0.1027  0.1204  0.0391
  214loPI   C4A 3418   0.388  12.635   8.778 -0.0633  0.1021  0.0804
  214loPI   C5A 3419   0.619  12.241   8.484  0.2685  0.3186 -0.4043
  214loPI   C6A 3420   0.879  12.134   8.032 -0.0313  0.1135  0.3931
  214loPI   C1B 3421   0.045  12.517  10.047  0.2976 -0.1617  0.1006
  214loPI   C2B 3422  -0.082  12.229   9.702  0.2405 -0.1285  0.0474
  214loPI   C3B 3423  -0.263  12.047   9.302 -0.2182 -0.5234 -0.0815
  214loPI   C4B 3424  -0.252  11.976   8.885 -0.0861 -0.0151  0.0022
  215loPI    C1 3425   7.674  14.779  10.664 -0.1416  0.0933 -0.0090
  215loPI    C2 3426   7.627  14.396  10.558 -0.0295  0.0191  0.2033
  215loPI    C3 3427   7.620  14.500  10.944  0.1577  0.2003  0.1600
  215loPI   PO4 3428   7.549  14.935  10.456  0.1440  0.0014  0.3011
  215loPI   GL1 3429   7.384  14.903  10.085 -0.0528 -0.0028  0.1271
  215loPI   GL2 3430   7.635  14.578  10.108 -0.1324 -0.0882 -0.1240
  215loPI   C1A 3431   7.425  14.696   9.674  0.0771 -0.1338 -0.0617
  215loPI   C2A 3432   7.314  14.649   9.284  0.3980 -0.1688 -0.3111
  215loPI   C3A 3433   7.162  14.752   8.881  0.1137 -0.0250  0.2207
  215loPI   C4A 3434   7.211  14.797   8.486  0.0225  0.1241  0.1314
  215loPI   C5A 3435   7.045  14.984   8.289  0.2326  0.0326 -0.2098
  215loPI   C6A 3436   7.116  15.458   8.519  0.1044  0.2338  0.1223
  215loPI   C1B 3437   7.924  14.678   9.664 -0.0188  0.2168  0.3154
  215loPI   C2B 3438   7.822  14.631   9.258 -0.1418 -0.0262  0.0977
  215loPI   C3B 3439   7.617  14.643   8.841 -0.1646 -0.3408  0.2190
  215loPI   C4B 3440   7.664  14.525   8.471  0.0611 -0.0730  0.1131
  216loPI    C1 3441   9.753  16.868  10.406  0.0795 -0.0997  0.0341
  216loPI    C2 3442   9.521  17.169  10.532  0.1912 -0.0370  0.0910
  216loPI    C3 3443   9.372  16.891  10.286  0.0893  0.0687  0.0322
  216loPI   PO4 3444   9.990  16.961  10.295  0.1271 -0.0283  0.0310
  216loPI   GL1 3445  10.182  17.042   9.834  0.3736 -0.0718  0.1512
  216loPI   GL2 3446  10.248  16.682   9.966  0.0397  0.3938  0.0690
  216loPI   C1A 3447  10.195  17.339   9.619 -0.0598 -0.1030  0.0154
  216loPI   C2A 3448  10.183  17.246   9.180 -0.3257  0.1979 -0.0597
  216loPI   C3A 3449  10.159  17.085   8.789  0.1422  0.0794 -0.2722
  216loPI   C4A 3450  10.069  17.030   8.357  0.4113  0.0731  0.0179
  216loPI   C5A 3451  10.008  17.334   7.965  0.3024  0.1571 -0.1910
  216loPI   C6A 3452   9.846  17.397   7.625  0.0742  0.0312 -0.1511
  216loPI   C1B 3453  10.365  16.576   9.652 -0.1281  0.0742  0.1906
  216loPI   C2B 3454  10.431  16.593   9.244 -0.2034  0.0495  0.3215
  216loPI   C3B 3455  10.311  16.559   8.819  0.3546  0.2191 -0.0408
  216loPI   C4B 3456  10.342  16.648   8.390 -0.0290 -0.1485  0.1895
  217loPI    C1 3457  14.618   2.903  10.842 -0.0904  0.0595 -0.0239
  217loPI    C2 3458  14.559   2.909  11.238  0.2380 -0.0303  0.0298
  217loPI    C3 3459  14.729   3.222  11.056  0.0781  0.0151 -0.0434
  217loPI   PO4 3460  14.761   2.689  10.757 -0.2980  0.0567 -0.0743
  217loPI   GL1 3461  14.720   2.648  10.333 -0.1035  0.1321  0.1217
  217loPI   GL2 3462  14.379   2.513  10.419 -0.0994 -0.2015 -0.1109
  217loPI   C1A 3463  14.803   2.767   9.881  0.0943  0.2794 -0.2776
  217loPI   C2A 3464  14.804   2.860   9.477 -0.1784  0.0238  0.1358
  217loPI   C3A 3465  14.755   2.990   9.062 -0.0219 -0.4012  0.2796
  217loPI   C4A 3466  14.647   3.021   8.638 -0.2567 -0.1183  0.0064
  217loPI   C5A 3467  14.246   3.161   8.387  0.1587  0.2582 -0.1204
  217loPI   C6A 3468  14.146   3.509   8.341  0.1585 -0.0557  0.0763
  217loPI   C1B 3469  14.246   2.350   9.991 -0.2289 -0.0595  0.2551
  217loPI   C2B 3470  14.442   2.471   9.618 -0.0337 -0.1287  0.0144
  217loPI   C3B 3471  14.335   2.681   9.271  0.3075 -0.0357  0.1455
  217loPI   C4B 3472  14.322   2.715   8.842  0.1126 -0.0016  0.0089
  218loPI    C1 3473  17.822  13.974  10.700  0.1474  0.1047 -0.2208
  218loPI    C2 3474  17.478  13.791  10.608  0.1382  0.1546 -0.2866
  218loPI    C3 3475  17.820  13.585  10.607  0.0390 -0.0327  0.3214
  218loPI   PO4 3476  17.858  14.150  10.503  0.1090  0.0778 -0.4387
  218loPI   GL1 3477  17.960  14.347  10.053 -0.0684  0.0456 -0.1315
  218loPI   GL2 3478  18.301  14.092  10.067 -0.0131 -0.1272  0.0183
  218loPI   C1A 3479  17.797  14.245   9.654  0.3093  0.0286  0.3343
  218loPI   C2A 3480  17.774  14.305   9.208  0.3106  0.0241  0.5180
  218loPI   C3A 3481  17.887  14.284   8.792 -0.0067  0.0855  0.1130
  218loPI   C4A 3482  18.289  14.351   8.597 -0.3673 -0.0447 -0.1036
  218loPI   C5A 3483  18.646  14.569   8.323  0.1350  0.2969 -0.1528
  218loPI   C6A 3484  18.822  14.824   7.978  0.2962 -0.0714 -0.0730
  218loPI   C1B 3485  18.219  14.015   9.711 -0.4111  0.1950  0.4336
  218loPI   C2B 3486  18.108  13.983   9.227  0.1619 -0.1558  0.0159
  218loPI   C3B 3487  18.169  13.907   8.750 -0.1467  0.4192 -0.0040
  218loPI   C4B 3488  17.955  14.177   8.286 -0.2242  0.0348  0.1489
  219loPI    C1 3489  16.746  11.532  10.921  0.0017 -0.0080 -0.2206
  219loPI    C2 3490  17.086  11.403  11.087  0.0031 -0.1760 -0.3512
  219loPI    C3 3491  16.738  11.228  11.180 -0.0549  0.0236 -0.1854
  219loPI   PO4 3492  16.842  11.534  10.640  0.3544  0.1909  0.0156
  219loPI   GL1 3493  16.792  11.706  10.181 -0.2412  0.2707 -0.0919
  219loPI   GL2 3494  17.030  11.627  10.148  0.3394 -0.2568  0.1152
  219loPI   C1A 3495  16.573  11.901   9.916  0.0370  0.0723 -0.2098
  219loPI   C2A 3496  16.681  11.892   9.523  0.0725  0.0052 -0.1173
  219loPI   C3A 3497  16.887  11.930   9.080 -0.0069 -0.1776 -0.0757
  219loPI   C4A 3498  17.045  12.042   8.624  0.2868 -0.1134  0.0358
  219loPI   C5A 3499  17.129  12.078   8.228 -0.0160  0.2659 -0.2864
  219loPI   C6A 3500  16.915  11.994   7.883  0.0932 -0.2310 -0.1041
  219loPI   C1B 3501  17.111  11.566   9.704  0.0950 -0.0581  0.2035
  219loPI   C2B 3502  17.125  11.524   9.269 -0.1518 -0.0862  0.1176
  219loPI   C3B 3503  17.186  11.322   8.827 -0.0561 -0.0419  0.0563
  219loPI   C4B 3504  17.229  11.097   8.454 -0.2699 -0.1547 -0.1414
  220loPI    C1 3505  15.861   0.814  10.790  0.0044 -0.1382 -0.0863
  220loPI    C2 3506  16.032   1.145  10.647 -0.0343 -0.0977 -0.0389
  220loPI    C3 3507  16.020   1.081  11.041  0.0629 -0.2041 -0.0526
  220loPI   PO4 3508  15.680   0.789  10.665  0.0751 -0.1123  0.2897
  220loPI   GL1 3509  15.409   0.991  10.391 -0.1566 -0.1296 -0.0906
  220loPI   GL2 3510  15.712   0.979  10.208 -0.1500 -0.3232 -0.1849
  220loPI   C1A 3511  15.272   1.078   9.940 -0.2287 -0.1102 -0.5699
  220loPI   C2A 3512  15.291   1.053   9.481  0.2345  0.1832  0.0090
  220loPI   C3A 3513  15.300   0.836   9.079 -0.1122  0.1436 -0.0349
  220loPI   C4A 3514  15.352   0.757   8.687  0.2985 -0.1156 -0.0787
  220loPI   C5A 3515  15.537   0.520   8.413 -0.0565  0.1224  0.1003
  220loPI   C6A 3516  15.483   0.563   7.911  0.1107  0.1580 -0.0326
  220loPI   C1B 3517  15.795   1.084   9.835  0.1710  0.1017 -0.2472
  220loPI   C2B 3518  15.810   1.025   9.393  0.0241 -0.1361 -0.1647
  220loPI   C3B 3519  15.682   1.146   9.024  0.1333 -0.2878 -0.4231
  220loPI   C4B 3520  15.392   1.284   8.667  0.1306 -0.0998  0.3721
  221loPI    C1 3521  15.837   2.498  11.150  0.1345 -0.0823  0.1672
  221loPI    C2 3522  15.523   2.586  11.383  0.0797  0.0185  0.0560
  221loPI    C3 3523  15.894   2.664  11.510  0.0439  0.1829  0.0614
  221loPI   PO4 3524  15.718   2.232  11.061  0.1604 -0.0968 -0.0982
  221loPI   GL1 3525  15.511   2.138  10.597 -0.3238  0.0888 -0.0381
  221loPI   GL2 3526  15.674   2.393  10.594 -0.1994 -0.0260 -0.2088
  221loPI   C1A 3527  15.594   2.027  10.192 -0.1594  0.0321 -0.2807
  221loPI   C2A 3528  15.700   2.069   9.790 -0.1156  0.2009 -0.3376
  221loPI   C3A 3529  15.716   1.957   9.235  0.0822  0.1769  0.0067
  221loPI   C4A 3530  15.762   2.077   8.784  0.0638 -0.0661  0.0323
  221loPI   C5A 3531  16.009   2.227   8.477 -0.2071  0.0499 -0.3329
  221loPI   C6A 3532  15.874   2.571   8.276 -0.0835 -0.1430  0.3486
  221loPI   C1B 3533  15.859   2.477  10.162  0.1067 -0.2285  0.1424
  221loPI   C2B 3534  15.952   2.578   9.757  0.0464  0.0869 -0.0771
  221loPI   C3B 3535  15.783   2.408   9.431 -0.0702 -0.2264  0.0603
  221loPI   C4B 3536  15.840   2.461   9.059 -0.1940 -0.3520  0.2401
  222loPI    C1 3537  11.178  14.947  10.838  0.1269  0.3178 -0.0367
  222loPI    C2 3538  11.018  14.701  11.109  0.1219  0.1292 -0.2091
  222loPI    C3 3539  11.050  15.091  11.189 -0.0093  0.0980  0.0058
  222loPI   PO4 3540  11.045  14.815  10.626  0.1988 -0.1243  0.1184
  222loPI   GL1 3541  11.234  14.808  10.216 -0.0292  0.3909 -0.0499
  222loPI   GL2 3542  10.986  14.916  10.161 -0.0999 -0.1614  0.0631
  222loPI   C1A 3543  11.314  14.821   9.707 -0.0629 -0.1255  0.0311
  222loPI   C2A 3544  11.319  15.104   9.258 -0.0635  0.2693 -0.0511
  222loPI   C3A 3545  11.135  15.071   8.945  0.1385 -0.2181 -0.1176
  222loPI   C4A 3546  10.972  15.251   8.541 -0.0369 -0.1158  0.1253
  222loPI   C5A 3547  10.934  15.283   8.115 -0.3230 -0.1808 -0.1432
  222loPI   C6A 3548  10.919  14.970   7.805 -0.0294 -0.1941  0.1947
  222loPI   C1B 3549  10.781  14.836   9.769  0.0027 -0.1701 -0.0314
  222loPI   C2B 3550  10.843  14.858   9.310 -0.0403 -0.2399 -0.0544
  222loPI   C3B 3551  10.773  14.786   8.879  0.0163  0.0511  0.1839
  222loPI   C4B 3552  10.548  14.459   8.697  0.0333  0.2205  0.1636
  223loPI    C1 3553   3.222  10.706  10.816 -0.2005  0.0121  0.0404
  223loPI    C2 3554   3.551  10.604  11.020 -0.1303 -0.0007 -0.0779
  223loPI    C3 3555   3.205  10.415  11.089 -0.1040 -0.0135  0.0197
  223loPI   PO4 3556   3.280  10.640  10.445  0.1947  0.1211 -0.4680
  223loPI   GL1 3557   3.109  10.899  10.178 -0.0223  0.0644  0.0289
  223loPI   GL2 3558   2.926  10.646  10.097 -0.1520 -0.0338 -0.0677
  223loPI   C1A 3559   3.088  11.019   9.795  0.1588 -0.2225 -0.2820
  223loPI   C2A 3560   2.944  11.112   9.387  0.0627 -0.2103 -0.0877
  223loPI   C3A 3561   2.741  11.147   8.980  0.0265  0.2724 -0.3223
  223loPI   C4A 3562   2.811  11.180   8.549 -0.1188  0.0050  0.0659
  223loPI   C5A 3563   3.152  11.326   8.287 -0.2525 -0.0088 -0.1046
  223loPI   C6A 3564   3.387  11.666   8.287  0.2178  0.0611 -0.1351
  223loPI   C1B 3565   2.825  10.629   9.752 -0.5602  0.0545 -0.0087
  223loPI   C2B 3566   2.789  10.665   9.260 -0.0208  0.0009 -0.1384
  223loPI   C3B 3567   2.622  10.538   8.858 -0.0403  0.1072  0.1320
  223loPI   C4B 3568   2.628  10.635   8.358  0.0429  0.0471  0.1511
  224loPI    C1 3569   3.621  12.828  10.506  0.1066 -0.1266  0.0780
  224loPI    C2 3570   3.872  13.070  10.703 -0.0854  0.1824 -0.0497
  224loPI    C3 3571   3.490  13.042  10.818 -0.0764 -0.0247 -0.0669
  224loPI   PO4 3572   3.606  12.944  10.259  0.0104  0.2418  0.1785
  224loPI   GL1 3573   3.611  12.782   9.924 -0.0178 -0.0762  0.0612
  224loPI   GL2 3574   3.368  12.610   9.754 -0.1744  0.3310 -0.1405
  224loPI   C1A 3575   3.649  12.782   9.409  0.2044 -0.0455  0.0886
  224loPI   C2A 3576   3.757  12.774   8.936 -0.0615  0.2189  0.1745
  224loPI   C3A 3577   3.823  12.627   8.494  0.1575  0.1544  0.0520
  224loPI   C4A 3578   4.200  12.356   8.425 -0.2014 -0.2576  0.3453
  224loPI   C5A 3579   4.496  12.179   8.046  0.0707 -0.1638  0.0016
  224loPI   C6A 3580   4.500  12.446   7.634  0.0086 -0.0586  0.3123
  224loPI   C1B 3581   3.195  12.596   9.378 -0.3714 -0.0307  0.3420
  224loPI   C2B 3582   3.043  12.565   9.016 -0.1235  0.1228 -0.1862
  224loPI   C3B 3583   2.697  12.563   8.612 -0.0171  0.1824  0.0902
  224loPI   C4B 3584   2.697  12.643   8.128  0.0834  0.2076  0.0796
  225loPI    C1 3585  18.106   3.295  11.398 -0.2818 -0.0236  0.2609
  225loPI    C2 3586  18.248   3.645  11.530 -0.2764  0.0391  0.0911
  225loPI    C3 3587  18.274   3.318  11.760  0.0421  0.0729  0.1076
  225loPI   PO4 3588  17.864   3.413  11.114  0.0404 -0.1337  0.1588
  225loPI   GL1 3589  17.952   3.391  10.689  0.0908  0.0319  0.3264
  225loPI   GL2 3590  18.222   3.257  10.455  0.1406  0.2557  0.1954
  225loPI   C1A 3591  17.878   3.595  10.228  0.1738 -0.0996 -0.3434
  225loPI   C2A 3592  17.843   3.649   9.811 -0.2221  0.0017  0.2575
  225loPI   C3A 3593  17.824   3.669   9.378  0.2963  0.1574  0.1191
  225loPI   C4A 3594  17.727   3.575   8.940 -0.1038  0.1023  0.2427
  225loPI   C5A 3595  17.511   3.812   8.614  0.1204  0.1234 -0.1903
  225loPI   C6A 3596  17.092   4.042   8.475  0.2354 -0.1304  0.0121
  225loPI   C1B 3597  18.170   3.254  10.014 -0.1239  0.1024 -0.2008
  225loPI   C2B 3598  18.053   3.202   9.624  0.0669 -0.0097 -0.2077
  225loPI   C3B 3599  18.118   3.284   9.142  0.0833 -0.2718  0.0140
  225loPI   C4B 3600  18.096   3.138   8.681  0.0008 -0.1793  0.2899
  226loPI    C1 3601   0.924   2.574  11.076  0.0239 -0.1594  0.0610
  226loPI    C2 3602   0.736   2.278  11.269  0.1195 -0.1828  0.1189
  226loPI    C3 3603   1.136   2.291  11.263  0.1161 -0.1021  0.0439
  226loPI   PO4 3604   0.742   2.606  10.840 -0.1623 -0.0220 -0.3906
  226loPI   GL1 3605   0.660   2.719  10.350 -0.0589  0.2108  0.3798
  226loPI   GL2 3606   0.873   2.797  10.372 -0.2622 -0.2189 -0.0824
  226loPI   C1A 3607   0.629   2.501   9.887 -0.0564 -0.1001  0.2580
  226loPI   C2A 3608   0.576   2.461   9.545  0.0459 -0.2629  0.0710
  226loPI   C3A 3609   0.585   2.514   9.153  0.2292  0.0430 -0.0357
  226loPI   C4A 3610   0.440   2.462   8.739  0.3792 -0.0726 -0.0455
  226loPI   C5A 3611   0.417   2.383   8.334  0.2965 -0.2254  0.1709
  226loPI   C6A 3612   0.183   2.453   7.966 -0.1528 -0.1054 -0.2120
  226loPI   C1B 3613   0.829   2.961   9.934 -0.0118  0.3738 -0.4257
  226loPI   C2B 3614   0.714   2.939   9.478  0.0949  0.1978 -0.0887
  226loPI   C3B 3615   0.787   2.971   9.006  0.0494  0.0162 -0.1716
  226loPI   C4B 3616   1.047   3.083   8.798  0.0006 -0.1038 -0.0454
  227loPI    C1 3617  17.050   5.312  11.420  0.0184 -0.2203 -0.1061
  227loPI    C2 3618  16.898   5.598  11.655 -0.0299 -0.1732 -0.1941
  227loPI    C3 3619  17.175   5.348  11.798  0.1997  0.0794 -0.1910
  227loPI   PO4 3620  17.159   5.406  11.197  0.1278 -0.2275  0.1733
  227loPI   GL1 3621  17.145   5.567  10.775 -0.3541 -0.0533  0.2581
  227loPI   GL2 3622  17.445   5.665  10.633  0.0300  0.0885  0.2057
  227loPI   C1A 3623  17.001   5.280  10.379 -0.0829  0.0059  0.0935
  227loPI   C2A 3624  16.773   5.128   9.882 -0.0403  0.0500  0.0893
  227loPI   C3A 3625  16.800   4.902   9.455  0.2427  0.0276 -0.0291
  227loPI   C4A 3626  16.810   4.540   9.171 -0.0591 -0.0684  0.1401
  227loPI   C5A 3627  17.102   4.352   8.953  0.0064 -0.2284  0.1026
  227loPI   C6A 3628  17.538   4.342   8.734 -0.0318  0.3108 -0.0269
  227loPI   C1B 3629  17.387   5.579  10.203 -0.0198 -0.1246 -0.5233
  227loPI   C2B 3630  17.257   5.431   9.868 -0.1628  0.2003 -0.2878
  227loPI   C3B 3631  17.088   5.327   9.516 -0.0982 -0.1348  0.0072
  227loPI   C4B 3632  16.822   5.568   9.185  0.1304  0.2288  0.2096
  228loPI    C1 3633   8.330   6.883   9.961 -0.1918  0.2582  0.1497
  228loPI    C2 3634   8.260   6.848  10.354  0.1410 -0.0342  0.1882
  228loPI    C3 3635   8.636   6.853  10.217  0.0254 -0.0732 -0.1398
  228loPI   PO4 3636   7.948   6.679   9.825  0.1929 -0.0608  0.0673
  228loPI   GL1 3637   7.747   6.493   9.495  0.1494  0.2083 -0.1367
  228loPI   GL2 3638   8.013   6.525   9.308  0.2458 -0.3004  0.1704
  228loPI   C1A 3639   7.492   6.393   9.142 -0.0451  0.2512 -0.1703
  228loPI   C2A 3640   7.490   6.280   8.641 -0.0114  0.1064 -0.1424
  228loPI   C3A 3641   7.713   6.020   8.363 -0.0196 -0.4406 -0.0630
  228loPI   C4A 3642   8.051   6.070   8.038 -0.3391 -0.4101 -0.2186
  228loPI   C5A 3643   8.454   6.197   7.875  0.1771 -0.1388  0.1913
  228loPI   C6A 3644   8.872   6.277   7.897  0.0625  0.2717 -0.1190
  228loPI   C1B 3645   7.798   6.735   8.863 -0.2922  0.0948  0.2888
  228loPI   C2B 3646   7.673   6.720   8.506  0.0835  0.1231 -0.2645
  228loPI   C3B 3647   7.628   6.537   8.033  0.1078  0.1308 -0.1320
  228loPI   C4B 3648   7.734   6.210   7.682  0.1920  0.2422 -0.1008
  229loPI    C1 3649   0.964  17.803  10.681 -0.1253  0.1701  0.1049
  229loPI    C2 3650   0.646  17.654  10.872 -0.0019 -0.0312  0.1565
  229loPI    C3 3651   0.976  17.748  11.077  0.0261  0.0324  0.0826
  229loPI   PO4 3652   0.891  17.908  10.445  0.0156  0.0793  0.0496
  229loPI   GL1 3653   0.708  18.007  10.049 -0.0549  0.0381 -0.3296
  229loPI   GL2 3654   0.470  18.168  10.038 -0.1151  0.1828 -0.2069
  229loPI   C1A 3655   0.861  17.993   9.631 -0.0209  0.0507 -0.0842
  229loPI   C2A 3656   1.109  17.663   9.416 -0.2523 -0.1874 -0.0489
  229loPI   C3A 3657   1.316  17.696   9.012 -0.2608 -0.0580  0.0030
  229loPI   C4A 3658   1.412  17.601   8.606  0.2272  0.2153  0.2309
  229loPI   C5A 3659   1.551  17.209   8.426 -0.0532 -0.0771  0.1494
  229loPI   C6A 3660   1.270  17.049   8.183 -0.3934 -0.2805 -0.1797
  229loPI   C1B 3661   0.339  18.190   9.629  0.0974 -0.0638  0.1242
  229loPI   C2B 3662   0.212  18.041   9.282 -0.4320 -0.0563  0.2118
  229loPI   C3B 3663  -0.040  18.031   8.875  0.1703 -0.0079 -0.1652
  229loPI   C4B 3664  -0.271  17.862   8.483  0.2197  0.0386 -0.2483
  230loPI    C1 3665   2.580   0.689  10.551  0.0899 -0.0857 -0.0247
  230loPI    C2 3666   2.888   0.500  10.722  0.0708 -0.1379 -0.0477
  230loPI    C3 3667   2.536   0.314  10.683  0.0517 -0.0973 -0.0699
  230loPI   PO4 3668   2.688   0.739  10.328 -0.1549 -0.0423 -0.1273
  230loPI   GL1 3669   2.630   0.891   9.885  0.1492 -0.1662  0.0301
  230loPI   GL2 3670   2.940   0.849   9.925 -0.1405 -0.0143 -0.1212
  230loPI   C1A 3671   2.527   0.674   9.535  0.3371  0.0011 -0.1744
  230loPI   C2A 3672   2.609   0.695   9.143 -0.3046 -0.2022  0.3233
  230loPI   C3A 3673   2.734   0.789   8.745 -0.1870 -0.0259 -0.0470
  230loPI   C4A 3674   2.813   0.770   8.263 -0.0639 -0.0134  0.0562
  230loPI   C5A 3675   3.148   0.896   8.100 -0.2669 -0.2237 -0.2220
  230loPI   C6A 3676   3.579   0.752   8.068  0.0411  0.0898 -0.1604
  230loPI   C1B 3677   3.020   0.737   9.567 -0.3527 -0.3032  0.2924
  230loPI   C2B 3678   3.126   0.753   9.111 -0.0578 -0.2336 -0.0012
  230loPI   C3B 3679   3.190   0.642   8.592 -0.1750 -0.1143 -0.0175
  230loPI   C4B 3680   3.259   0.389   8.218 -0.0768  0.2775 -0.1479
  231loPI    C1 3681   6.235  14.252  10.420  0.0445 -0.2303 -0.1952
  231loPI    C2 3682   6.447  14.015  10.663  0.0139 -0.2905 -0.2271
  231loPI    C3 3683   6.302  14.362  10.799 -0.0466 -0.3476 -0.1444
  231loPI   PO4 3684   6.129  14.092  10.210  0.2607  0.1432  0.0668
  231loPI   GL1 3685   6.181  14.074   9.792 -0.1255 -0.1203  0.0013
  231loPI   GL2 3686   5.995  14.303   9.692 -0.1490 -0.0889 -0.2274
  231loPI   C1A 3687   6.263  13.783   9.485 -0.0710 -0.1281  0.0764
  231loPI   C2A 3688   6.185  13.638   9.087  0.2562 -0.0102  0.0791
  231loPI   C3A 3689   6.161  13.535   8.715 -0.0136  0.0933 -0.0415
  231loPI   C4A 3690   6.114  13.510   8.301 -0.2208  0.1595 -0.2493
  231loPI   C5A 3691   6.026  13.295   7.868  0.2266 -0.0599  0.0917
  231loPI   C6A 3692   6.359  13.222   7.549  0.0258 -0.0278 -0.0284
  231loPI   C1B 3693   5.825  14.097   9.334  0.3119  0.0303  0.0606
  231loPI   C2B 3694   5.818  13.928   8.896 -0.2313  0.1025 -0.0129
  231loPI   C3B 3695   5.960  13.956   8.443  0.0796 -0.0536  0.0235
  231loPI   C4B 3696   5.856  13.928   7.964  0.4456  0.2286  0.0364
  232loPI    C1 3697   1.224  15.942  10.684  0.0985  0.2246 -0.0184
  232loPI    C2 3698   1.033  16.267  10.550  0.0588  0.2037 -0.0126
  232loPI    C3 3699   1.203  16.270  10.912  0.0637  0.2201 -0.0149
  232loPI   PO4 3700   1.270  15.880  10.385  0.2740  0.0644 -0.0772
  232loPI   GL1 3701   1.089  16.113  10.063  0.0658 -0.1041 -0.0205
  232loPI   GL2 3702   1.324  16.238   9.851  0.0703 -0.1438  0.1592
  232loPI   C1A 3703   1.056  15.860   9.699  0.0795  0.0475 -0.0599
  232loPI   C2A 3704   1.044  15.619   9.351 -0.1924  0.1546 -0.1110
  232loPI   C3A 3705   0.838  15.656   9.002 -0.4786  0.0376 -0.1944
  232loPI   C4A 3706   0.543  15.701   8.689 -0.0531  0.1634 -0.1103
  232loPI   C5A 3707   0.275  15.882   8.464  0.2313 -0.1890 -0.0303
  232loPI   C6A 3708   0.224  16.095   8.138  0.0762 -0.0148  0.1426
  232loPI   C1B 3709   1.180  16.193   9.393 -0.1292  0.0297 -0.4927
  232loPI   C2B 3710   0.976  16.112   8.956 -0.0477 -0.2151 -0.0432
  232loPI   C3B 3711   0.587  16.249   8.705  0.0581 -0.0421 -0.2786
  232loPI   C4B 3712   0.549  16.431   8.283 -0.0634  0.0321 -0.1138
  233loPI    C1 3713   8.001  10.115  10.478  0.0182  0.2868  0.3823
  233loPI    C2 3714   7.827  10.272  10.153  0.4112 -0.3500 -0.1638
  233loPI    C3 3715   7.998  10.512  10.424  0.0207  0.1991 -0.3842
  233loPI   PO4 3716   8.133   9.879  10.336 -0.0293  0.1813  0.1325
  233loPI   GL1 3717   8.364   9.758  10.048  0.0054  0.0453  0.1580
  233loPI   GL2 3718   8.439   9.418   9.939 -0.0720 -0.0166 -0.3421
  233loPI   C1A 3719   8.502   9.931   9.716  0.1364  0.0379  0.1253
  233loPI   C2A 3720   8.385  10.053   9.270 -0.1079  0.1680 -0.0418
  233loPI   C3A 3721   8.126  10.350   8.997  0.0233 -0.0627  0.0806
  233loPI   C4A 3722   7.868  10.372   8.668 -0.0099 -0.0698  0.0273
  233loPI   C5A 3723   7.845  10.282   8.311  0.0222  0.0539  0.0494
  233loPI   C6A 3724   7.796  10.354   7.872 -0.1194 -0.1065 -0.1545
  233loPI   C1B 3725   8.492   9.512   9.471  0.0542  0.2717 -0.0058
  233loPI   C2B 3726   8.518   9.479   9.012  0.0224 -0.0105  0.0157
  233loPI   C3B 3727   8.574   9.617   8.551 -0.1939 -0.0510 -0.1672
  233loPI   C4B 3728   8.687   9.951   8.265 -0.1193 -0.0231 -0.2425
  234loPI    C1 3729  12.110   3.431  10.605 -0.1889 -0.0444 -0.0687
  234loPI    C2 3730  11.735   3.557  10.546 -0.1120  0.2343  0.0211
  234loPI    C3 3731  11.843   3.412  10.902 -0.1459  0.1097 -0.0189
  234loPI   PO4 3732  12.148   3.311  10.339  0.0821  0.2762  0.0287
  234loPI   GL1 3733  12.174   3.292   9.955  0.3959 -0.0977  0.1245
  234loPI   GL2 3734  12.029   3.337   9.638 -0.0838  0.1142 -0.2149
  234loPI   C1A 3735  12.478   3.060   9.816 -0.0843  0.0110 -0.1307
  234loPI   C2A 3736  12.721   2.986   9.575  0.0014  0.1287  0.3338
  234loPI   C3A 3737  12.742   2.999   9.223  0.0503 -0.0544  0.2326
  234loPI   C4A 3738  12.776   2.961   8.741  0.1418 -0.2451  0.1436
  234loPI   C5A 3739  12.759   3.200   8.567 -0.0216 -0.0352 -0.0890
  234loPI   C6A 3740  12.589   3.606   8.344 -0.2857 -0.1046 -0.0752
  234loPI   C1B 3741  12.291   3.310   9.309 -0.2393  0.2363  0.0415
  234loPI   C2B 3742  12.385   3.281   8.854  0.2605 -0.1425 -0.1897
  234loPI   C3B 3743  12.245   3.222   8.400 -0.0950  0.2362  0.2972
  234loPI   C4B 3744  12.185   3.498   8.075 -0.1215  0.3801 -0.1132
  235loPI    C1 3745   0.616   7.757  10.992 -0.1305  0.0200  0.2124
  235loPI    C2 3746   0.918   7.644  10.755 -0.1888 -0.0753  0.1830
  235loPI    C3 3747   0.944   7.984  10.965 -0.0924 -0.0454  0.1229
  235loPI   PO4 3748   0.453   7.669  10.830  0.1077  0.1218 -0.3208
  235loPI   GL1 3749   0.504   7.408  10.484 -0.3472  0.1840  0.3260
  235loPI   GL2 3750   0.178   7.435  10.483 -0.1315  0.2102  0.1008
  235loPI   C1A 3751   0.693   7.622  10.138  0.0338 -0.2671  0.0459
  235loPI   C2A 3752   0.586   7.709   9.676  0.1997 -0.2333  0.0944
  235loPI   C3A 3753   0.564   7.721   9.183  0.0108 -0.0759  0.0147
  235loPI   C4A 3754   0.405   7.920   8.907 -0.0032 -0.0612  0.0288
  235loPI   C5A 3755   0.478   7.953   8.440 -0.1032 -0.0952  0.0460
  235loPI   C6A 3756   0.521   7.983   8.055  0.0528  0.0588  0.1413
  235loPI   C1B 3757   0.201   7.531  10.033 -0.3746  0.0010  0.0874
  235loPI   C2B 3758   0.194   7.348   9.580 -0.3050  0.1407  0.1039
  235loPI   C3B 3759   0.178   7.262   9.109 -0.0523 -0.2056  0.2892
  235loPI   C4B 3760   0.249   7.481   8.811 -0.0639 -0.0823 -0.1587
  236loPI    C1 3761  12.384   3.809  10.643  0.1146 -0.2617 -0.1295
  236loPI    C2 3762  12.042   4.010  10.592  0.3042  0.0431 -0.2190
  236loPI    C3 3763  12.109   3.813  10.934  0.0152 -0.0681 -0.2246
  236loPI   PO4 3764  12.484   3.977  10.404 -0.2596  0.2062 -0.2208
  236loPI   GL1 3765  12.510   4.217   9.995 -0.0171  0.3543 -0.0282
  236loPI   GL2 3766  12.586   4.475   9.954  0.0242 -0.7369  0.1787
  236loPI   C1A 3767  12.657   4.141   9.572 -0.1649  0.0980  0.2130
  236loPI   C2A 3768  12.727   4.132   9.152  0.2919 -0.1978 -0.1934
  236loPI   C3A 3769  12.887   4.174   8.728  0.0823  0.4576 -0.1397
  236loPI   C4A 3770  13.170   4.056   8.423  0.1395  0.1605 -0.0816
  236loPI   C5A 3771  13.599   4.021   8.410  0.1220  0.2601 -0.2075
  236loPI   C6A 3772  13.914   3.914   8.239 -0.1506 -0.3023 -0.3003
  236loPI   C1B 3773  12.599   4.643   9.515 -0.0641  0.0753  0.0970
  236loPI   C2B 3774  12.731   4.609   9.008  0.2708  0.0864  0.3217
  236loPI   C3B 3775  12.871   4.641   8.535 -0.1395 -0.1524 -0.1686
  236loPI   C4B 3776  13.227   4.565   8.226 -0.3190  0.0521 -0.0556
  237loPI    C1 3777   2.591   5.184  10.937 -0.2887  0.1468 -0.0511
  237loPI    C2 3778   2.221   5.301  11.031 -0.2602  0.0553  0.1808
  237loPI    C3 3779   2.396   5.007  11.237 -0.0575  0.0991  0.0734
  237loPI   PO4 3780   2.573   5.156  10.655  0.3585 -0.0770 -0.0444
  237loPI   GL1 3781   2.345   4.986  10.268  0.0616  0.3064  0.3751
  237loPI   GL2 3782   2.288   4.709  10.229  0.0550 -0.3142  0.0763
  237loPI   C1A 3783   2.437   5.241   9.833 -0.1154  0.1042  0.1550
  237loPI   C2A 3784   2.584   5.013   9.393 -0.1665 -0.2567 -0.4098
  237loPI   C3A 3785   2.320   5.085   9.057 -0.0648 -0.2910 -0.0398
  237loPI   C4A 3786   2.144   5.178   8.733  0.2268  0.1860 -0.2650
  237loPI   C5A 3787   2.039   5.392   8.388  0.2461  0.0557 -0.0050
  237loPI   C6A 3788   1.758   5.679   8.070  0.0810 -0.0536 -0.2237
  237loPI   C1B 3789   2.232   4.684   9.768 -0.2722  0.0720 -0.0599
  237loPI   C2B 3790   2.136   4.669   9.337 -0.2642  0.4610  0.0705
  237loPI   C3B 3791   1.979   4.725   8.912  0.3079 -0.0747 -0.0455
  237loPI   C4B 3792   1.690   4.797   8.512  0.0801 -0.1985  0.4470
  238loPI    C1 3793   4.366   7.457  10.302 -0.0220  0.1524  0.0585
  238loPI    C2 3794   4.758   7.377  10.300 -0.0666 -0.0821  0.2370
  238loPI    C3 3795   4.629   7.740  10.406  0.1314  0.2015 -0.4391
  238loPI   PO4 3796   4.301   7.399  10.054  0.0133  0.4419 -0.1454
  238loPI   GL1 3797   4.149   7.739   9.822  0.0225 -0.2818  0.3168
  238loPI   GL2 3798   3.823   7.795   9.529  0.0431 -0.4371 -0.4173
  238loPI   C1A 3799   4.213   7.513   9.460 -0.3309  0.2026  0.1445
  238loPI   C2A 3800   4.421   7.287   9.137 -0.0310 -0.0501 -0.0066
  238loPI   C3A 3801   4.345   7.278   8.788  0.0162  0.1395  0.0822
  238loPI   C4A 3802   4.496   7.097   8.403  0.1481  0.1564  0.3069
  238loPI   C5A 3803   4.836   6.983   8.027  0.2465  0.1954  0.1565
  238loPI   C6A 3804   5.200   6.815   8.027 -0.0329  0.0731 -0.2820
  238loPI   C1B 3805   4.033   7.859   9.106 -0.0207  0.1727 -0.0669
  238loPI   C2B 3806   4.144   7.834   8.660  0.0414  0.1866  0.3433
  238loPI   C3B 3807   4.427   7.884   8.390 -0.1608 -0.1726  0.2267
  238loPI   C4B 3808   4.527   7.745   8.060 -0.0078  0.2066  0.0199
  239loPI    C1 3809   4.722  10.045  10.279 -0.1508 -0.0111 -0.2037
  239loPI    C2 3810   5.029  10.200  10.483 -0.3393  0.2719 -0.1295
  239loPI    C3 3811   4.859   9.860  10.606 -0.2136  0.2442 -0.0301
  239loPI   PO4 3812   4.734  10.044  10.037 -0.0759 -0.1377 -0.0322
  239loPI   GL1 3813   4.714  10.341   9.695 -0.1993 -0.1759 -0.0290
  239loPI   GL2 3814   4.348  10.362   9.746 -0.1986 -0.0529  0.0145
  239loPI   C1A 3815   4.574  10.042   9.455 -0.1038 -0.0856  0.3924
  239loPI   C2A 3816   4.609   9.951   8.987  0.1140 -0.2139  0.2443
  239loPI   C3A 3817   4.617   9.873   8.430  0.1319 -0.1788  0.1172
  239loPI   C4A 3818   4.491   9.704   8.097 -0.0475  0.0206  0.0611
  239loPI   C5A 3819   4.727   9.696   7.755  0.1088 -0.1944 -0.1791
  239loPI   C6A 3820   4.655   9.386   7.372  0.0715 -0.4586 -0.2151
  239loPI   C1B 3821   4.412  10.517   9.334  0.3642 -0.0122  0.1481
  239loPI   C2B 3822   4.519  10.516   9.015 -0.2783 -0.0761  0.0933
  239loPI   C3B 3823   4.495  10.410   8.577  0.1110  0.4281  0.1588
  239loPI   C4B 3824   4.595  10.583   8.146  0.2596  0.3011 -0.0835
  240loPI    C1 3825   7.156   4.976  10.269 -0.0859 -0.0137 -0.1009
  240loPI    C2 3826   6.785   5.094  10.177 -0.0662  0.0187 -0.1388
  240loPI    C3 3827   7.077   5.365  10.219 -0.0378 -0.0101 -0.1497
  240loPI   PO4 3828   7.193   4.859  10.082  0.0018 -0.2851  0.0426
  240loPI   GL1 3829   7.073   4.843   9.760  0.5127  0.2000 -0.1636
  240loPI   GL2 3830   6.828   5.076   9.694 -0.1803 -0.1201 -0.0988
  240loPI   C1A 3831   7.123   4.700   9.362  0.0170 -0.1682  0.0256
  240loPI   C2A 3832   7.263   4.864   8.975 -0.1518 -0.3372 -0.0510
  240loPI   C3A 3833   7.297   4.806   8.607  0.1786  0.1336  0.0681
  240loPI   C4A 3834   7.278   4.612   8.238 -0.0411 -0.0970 -0.0411
  240loPI   C5A 3835   7.181   4.631   7.759 -0.0952  0.1118 -0.0105
  240loPI   C6A 3836   7.089   5.117   7.583 -0.0608 -0.0823  0.0886
  240loPI   C1B 3837   6.766   4.998   9.193 -0.0370 -0.0465 -0.0247
  240loPI   C2B 3838   6.820   4.990   8.708  0.1392  0.1347  0.0950
  240loPI   C3B 3839   6.750   4.781   8.402 -0.0235 -0.0553  0.1123
  240loPI   C4B 3840   6.752   4.848   8.006  0.1388 -0.0409 -0.2114
  241loPI    C1 3841   4.011  11.483  10.350  0.0162 -0.0979  0.1161
  241loPI    C2 3842   4.356  11.366  10.184  0.0635 -0.1069  0.2203
  241loPI    C3 3843   4.347  11.484  10.566 -0.0259  0.0142  0.1816
  241loPI   PO4 3844   3.836  11.326  10.264  0.1130  0.1929  0.0379
  241loPI   GL1 3845   3.479  11.318  10.151 -0.1758  0.2469  0.1618
  241loPI   GL2 3846   3.250  11.400  10.159  0.2477 -0.0254 -0.0679
  241loPI   C1A 3847   3.586  11.076   9.726 -0.4083 -0.1850  0.2013
  241loPI   C2A 3848   3.596  11.301   9.219  0.1661 -0.3827 -0.0203
  241loPI   C3A 3849   3.313  11.317   8.881  0.1147 -0.0885 -0.3446
  241loPI   C4A 3850   2.951  11.552   8.848  0.0769  0.2909 -0.0674
  241loPI   C5A 3851   2.839  11.674   8.423 -0.0187 -0.1205  0.2031
  241loPI   C6A 3852   2.847  11.550   7.937 -0.2168 -0.1659  0.0089
  241loPI   C1B 3853   3.260  11.519   9.770 -0.0269  0.1322 -0.0729
  241loPI   C2B 3854   3.185  11.592   9.254  0.0834 -0.0954 -0.1071
  241loPI   C3B 3855   3.525  11.833   9.045  0.3619 -0.1549 -0.2196
  241loPI   C4B 3856   3.736  11.703   8.691 -0.0177 -0.0697  0.0779
  242loPI    C1 3857   5.091   0.001  10.570  0.3087 -0.0622  0.3048
  242loPI    C2 3858   5.355   0.055  10.275  0.1719 -0.2324  0.1488
  242loPI    C3 3859   5.272   0.355  10.526  0.1994 -0.0470 -0.0601
  242loPI   PO4 3860   4.892  -0.144  10.490  0.2016 -0.0703  0.1032
  242loPI   GL1 3861   4.800  -0.436  10.191 -0.1991 -0.1543  0.0461
  242loPI   GL2 3862   4.636  -0.334   9.928 -0.2453  0.1492 -0.2524
  242loPI   C1A 3863   5.148  -0.370   9.893 -0.1247  0.2511 -0.1686
  242loPI   C2A 3864   5.175  -0.614   9.480  0.3150 -0.2991 -0.0675
  242loPI   C3A 3865   5.195  -0.694   9.063  0.1083 -0.0376 -0.1295
  242loPI   C4A 3866   5.127  -0.763   8.633 -0.0340 -0.0397 -0.1037
  242loPI   C5A 3867   5.033  -0.816   8.252 -0.1140  0.0361 -0.1203
  242loPI   C6A 3868   5.299  -0.961   8.052 -0.3472 -0.0485 -0.2726
  242loPI   C1B 3869   4.838  -0.241   9.475 -0.1515  0.1523  0.2829
  242loPI   C2B 3870   4.876  -0.340   9.112 -0.0363  0.2409 -0.1483
  242loPI   C3B 3871   4.673  -0.322   8.754  0.1973  0.2109  0.0438
  242loPI   C4B 3872   4.748  -0.369   8.401 -0.1216 -0.1126  0.0240
  243loPI    C1 3873   3.745  17.568  11.048  0.0749 -0.1412 -0.1741
  243loPI    C2 3874   3.797  17.249  11.283 -0.1550 -0.1487 -0.1315
  243loPI    C3 3875   3.624  17.579  11.429  0.0921  0.0016 -0.1721
  243loPI   PO4 3876   3.677  17.407  10.818 -0.1564  0.0467 -0.0792
  243loPI   GL1 3877   3.533  17.560  10.378  0.0607  0.2384  0.1890
  243loPI   GL2 3878   3.343  17.455  10.154 -0.0973  0.1584  0.2026
  243loPI   C1A 3879   3.600  17.778   9.913  0.2968  0.0986  0.3097
  243loPI   C2A 3880   3.633  17.774   9.441 -0.0149  0.1975  0.3135
  243loPI   C3A 3881   3.683  17.773   8.960 -0.2379 -0.2811  0.0172
  243loPI   C4A 3882   3.469  17.838   8.589  0.3134 -0.1455 -0.1014
  243loPI   C5A 3883   3.467  17.883   8.204 -0.2094 -0.0532 -0.1728
  243loPI   C6A 3884   3.788  17.599   8.076  0.1910 -0.2755 -0.1030
  243loPI   C1B 3885   3.262  17.420   9.773  0.2706  0.1492  0.1626
  243loPI   C2B 3886   3.201  17.496   9.331  0.0076 -0.0401  0.2341
  243loPI   C3B 3887   3.345  17.427   8.849  0.1642  0.1182  0.2783
  243loPI   C4B 3888   3.338  17.381   8.299  0.0435 -0.1464  0.2987
  244loPI    C1 3889   5.383  13.314  10.281 -0.2207  0.0641 -0.1252
  244loPI    C2 3890   5.132  13.020  10.180  0.1439 -0.3125  0.0387
  244loPI    C3 3891   5.239  13.069  10.563  0.0372  0.0781  0.0219
  244loPI   PO4 3892   5.526  13.344  10.079 -0.3103  0.2733  0.2185
  244loPI   GL1 3893   5.781  13.267   9.679  0.0198  0.1253 -0.1266
  244loPI   GL2 3894   6.125  13.269   9.596  0.0623  0.2566 -0.0510
  244loPI   C1A 3895   5.699  13.523   9.431 -0.6260 -0.1770 -0.0211
  244loPI   C2A 3896   5.600  13.487   9.049  0.0638  0.0321  0.2140
  244loPI   C3A 3897   5.673  13.392   8.786  0.1433 -0.0953  0.1811
  244loPI   C4A 3898   5.704  13.088   8.408  0.0252 -0.2837  0.2392
  244loPI   C5A 3899   5.689  12.969   7.976  0.1295  0.0465  0.0505
  244loPI   C6A 3900   5.945  12.876   7.612 -0.1575 -0.0074 -0.1209
  244loPI   C1B 3901   5.983  13.170   9.209  0.1888  0.0250  0.0073
  244loPI   C2B 3902   6.023  13.027   8.856 -0.1070 -0.5245  0.2836
  244loPI   C3B 3903   6.133  12.774   8.475  0.3131  0.0957 -0.0788
  244loPI   C4B 3904   6.237  12.853   8.043 -0.1089  0.1094  0.1675
  245loPI    C1 3905  15.809   9.243  10.988  0.0811  0.1623  0.1594
  245loPI    C2 3906  15.754   9.483  11.303 -0.1489  0.0835  0.1811
  245loPI    C3 3907  15.617   9.107  11.312  0.1116 -0.0155  0.1040
  245loPI   PO4 3908  15.765   9.433  10.785 -0.2583  0.0054 -0.0161
  245loPI   GL1 3909  15.586   9.577  10.457  0.0755  0.1536  0.0840
  245loPI   GL2 3910  15.510   9.768  10.212 -0.1199  0.1496 -0.4046
  245loPI   C1A 3911  15.881   9.336  10.089  0.1504 -0.0165  0.0166
  245loPI   C2A 3912  15.959   9.368   9.668  0.0970  0.0397  0.0943
  245loPI   C3A 3913  15.917   9.091   9.223  0.3141  0.0131 -0.1817
  245loPI   C4A 3914  16.145   8.918   8.840 -0.2142 -0.1956  0.4083
  245loPI   C5A 3915  16.311   9.052   8.371 -0.1862 -0.0403 -0.1284
  245loPI   C6A 3916  16.316   8.964   7.926  0.3448 -0.0496 -0.2632
  245loPI   C1B 3917  15.530   9.567   9.831  0.1357  0.1763 -0.0930
  245loPI   C2B 3918  15.539   9.372   9.489  0.2872  0.2445 -0.0003
  245loPI   C3B 3919  15.529   9.352   9.035  0.2082  0.1023  0.0455
  245loPI   C4B 3920  15.822   9.237   8.740  0.4494 -0.0972 -0.1318
  246loPI    C1 3921   2.772   6.143  10.524 -0.1291 -0.0294 -0.2663
  246loPI    C2 3922   3.161   6.146  10.431 -0.1017  0.1138 -0.1513
  246loPI    C3 3923   2.950   5.807  10.400  0.0480  0.0192 -0.1475
  246loPI   PO4 3924   2.605   6.390  10.409 -0.1205 -0.0515 -0.2700
  246loPI   GL1 3925   2.530   6.392  10.040  0.0698 -0.3804 -0.0459
  246loPI   GL2 3926   2.839   6.164  10.005 -0.1410 -0.2264 -0.1555
  246loPI   C1A 3927   2.432   6.171   9.638  0.0647 -0.4033  0.0002
  246loPI   C2A 3928   2.420   6.099   9.160  0.1306 -0.0254  0.1470
  246loPI   C3A 3929   2.574   6.095   8.723  0.1242 -0.0615  0.1657
  246loPI   C4A 3930   2.678   6.365   8.344  0.0583 -0.2234  0.0977
  246loPI   C5A 3931   2.663   6.630   8.069 -0.2258  0.0572 -0.0350
  246loPI   C6A 3932   2.511   7.075   8.203  0.0226  0.0680  0.0674
  246loPI   C1B 3933   2.853   6.261   9.552 -0.1181  0.1264 -0.0926
  246loPI   C2B 3934   2.888   6.356   9.156  0.2116 -0.0224  0.3221
  246loPI   C3B 3935   2.810   6.545   8.773 -0.2842 -0.0019  0.0177
  246loPI   C4B 3936   2.831   6.853   8.515  0.1875  0.3875 -0.3441
  247loPI    C1 3937  18.140  10.751  10.996 -0.2672 -0.1392 -0.1110
  247loPI    C2 3938  18.391  10.785  11.305  0.0022 -0.1429 -0.3258
  247loPI    C3 3939  18.106  10.504  11.309 -0.1870  0.0468  0.0467
  247loPI   PO4 3940  18.195  10.953  10.819  0.2498  0.3945 -0.2084
  247loPI   GL1 3941  17.983  11.311  10.752  0.0735 -0.0023  0.2804
  247loPI   GL2 3942  18.195  11.253  10.395 -0.2463  0.0877 -0.1748
  247loPI   C1A 3943  17.877  11.579  10.403  0.1712 -0.0510 -0.2511
  247loPI   C2A 3944  17.523  11.526  10.068  0.0310  0.1089 -0.1724
  247loPI   C3A 3945  17.522  11.254   9.626 -0.2368  0.1029  0.2044
  247loPI   C4A 3946  17.489  11.121   9.142 -0.2179  0.1163 -0.0833
  247loPI   C5A 3947  17.666  11.058   8.677 -0.1185 -0.0751 -0.3607
  247loPI   C6A 3948  18.088  11.034   8.652  0.2175 -0.2569 -0.2728
  247loPI   C1B 3949  18.058  11.145   9.959  0.0414 -0.2598 -0.0152
  247loPI   C2B 3950  17.927  10.972   9.600  0.0360 -0.0399 -0.0035
  247loPI   C3B 3951  18.098  10.603   9.444  0.0538  0.1139 -0.2325
  247loPI   C4B 3952  17.999  10.294   9.206  0.1309 -0.0671  0.0238
  248loPI    C1 3953  13.840  16.201  10.622 -0.1191 -0.0732 -0.1485
  248loPI    C2 3954  13.493  16.375  10.525 -0.0609  0.1324  0.0057
  248loPI    C3 3955  13.567  16.272  10.905 -0.0471 -0.1260 -0.0653
  248loPI   PO4 3956  13.939  16.024  10.337 -0.2271 -0.0159  0.0727
  248loPI   GL1 3957  13.980  16.184   9.873  0.0281 -0.0602 -0.3958
  248loPI   GL2 3958  13.775  16.001   9.719  0.4428 -0.0841  0.0964
  248loPI   C1A 3959  14.278  16.298   9.660  0.0657  0.1131 -0.0981
  248loPI   C2A 3960  14.428  16.365   9.219 -0.0933  0.0263  0.0298
  248loPI   C3A 3961  14.589  16.371   8.810 -0.1511 -0.0408  0.0520
  248loPI   C4A 3962  14.714  16.217   8.472 -0.0573 -0.1724  0.2057
  248loPI   C5A 3963  14.818  15.974   8.026 -0.0855  0.3171  0.1201
  248loPI   C6A 3964  14.882  15.719   7.704  0.2143  0.2122  0.0906
  248loPI   C1B 3965  13.982  16.000   9.383 -0.0772 -0.1412  0.2503
  248loPI   C2B 3966  14.215  15.871   8.958  0.0431  0.2533  0.0570
  248loPI   C3B 3967  14.440  15.793   8.608 -0.0617 -0.1075  0.0989
  248loPI   C4B 3968  14.433  15.546   8.277 -0.1161 -0.0898  0.0584
  249loPI    C1 3969   0.728   8.859  11.183 -0.0914 -0.0647 -0.0038
  249loPI    C2 3970   0.705   8.810  11.579  0.1424 -0.1049  0.0066
  249loPI    C3 3971   0.961   9.076  11.425 -0.1384  0.1038 -0.1079
  249loPI   PO4 3972   0.480   8.767  11.122  0.0475 -0.0874 -0.2221
  249loPI   GL1 3973   0.384   8.680  10.677  0.0245 -0.0402  0.0910
  249loPI   GL2 3974   0.202   8.505  10.335 -0.0319  0.0921  0.0192
  249loPI   C1A 3975   0.347   8.953  10.283  0.2275  0.0621 -0.1152
  249loPI   C2A 3976   0.303   8.866   9.873 -0.2951 -0.0741  0.0746
  249loPI   C3A 3977   0.186   8.829   9.378 -0.0734 -0.1532  0.2581
  249loPI   C4A 3978   0.326   8.695   8.947  0.0001  0.1333 -0.3938
  249loPI   C5A 3979   0.514   8.403   8.675  0.2169  0.0933 -0.0051
  249loPI   C6A 3980   0.594   8.387   8.286 -0.4729  0.1499 -0.0586
  249loPI   C1B 3981   0.093   8.454   9.908  0.0911 -0.1872 -0.0743
  249loPI   C2B 3982   0.140   8.317   9.500  0.0877  0.1438 -0.1639
  249loPI   C3B 3983   0.025   8.032   9.310 -0.0519 -0.1538  0.0118
  249loPI   C4B 3984  -0.068   7.676   9.241 -0.0548 -0.1231 -0.0201
  250loPI    C1 3985  13.934   1.770  11.174  0.1820 -0.0531 -0.0978
  250loPI    C2 3986  14.089   1.585  11.493  0.0750 -0.0053 -0.0172
  250loPI    C3 3987  13.708   1.708  11.499  0.1822  0.3384 -0.0175
  250loPI   PO4 3988  14.027   1.655  10.944 -0.0034 -0.0627 -0.0057
  250loPI   GL1 3989  14.057   1.607  10.488  0.1427 -0.0987 -0.1129
  250loPI   GL2 3990  13.778   1.654  10.270 -0.2069  0.1742 -0.2382
  250loPI   C1A 3991  14.240   1.815  10.085 -0.1826 -0.1428  0.2612
  250loPI   C2A 3992  14.329   1.817   9.695 -0.0118 -0.1741  0.2376
  250loPI   C3A 3993  14.460   1.800   9.281  0.2433  0.0058 -0.0156
  250loPI   C4A 3994  14.834   1.896   9.082  0.0305 -0.0771 -0.0458
  250loPI   C5A 3995  14.918   1.657   8.634  0.0811  0.3805 -0.0763
  250loPI   C6A 3996  14.821   1.527   8.141  0.0256 -0.1721  0.2869
  250loPI   C1B 3997  13.883   1.564   9.882  0.1000  0.1264 -0.1281
  250loPI   C2B 3998  13.922   1.593   9.467  0.0476  0.1231 -0.4853
  250loPI   C3B 3999  13.987   1.603   9.079 -0.1381  0.1215 -0.1017
  250loPI   C4B 4000  14.312   1.795   8.804 -0.2413  0.0628  0.2209
  251loPI    C1 4001   3.154   9.950  10.891 -0.0741 -0.0214 -0.3286
  251loPI    C2 4002   2.844  10.067  11.114  0.0832  0.1281 -0.1852
  251loPI    C3 4003   3.074   9.763  11.235  0.0472  0.0764 -0.2461
  251loPI   PO4 4004   3.095   9.860  10.599  0.1498  0.0482  0.0533
  251loPI   GL1 4005   2.981  10.061  10.194  0.0657 -0.0384  0.2184
  251loPI   GL2 4006   3.210  10.231  10.152 -0.0377 -0.0466 -0.3325
  251loPI   C1A 4007   2.923  10.040   9.793  0.0803  0.1660 -0.0109
  251loPI   C2A 4008   3.048  10.292   9.436 -0.0800  0.2156 -0.1804
  251loPI   C3A 4009   3.075  10.350   8.978 -0.0187  0.1006  0.0946
  251loPI   C4A 4010   3.041  10.710   8.637  0.0397 -0.1887  0.0961
  251loPI   C5A 4011   3.344  10.928   8.417 -0.1436  0.2777  0.0218
  251loPI   C6A 4012   3.611  11.265   8.439  0.2499  0.3333 -0.1682
  251loPI   C1B 4013   3.371  10.566   9.793  0.2144  0.4580 -0.3551
  251loPI   C2B 4014   3.343  10.825   9.380 -0.0449 -0.2097 -0.1731
  251loPI   C3B 4015   3.428  10.828   8.943  0.1243  0.1555  0.0056
  251loPI   C4B 4016   3.798  10.921   8.825 -0.0216  0.0625  0.3827
  252loPI    C1 4017   8.047  13.668  10.592  0.1458 -0.3217 -0.1922
  252loPI    C2 4018   7.945  13.500  10.941 -0.0513 -0.0304 -0.1052
  252loPI    C3 4019   8.263  13.743  10.921 -0.0539 -0.0283 -0.1236
  252loPI   PO4 4020   7.832  13.853  10.513  0.0155 -0.1569 -0.3610
  252loPI   GL1 4021   7.762  13.933  10.093  0.1065  0.2856 -0.0326
  252loPI   GL2 4022   7.970  14.209  10.009 -0.0419 -0.0877  0.3342
  252loPI   C1A 4023   7.762  13.735   9.686  0.0861 -0.0947 -0.3134
  252loPI   C2A 4024   7.683  13.496   9.266  0.0690  0.2332 -0.0339
  252loPI   C3A 4025   7.544  13.536   8.849  0.1366 -0.1178  0.0563
  252loPI   C4A 4026   7.437  13.553   8.333 -0.0925 -0.2143  0.3933
  252loPI   C5A 4027   7.399  13.419   7.814 -0.0144 -0.0429 -0.2003
  252loPI   C6A 4028   7.268  12.984   7.581 -0.0634  0.1848  0.1313
  252loPI   C1B 4029   8.067  14.095   9.581 -0.0322  0.0783 -0.4844
  252loPI   C2B 4030   8.037  14.186   9.126 -0.0544 -0.0486  0.0287
  252loPI   C3B 4031   7.970  14.256   8.720 -0.0218  0.1191  0.0746
  252loPI   C4B 4032   8.037  14.260   8.232  0.1208 -0.1600  0.3311
  253loPI    C1 4033  15.615  15.398  10.720 -0.1339  0.1375  0.0347
  253loPI    C2 4034  15.598  15.093  10.462  0.0545 -0.1297  0.3307
  253loPI    C3 4035  15.393  15.077  10.805  0.0038  0.1130  0.3139
  253loPI   PO4 4036  15.849  15.504  10.723 -0.0833  0.0714 -0.0211
  253loPI   GL1 4037  16.044  15.567  10.343 -0.1623 -0.0668 -0.1272
  253loPI   GL2 4038  15.882  15.312  10.100 -0.1411  0.1204 -0.0259
  253loPI   C1A 4039  16.305  15.623   9.930 -0.1313 -0.0020 -0.1733
  253loPI   C2A 4040  16.311  15.813   9.466  0.0643 -0.1301  0.1594
  253loPI   C3A 4041  16.300  15.929   9.051 -0.0528 -0.2099  0.0039
  253loPI   C4A 4042  16.487  15.956   8.638  0.0711 -0.3281  0.1074
  253loPI   C5A 4043  16.442  16.337   8.389  0.0331 -0.1858  0.1249
  253loPI   C6A 4044  16.243  16.619   8.260 -0.0636  0.1429 -0.1328
  253loPI   C1B 4045  15.976  15.334   9.603  0.0988 -0.4106 -0.0447
  253loPI   C2B 4046  16.114  15.481   9.188  0.2460  0.0624 -0.0366
  253loPI   C3B 4047  15.983  15.725   8.760  0.1991  0.0511  0.6163
  253loPI   C4B 4048  16.001  16.033   8.361  0.2744  0.4093  0.1894
  254loPI    C1 4049   3.105   1.581  10.691  0.0353  0.2133 -0.2484
  254loPI    C2 4050   2.729   1.718  10.716  0.0556  0.2686 -0.2441
  254loPI    C3 4051   2.885   1.506  11.017 -0.0188  0.1266 -0.3043
  254loPI   PO4 4052   3.108   1.510  10.450  0.0528 -0.0257 -0.1402
  254loPI   GL1 4053   3.160   1.194  10.242  0.0548  0.1370 -0.0129
  254loPI   GL2 4054   3.422   1.385  10.059  0.1121  0.0856 -0.1410
  254loPI   C1A 4055   3.012   1.317   9.748 -0.0529  0.0102 -0.1868
  254loPI   C2A 4056   3.078   1.280   9.255  0.1527 -0.1647  0.2413
  254loPI   C3A 4057   3.224   1.248   8.895  0.1328 -0.3860  0.2286
  254loPI   C4A 4058   3.349   1.121   8.481  0.0976  0.0387 -0.1623
  254loPI   C5A 4059   3.479   1.411   8.090 -0.1086  0.0811 -0.1091
  254loPI   C6A 4060   3.506   1.458   7.591  0.4199 -0.0260 -0.0535
  254loPI   C1B 4061   3.442   1.490   9.642 -0.3435 -0.1327  0.0477
  254loPI   C2B 4062   3.552   1.509   9.111  0.1359  0.2022 -0.4090
  254loPI   C3B 4063   3.746   1.322   8.872 -0.4489  0.1194 -0.0157
  254loPI   C4B 4064   3.875   1.228   8.455  0.0249  0.2341 -0.0370
  255loPI    C1 4065  12.344  14.354  10.770 -0.1317 -0.3957  0.0190
  255loPI    C2 4066  11.945  14.367  10.742 -0.1264  0.1938  0.1022
  255loPI    C3 4067  12.119  14.349  11.101 -0.0757 -0.3952  0.0570
  255loPI   PO4 4068  12.378  14.152  10.532  0.1554 -0.5147 -0.0703
  255loPI   GL1 4069  12.422  13.979  10.091 -0.3171  0.0259  0.2798
  255loPI   GL2 4070  12.497  14.265   9.850  0.0961 -0.3401  0.2025
  255loPI   C1A 4071  12.483  13.735   9.731  0.1467  0.0953 -0.1307
  255loPI   C2A 4072  12.519  13.734   9.368  0.0636 -0.1017  0.3683
  255loPI   C3A 4073  12.705  13.764   8.995 -0.1448  0.0576 -0.3518
  255loPI   C4A 4074  12.897  13.779   8.680  0.0676  0.1647 -0.2042
  255loPI   C5A 4075  13.171  14.045   8.540 -0.3083  0.0029 -0.1446
  255loPI   C6A 4076  13.578  14.129   8.325 -0.1030  0.0321  0.0017
  255loPI   C1B 4077  12.370  14.213   9.437 -0.1109 -0.2143  0.0198
  255loPI   C2B 4078  12.455  14.560   9.095  0.1861 -0.3192  0.2954
  255loPI   C3B 4079  12.390  14.905   8.778 -0.2549 -0.2348  0.1641
  255loPI   C4B 4080  12.113  15.077   8.539 -0.1760 -0.0282 -0.0209
  256loPI    C1 4081  18.117   1.782  10.806  0.0203 -0.0881 -0.1933
  256loPI    C2 4082  17.876   1.646  11.095 -0.0203  0.3876  0.0070
  256loPI    C3 4083  17.820   1.530  10.717  0.0314 -0.2403  0.1802
  256loPI   PO4 4084  18.180   1.999  10.874  0.0732  0.2101  0.1207
  256loPI   GL1 4085  18.069   2.310  10.666 -0.4402 -0.0169 -0.0922
  256loPI   GL2 4086  18.322   2.165  10.400  0.1588 -0.2962  0.2168
  256loPI   C1A 4087  17.941   2.427  10.247 -0.1009  0.2609  0.2909
  256loPI   C2A 4088  17.766   2.372   9.867  0.1491  0.3969  0.1073
  256loPI   C3A 4089  17.746   2.351   9.358 -0.1499  0.0839  0.1223
  256loPI   C4A 4090  17.668   2.307   8.887 -0.0801  0.0050 -0.2086
  256loPI   C5A 4091  17.458   2.416   8.566  0.0862  0.4640 -0.1520
  256loPI   C6A 4092  16.956   2.446   8.293  0.1602 -0.1919 -0.2029
  256loPI   C1B 4093  18.294   2.400   9.909 -0.0450 -0.0272  0.2690
  256loPI   C2B 4094  18.236   2.419   9.444  0.0818 -0.0119  0.0768
  256loPI   C3B 4095  18.213   2.361   9.037  0.1200  0.0198  0.0644
  256loPI   C4B 4096  18.138   2.583   8.682  0.2579 -0.0072 -0.2068
  257loPI    C1 4097   7.285  17.587  10.842 -0.1881  0.1521 -0.2615
  257loPI    C2 4098   6.918  17.456  10.934 -0.1731  0.2245 -0.0953
  257loPI    C3 4099   7.184  17.526  11.225  0.0551 -0.0642 -0.2294
  257loPI   PO4 4100   7.201  17.885  10.655  0.2414 -0.1304  0.1131
  257loPI   GL1 4101   7.386  17.878  10.311 -0.0204  0.2084 -0.0245
  257loPI   GL2 4102   7.581  17.665  10.008  0.1380 -0.0033 -0.3606
  257loPI   C1A 4103   7.112  17.885   9.997 -0.0013  0.0646  0.1326
  257loPI   C2A 4104   6.866  17.984   9.682 -0.1016 -0.1532 -0.0124
  257loPI   C3A 4105   6.695  17.969   9.283  0.1492 -0.1396  0.1095
  257loPI   C4A 4106   6.631  17.883   8.822  0.0155 -0.0357 -0.4761
  257loPI   C5A 4107   6.672  17.841   8.368 -0.0580  0.0726 -0.0079
  257loPI   C6A 4108   6.846  17.789   8.141  0.5009 -0.3947 -0.2532
  257loPI   C1B 4109   7.639  17.818   9.563 -0.2320  0.0096  0.0929
  257loPI   C2B 4110   7.714  17.802   9.069  0.0855  0.2146  0.1283
  257loPI   C3B 4111   7.729  17.922   8.634 -0.1743 -0.3756  0.0049
  257loPI   C4B 4112   7.641  17.829   8.207  0.1194  0.1203  0.0273
  258loPI    C1 4113   5.447  17.435  10.629  0.0740 -0.0614 -0.0221
  258loPI    C2 4114   5.232  17.640  10.360 -0.1726 -0.2297  0.0440
  258loPI    C3 4115   5.481  17.833  10.606 -0.1915 -0.0404 -0.0839
  258loPI   PO4 4116   5.517  17.254  10.476  0.0724 -0.4859  0.0304
  258loPI   GL1 4117   5.555  17.155  10.028  0.1507 -0.3437  0.3597
  258loPI   GL2 4118   5.354  17.357   9.914 -0.0593 -0.0575  0.1769
  258loPI   C1A 4119   5.666  17.117   9.537  0.2037  0.0299  0.1672
  258loPI   C2A 4120   5.581  17.102   9.141 -0.2413 -0.1242  0.4517
  258loPI   C3A 4121   5.555  17.167   8.681  0.0175 -0.2193 -0.3866
  258loPI   C4A 4122   5.731  17.441   8.312  0.0331 -0.0349 -0.0524
  258loPI   C5A 4123   5.926  17.392   7.902 -0.0570  0.1218 -0.0871
  258loPI   C6A 4124   6.308  17.445   7.821  0.1956  0.0277  0.1905
  258loPI   C1B 4125   5.171  17.095   9.637 -0.3233  0.1247  0.1296
  258loPI   C2B 4126   5.124  16.947   9.205 -0.0258 -0.1544 -0.1243
  258loPI   C3B 4127   5.164  16.844   8.777  0.0353 -0.3120 -0.0193
  258loPI   C4B 4128   5.131  16.895   8.431 -0.0732 -0.0157 -0.1948
  259loPI    C1 4129   6.592   3.017  10.637 -0.0691 -0.1318 -0.1392
  259loPI    C2 4130   6.314   2.766  10.776  0.1047 -0.2246  0.0470
  259loPI    C3 4131   6.532   2.984  11.031 -0.0951  0.1754 -0.1152
  259loPI   PO4 4132   6.681   2.963  10.457  0.4369  0.0001 -0.0561
  259loPI   GL1 4133   6.520   3.093   9.981 -0.0652  0.2026  0.1469
  259loPI   GL2 4134   6.613   2.730   9.975  0.0543 -0.2980  0.1793
  259loPI   C1A 4135   6.396   3.019   9.581 -0.1333 -0.1636  0.3349
  259loPI   C2A 4136   6.289   3.122   9.240  0.2788 -0.0785 -0.1081
  259loPI   C3A 4137   6.256   3.224   8.807 -0.0642  0.5831  0.0939
  259loPI   C4A 4138   6.455   3.314   8.465  0.1880 -0.2898 -0.3015
  259loPI   C5A 4139   6.412   3.232   8.111  0.1441  0.1424 -0.2362
  259loPI   C6A 4140   6.341   3.315   7.679  0.0868  0.0655 -0.0577
  259loPI   C1B 4141   6.571   2.571   9.645  0.0280 -0.0423 -0.2345
  259loPI   C2B 4142   6.315   2.511   9.293 -0.0226 -0.0996  0.1081
  259loPI   C3B 4143   6.272   2.282   8.919 -0.0297  0.0922  0.0794
  259loPI   C4B 4144   6.318   2.082   8.610  0.3735  0.1305 -0.0254
  260loPI    C1 4145   2.351  17.309  10.421  0.0618 -0.0394 -0.0387
  260loPI    C2 4146   2.501  17.108  10.733  0.0475 -0.1192 -0.0831
  260loPI    C3 4147   2.559  17.503  10.702  0.3098 -0.1599 -0.1358
  260loPI   PO4 4148   2.385  17.184  10.202 -0.0562 -0.0452 -0.0020
  260loPI   GL1 4149   2.516  17.224   9.755  0.1485 -0.0363 -0.1533
  260loPI   GL2 4150   2.850  17.191   9.939  0.2250  0.0626  0.4198
  260loPI   C1A 4151   2.392  17.311   9.357 -0.1851 -0.2767  0.0210
  260loPI   C2A 4152   2.351  17.082   8.982  0.1088  0.0185 -0.0334
  260loPI   C3A 4153   2.536  17.087   8.550 -0.1032 -0.0619 -0.0451
  260loPI   C4A 4154   2.645  17.279   8.185 -0.4897  0.0474  0.0963
  260loPI   C5A 4155   2.954  17.190   7.790  0.0080  0.2483 -0.2535
  260loPI   C6A 4156   3.442  17.349   7.761  0.0307 -0.0576 -0.2613
  260loPI   C1B 4157   2.871  17.102   9.447 -0.2807 -0.2157  0.1105
  260loPI   C2B 4158   2.832  17.133   9.073  0.1019  0.0978  0.2913
  260loPI   C3B 4159   2.808  17.443   8.841 -0.1899 -0.2313 -0.0061
  260loPI   C4B 4160   2.775  17.674   8.466  0.1100  0.1049  0.1345
  261loPI    C1 4161   6.914  12.335  10.630 -0.1459  0.2231 -0.1285
  261loPI    C2 4162   6.571  12.509  10.742 -0.1259  0.0752  0.1698
  261loPI    C3 4163   6.804  12.330  11.014 -0.0669 -0.2794 -0.1060
  261loPI   PO4 4164   6.859  12.254  10.438 -0.0052 -0.1480  0.0232
  261loPI   GL1 4165   6.932  12.185   9.994  0.2704  0.1439  0.0930
  261loPI   GL2 4166   7.190  12.045   9.819  0.0641  0.0439  0.0671
  261loPI   C1A 4167   6.706  12.354   9.640  0.1185  0.2736  0.2646
  261loPI   C2A 4168   6.749  12.383   9.101 -0.3583 -0.0727  0.1314
  261loPI   C3A 4169   6.832  12.447   8.694 -0.0671 -0.0988  0.2005
  261loPI   C4A 4170   6.989  12.322   8.224 -0.1244 -0.0802  0.1544
  261loPI   C5A 4171   6.728  12.251   7.864 -0.0327 -0.0822 -0.1796
  261loPI   C6A 4172   6.374  12.039   7.646 -0.0248 -0.2473  0.1686
  261loPI   C1B 4173   7.111  12.075   9.362 -0.0755 -0.1425 -0.0032
  261loPI   C2B 4174   7.194  12.013   8.923 -0.0462  0.0453  0.0982
  261loPI   C3B 4175   7.235  11.733   8.566 -0.0473  0.0113  0.0697
  261loPI   C4B 4176   7.181  11.867   8.185  0.0645 -0.1037 -0.0177
  262loPI    C1 4177  17.208  14.759  10.883 -0.1934  0.0780 -0.1052
  262loPI    C2 4178  16.961  14.447  10.848 -0.2413  0.1118 -0.0690
  262loPI    C3 4179  16.871  14.746  11.098 -0.0056 -0.0285  0.1893
  262loPI   PO4 4180  17.276  14.856  10.641  0.0779 -0.0043 -0.0094
  262loPI   GL1 4181  17.138  14.944  10.255 -0.0889 -0.2453 -0.1875
  262loPI   GL2 4182  16.972  14.559  10.366  0.0506 -0.1796  0.1352
  262loPI   C1A 4183  17.557  15.011  10.031  0.0594  0.0412  0.0770
  262loPI   C2A 4184  17.636  15.077   9.622 -0.2470  0.2249  0.0136
  262loPI   C3A 4185  17.490  15.206   9.237 -0.0007 -0.0955  0.0878
  262loPI   C4A 4186  17.236  15.468   8.992  0.2963  0.1366  0.0984
  262loPI   C5A 4187  16.984  15.609   8.673 -0.4008 -0.0221 -0.0322
  262loPI   C6A 4188  16.776  15.745   8.235  0.0792  0.1536 -0.1232
  262loPI   C1B 4189  16.678  14.734   9.929 -0.1587 -0.0686 -0.4764
  262loPI   C2B 4190  16.697  14.733   9.491  0.1887  0.3143  0.2701
  262loPI   C3B 4191  16.788  14.631   9.184 -0.0163 -0.1306 -0.0733
  262loPI   C4B 4192  16.647  14.378   8.773 -0.1607  0.2777  0.2420
  263loPI    C1 4193  17.047  10.516  10.869 -0.1730  0.0898  0.0656
  263loPI    C2 4194  17.017  10.839  11.103 -0.1819  0.0183  0.1636
  263loPI    C3 4195  16.970  10.473  11.259 -0.2358 -0.0277  0.0407
  263loPI   PO4 4196  17.321  10.641  10.692 -0.4532  0.0101 -0.3123
  263loPI   GL1 4197  17.200  10.599  10.277  0.1818 -0.0210  0.0876
  263loPI   GL2 4198  17.021  10.356  10.373 -0.1827 -0.3453  0.0096
  263loPI   C1A 4199  16.821  10.695  10.053  0.1361  0.1674  0.1505
  263loPI   C2A 4200  16.622  10.727   9.648  0.2300 -0.1146  0.1837
  263loPI   C3A 4201  16.494  10.889   9.223 -0.4080  0.3223 -0.0774
  263loPI   C4A 4202  16.625  10.917   8.782  0.1414  0.1652 -0.1593
  263loPI   C5A 4203  16.865  10.756   8.384  0.0995 -0.2036  0.0777
  263loPI   C6A 4204  17.223  10.531   8.212 -0.0377 -0.0464  0.3696
  263loPI   C1B 4205  17.208  10.161   9.979  0.1743  0.0524  0.1590
  263loPI   C2B 4206  17.073  10.334   9.531  0.1405  0.0074  0.1204
  263loPI   C3B 4207  17.007  10.205   9.152  0.1209 -0.2338 -0.0227
  263loPI   C4B 4208  16.958  10.386   8.679  0.2195 -0.0300 -0.0818
  264loPI    C1 4209  10.940   0.225  10.555  0.0534 -0.1605 -0.0181
  264loPI    C2 4210  10.987   0.550  10.326 -0.0655 -0.0983  0.0447
  264loPI    C3 4211  11.035   0.576  10.722  0.0720 -0.1907  0.0349
  264loPI   PO4 4212  11.036  -0.026  10.297  0.1977  0.1903 -0.0932
  264loPI   GL1 4213  11.211  -0.042   9.859 -0.0487 -0.1020  0.3445
  264loPI   GL2 4214  11.060   0.306   9.847  0.0171 -0.1663  0.2158
  264loPI   C1A 4215  11.373  -0.195   9.453  0.0900 -0.0599 -0.1837
  264loPI   C2A 4216  11.258  -0.133   9.004  0.2530  0.2082 -0.2478
  264loPI   C3A 4217  11.447  -0.411   8.847 -0.0336 -0.1345 -0.0406
  264loPI   C4A 4218  11.400  -0.645   8.479 -0.1323  0.0540  0.0156
  264loPI   C5A 4219  11.119  -0.476   8.160  0.0743  0.1849 -0.0251
  264loPI   C6A 4220  10.679  -0.474   7.941  0.1548 -0.2436  0.0018
  264loPI   C1B 4221  11.121   0.339   9.458  0.2699 -0.1622 -0.0196
  264loPI   C2B 4222  10.977   0.340   9.064  0.1002  0.1765 -0.1734
  264loPI   C3B 4223  11.121   0.199   8.723  0.1774 -0.4024  0.0350
  264loPI   C4B 4224  11.316  -0.101   8.507  0.0156  0.2210 -0.0604
  265loPI    C1 4225  12.909  11.436  10.661  0.3110  0.2052 -0.3030
  265loPI    C2 4226  12.828  11.812  10.550  0.0595  0.3088  0.2001
  265loPI    C3 4227  13.119  11.740  10.815  0.2021  0.1307 -0.0006
  265loPI   PO4 4228  12.563  11.347  10.679  0.1114 -0.1180 -0.1846
  265loPI   GL1 4229  12.245  11.181  10.312  0.0554 -0.2460 -0.1992
  265loPI   GL2 4230  12.034  11.429  10.211  0.2233 -0.0713 -0.0471
  265loPI   C1A 4231  12.445  10.936  10.031 -0.1053 -0.2893 -0.1538
  265loPI   C2A 4232  12.514  10.973   9.586 -0.0136  0.5695 -0.1699
  265loPI   C3A 4233  12.563  10.797   9.148 -0.0834 -0.1179  0.1176
  265loPI   C4A 4234  12.459  10.584   8.746 -0.2342  0.1879 -0.2192
  265loPI   C5A 4235  12.824  10.372   8.563  0.2942 -0.1206 -0.1685
  265loPI   C6A 4236  12.898  10.158   8.271  0.0445 -0.1855 -0.3871
  265loPI   C1B 4237  12.024  11.312   9.806 -0.3371  0.1367  0.1214
  265loPI   C2B 4238  12.143  11.433   9.475  0.1426  0.1446 -0.0774
  265loPI   C3B 4239  12.334  11.267   9.136  0.1541  0.0140  0.0250
  265loPI   C4B 4240  12.673  11.274   8.909  0.2225 -0.0941 -0.0426
  266loPI    C1 4241   5.451   5.287  10.527 -0.2846 -0.0400  0.1328
  266loPI    C2 4242   5.157   5.458  10.316  0.0450  0.2408 -0.1087
  266loPI    C3 4243   5.388   5.681  10.555  0.1857  0.0565 -0.0708
  266loPI   PO4 4244   5.500   5.094  10.398 -0.0104 -0.0973  0.3113
  266loPI   GL1 4245   5.289   4.736  10.223 -0.0380 -0.2766  0.2256
  266loPI   GL2 4246   5.144   5.056  10.036 -0.1901  0.2334  0.0701
  266loPI   C1A 4247   5.297   4.670   9.748  0.1209 -0.1865 -0.0510
  266loPI   C2A 4248   5.264   4.680   9.323  0.0298 -0.2885  0.0978
  266loPI   C3A 4249   5.002   4.755   8.978  0.1129  0.1056  0.0125
  266loPI   C4A 4250   4.974   4.652   8.543  0.2220  0.2992 -0.0062
  266loPI   C5A 4251   4.906   4.431   8.153  0.1561  0.4332  0.3455
  266loPI   C6A 4252   4.915   4.037   8.043 -0.0542  0.2200  0.1955
  266loPI   C1B 4253   5.116   5.196   9.659 -0.0123 -0.0721 -0.0760
  266loPI   C2B 4254   5.105   5.237   9.324 -0.2709 -0.0097 -0.2315
  266loPI   C3B 4255   5.064   5.321   8.891  0.2251 -0.0191 -0.3242
  266loPI   C4B 4256   4.847   5.168   8.613 -0.0798 -0.3758 -0.0838
  267loPI    C1 4257   9.530  14.085  10.679  0.2206 -0.0976 -0.1435
  267loPI    C2 4258   9.862  14.307  10.656  0.1693 -0.0116 -0.0591
  267loPI    C3 4259   9.828  14.026  10.938  0.2120 -0.0899 -0.1317
  267loPI   PO4 4260   9.480  14.014  10.395 -0.3877 -0.0761  0.1369
  267loPI   GL1 4261   9.654  14.233  10.081 -0.3814  0.1359  0.0806
  267loPI   GL2 4262   9.788  13.963   9.983  0.0464  0.2996  0.1618
  267loPI   C1A 4263   9.378  14.502   9.878  0.0805  0.1803  0.0932
  267loPI   C2A 4264   9.375  14.558   9.388  0.0515  0.1992 -0.0119
  267loPI   C3A 4265   9.283  14.531   9.004  0.1625 -0.3892 -0.0308
  267loPI   C4A 4266   9.264  14.525   8.584 -0.3959  0.3545 -0.1248
  267loPI   C5A 4267   9.338  14.310   8.258 -0.0414  0.1821  0.1024
  267loPI   C6A 4268   9.137  14.043   7.938  0.1991  0.2066  0.0304
  267loPI   C1B 4269   9.667  14.095   9.564  0.1539 -0.2396 -0.1779
  267loPI   C2B 4270   9.625  14.119   9.206  0.3240 -0.3120  0.0348
  267loPI   C3B 4271   9.762  13.843   8.794 -0.0055 -0.2706 -0.0897
  267loPI   C4B 4272  10.094  13.704   8.487  0.2827 -0.0780 -0.0689
  268loPI    C1 4273  10.542  14.894  10.994 -0.2153 -0.0510  0.0956
  268loPI    C2 4274  10.244  14.892  11.261 -0.2009 -0.2234  0.1115
  268loPI    C3 4275  10.622  14.928  11.384 -0.2202  0.1040  0.0838
  268loPI   PO4 4276  10.498  15.015  10.852 -0.0461 -0.0061 -0.0853
  268loPI   GL1 4277  10.470  14.989  10.432 -0.0303 -0.1511  0.2787
  268loPI   GL2 4278  10.133  15.050  10.372 -0.3159 -0.0010 -0.6271
  268loPI   C1A 4279  10.344  14.859   9.970  0.0311  0.5557 -0.2145
  268loPI   C2A 4280  10.231  14.828   9.536  0.0066  0.1539 -0.0167
  268loPI   C3A 4281   9.898  14.538   9.282 -0.3085 -0.1232  0.0443
  268loPI   C4A 4282   9.767  14.509   8.825 -0.0480 -0.1698  0.1058
  268loPI   C5A 4283   9.834  14.410   8.313 -0.2228 -0.0669  0.1421
  268loPI   C6A 4284   9.913  14.213   8.012  0.2818 -0.1350  0.1449
  268loPI   C1B 4285  10.022  15.241   9.928  0.3289  0.0921  0.1113
  268loPI   C2B 4286  10.016  15.337   9.538 -0.1070 -0.0052  0.0661
  268loPI   C3B 4287   9.944  15.291   9.145  0.0452  0.0908  0.2195
  268loPI   C4B 4288   9.880  15.215   8.728  0.1562  0.1403 -0.1618
  269loPI    C1 4289   5.773   8.897  10.156  0.0321 -0.1503 -0.0433
  269loPI    C2 4290   5.941   8.974  10.510 -0.1285 -0.0408  0.0101
  269loPI    C3 4291   5.598   9.153  10.408 -0.0638 -0.0429 -0.2164
  269loPI   PO4 4292   5.849   8.614  10.138  0.2067  0.0100  0.1200
  269loPI   GL1 4293   5.908   8.478   9.792 -0.1758  0.1390  0.0136
  269loPI   GL2 4294   5.623   8.668   9.698  0.0317  0.0120 -0.0699
  269loPI   C1A 4295   6.116   8.608   9.415 -0.1110  0.3185  0.0261
  269loPI   C2A 4296   6.300   8.504   8.998  0.3013  0.0249 -0.1335
  269loPI   C3A 4297   6.326   8.590   8.529  0.4659 -0.1300  0.1437
  269loPI   C4A 4298   6.061   8.716   8.249 -0.0553  0.1179  0.1644
  269loPI   C5A 4299   5.674   8.809   7.935  0.0927 -0.0742  0.1180
  269loPI   C6A 4300   5.495   9.256   7.830 -0.3524 -0.0700  0.2506
  269loPI   C1B 4301   5.379   8.403   9.462 -0.0083  0.1613 -0.0234
  269loPI   C2B 4302   5.235   8.460   8.995 -0.0635 -0.3208  0.1531
  269loPI   C3B 4303   5.314   8.338   8.657  0.2065  0.0558 -0.1120
  269loPI   C4B 4304   5.368   8.276   8.103  0.3594 -0.0747 -0.2241
  270loPI    C1 4305  15.699   3.029  11.134 -0.1112 -0.1298  0.1296
  270loPI    C2 4306  15.996   3.154  11.370 -0.0052 -0.1295 -0.0032
  270loPI    C3 4307  15.638   3.071  11.527  0.0030  0.0740  0.1263
  270loPI   PO4 4308  15.616   3.184  10.891  0.0279 -0.1502 -0.2679
  270loPI   GL1 4309  15.576   3.286  10.472  0.0425 -0.2684 -0.0675
  270loPI   GL2 4310  15.941   3.287  10.376 -0.2148  0.3750  0.1974
  270loPI   C1A 4311  15.595   3.407  10.014 -0.1411  0.1849  0.2182
  270loPI   C2A 4312  15.607   3.439   9.642 -0.0828  0.1691 -0.3709
  270loPI   C3A 4313  15.591   3.640   9.257 -0.3914  0.2167  0.0091
  270loPI   C4A 4314  15.565   3.677   8.796 -0.0949  0.0937 -0.3163
  270loPI   C5A 4315  15.469   3.492   8.430 -0.0522 -0.3909  0.3217
  270loPI   C6A 4316  15.361   3.428   8.097 -0.2134 -0.0199  0.1636
  270loPI   C1B 4317  16.057   3.213   9.855 -0.1911 -0.0094 -0.3113
  270loPI   C2B 4318  16.105   3.313   9.440  0.2670  0.2211  0.1753
  270loPI   C3B 4319  15.988   3.373   9.089  0.2341  0.1353  0.0647
  270loPI   C4B 4320  15.911   3.257   8.680 -0.0685 -0.4174  0.2342
  271loPI    C1 4321   4.915  17.415  10.652  0.1314  0.1151  0.0166
  271loPI    C2 4322   4.701  17.693  10.843  0.0690  0.1275 -0.0711
  271loPI    C3 4323   5.101  17.716  10.839  0.0663  0.1849 -0.0313
  271loPI   PO4 4324   4.677  17.372  10.474 -0.0811  0.0950 -0.2461
  271loPI   GL1 4325   4.567  17.256  10.097 -0.1311 -0.1341  0.0492
  271loPI   GL2 4326   4.777  17.336   9.917  0.1071  0.2744  0.3293
  271loPI   C1A 4327   4.259  17.279   9.728 -0.0606 -0.1044 -0.3678
  271loPI   C2A 4328   4.322  17.165   9.375  0.0908 -0.2009  0.2205
  271loPI   C3A 4329   4.219  17.190   8.898 -0.1244  0.0688  0.2125
  271loPI   C4A 4330   4.403  17.414   8.526  0.4197 -0.2245  0.3645
  271loPI   C5A 4331   4.308  17.706   8.163 -0.1070 -0.0123  0.0863
  271loPI   C6A 4332   4.659  17.798   7.869 -0.1939  0.1562 -0.1211
  271loPI   C1B 4333   4.724  17.413   9.459 -0.2053  0.0521  0.3443
  271loPI   C2B 4334   4.717  17.398   8.967 -0.2428 -0.2215 -0.0634
  271loPI   C3B 4335   4.739  17.106   8.612  0.0414 -0.0689  0.0110
  271loPI   C4B 4336   4.622  16.894   8.296  0.0179  0.0092 -0.2799
  272loPI    C1 4337   8.333   5.776  10.247  0.3009  0.1539 -0.0814
  272loPI    C2 4338   8.211   6.046  10.515 -0.0489 -0.0829  0.0054
  272loPI    C3 4339   8.418   5.725  10.634  0.2453  0.0717 -0.0796
  272loPI   PO4 4340   8.444   5.885  10.088  0.1669 -0.0764  0.0434
  272loPI   GL1 4341   8.430   5.806   9.591 -0.2455 -0.0030  0.1697
  272loPI   GL2 4342   8.122   5.648   9.722  0.3435 -0.3894 -0.2162
  272loPI   C1A 4343   8.425   5.743   9.178  0.0789  0.0367 -0.1420
  272loPI   C2A 4344   8.588   5.669   8.772 -0.0579  0.0441  0.0123
  272loPI   C3A 4345   8.759   5.511   8.446  0.1662 -0.1854 -0.0930
  272loPI   C4A 4346   8.865   5.093   8.331 -0.1975  0.0569  0.0607
  272loPI   C5A 4347   9.226   4.943   8.171  0.0442 -0.1284  0.2888
  272loPI   C6A 4348   9.595   4.709   8.333  0.4006  0.2907 -0.3649
  272loPI   C1B 4349   8.301   5.301   9.508 -0.1155 -0.1349  0.2585
  272loPI   C2B 4350   8.282   5.256   9.120 -0.3186  0.1956 -0.1829
  272loPI   C3B 4351   8.198   5.203   8.779 -0.0715 -0.3369 -0.0862
  272loPI   C4B 4352   8.236   5.171   8.324 -0.1339 -0.0046  0.1995
  273loPI    C1 4353  16.485   0.879  10.715  0.1276 -0.0833 -0.0181
  273loPI    C2 4354  16.487   0.944  11.109  0.0780  0.1236 -0.0508
  273loPI    C3 4355  16.320   0.611  10.962 -0.2289  0.2174  0.0773
  273loPI   PO4 4356  16.509   1.121  10.594 -0.0682 -0.0375  0.1296
  273loPI   GL1 4357  16.534   1.143  10.176  0.1394 -0.0735  0.1428
  273loPI   GL2 4358  16.252   1.086  10.179  0.1815  0.1030 -0.0084
  273loPI   C1A 4359  16.791   1.249   9.858  0.1029  0.4044  0.2620
  273loPI   C2A 4360  16.751   0.956   9.534 -0.3355 -0.3219  0.0654
  273loPI   C3A 4361  16.666   1.094   9.049 -0.3253 -0.1725  0.0055
  273loPI   C4A 4362  16.397   0.846   8.696 -0.1175 -0.0916 -0.2870
  273loPI   C5A 4363  16.136   0.739   8.412  0.2104  0.1185  0.2323
  273loPI   C6A 4364  15.913   0.798   8.054 -0.3014 -0.0616  0.0451
  273loPI   C1B 4365  16.316   0.993   9.763 -0.1620 -0.0505 -0.1957
  273loPI   C2B 4366  16.316   1.157   9.461  0.2249 -0.1265  0.1967
  273loPI   C3B 4367  16.178   1.153   9.017  0.1289 -0.1067  0.1107
  273loPI   C4B 4368  15.942   1.131   8.636 -0.0236  0.3073  0.0345
  274loPI    C1 4369  10.771   5.926  10.349 -0.1037 -0.1406  0.0170
  274loPI    C2 4370  10.582   6.188  10.584  0.0948 -0.0238  0.0489
  274loPI    C3 4371  10.431   5.822  10.531 -0.1308  0.0625  0.0845
  274loPI   PO4 4372  10.766   6.072  10.137 -0.0424  0.0023  0.1050
  274loPI   GL1 4373  10.552   6.082   9.819  0.2092  0.0359  0.1818
  274loPI   GL2 4374  10.634   5.753   9.686 -0.3217  0.2191  0.1335
  274loPI   C1A 4375  10.546   6.199   9.443  0.0839 -0.1577 -0.1685
  274loPI   C2A 4376  10.310   6.114   9.018 -0.2395 -0.1264  0.0824
  274loPI   C3A 4377  10.183   5.820   8.687 -0.0352 -0.6344 -0.0081
  274loPI   C4A 4378  10.171   5.740   8.222  0.2211  0.3506 -0.2543
  274loPI   C5A 4379  10.052   5.273   7.922 -0.0213 -0.0228 -0.1588
  274loPI   C6A 4380   9.950   4.815   7.994  0.0857  0.1580  0.3971
  274loPI   C1B 4381  10.661   5.621   9.207  0.0522 -0.0655  0.1080
  274loPI   C2B 4382  10.704   5.799   8.742 -0.1184  0.0754 -0.1008
  274loPI   C3B 4383  10.915   5.657   8.272 -0.3222 -0.1695 -0.4374
  274loPI   C4B 4384  10.704   5.819   7.943 -0.2705 -0.2507  0.2104
  275loPI    C1 4385  12.108  14.794  10.908 -0.0173  0.1628  0.1421
  275loPI    C2 4386  12.332  15.099  11.038  0.1607  0.0640  0.0691
  275loPI    C3 4387  12.447  14.722  11.107  0.0360  0.0126 -0.0009
  275loPI   PO4 4388  12.170  14.849  10.590  0.0046 -0.0662 -0.3744
  275loPI   GL1 4389  12.145  14.544  10.244  0.2466  0.0617 -0.3276
  275loPI   GL2 4390  12.014  14.251  10.168  0.0679  0.4978  0.1214
  275loPI   C1A 4391  12.102  14.494   9.740  0.1486  0.2508  0.0158
  275loPI   C2A 4392  12.023  14.506   9.305  0.2689 -0.2915  0.1849
  275loPI   C3A 4393  11.627  14.561   9.185  0.0079  0.2635 -0.0517
  275loPI   C4A 4394  11.260  14.558   8.903 -0.0200  0.2803  0.3536
  275loPI   C5A 4395  11.015  14.357   8.563  0.0384 -0.1512  0.2921
  275loPI   C6A 4396  10.774  14.353   8.227 -0.0039  0.2970 -0.0665
  275loPI   C1B 4397  11.917  14.065   9.805 -0.1095  0.0123 -0.1946
  275loPI   C2B 4398  11.949  13.916   9.327  0.0377  0.0887 -0.0492
  275loPI   C3B 4399  12.040  13.693   8.847 -0.1397 -0.0613 -0.0686
  275loPI   C4B 4400  12.318  13.856   8.489 -0.2098  0.1049 -0.1666
  276loPI    C1 4401  14.784   1.123  11.220 -0.1980  0.1491 -0.0152
  276loPI    C2 4402  14.551   0.829  11.358 -0.1064  0.1177  0.0743
  276loPI    C3 4403  14.899   0.909  11.538 -0.0592  0.1802 -0.0438
  276loPI   PO4 4404  14.742   1.074  10.930  0.1554 -0.2057  0.0453
  276loPI   GL1 4405  14.928   1.192  10.532  0.0691  0.0354 -0.2499
  276loPI   GL2 4406  15.161   1.429  10.429  0.0245  0.0251  0.1424
  276loPI   C1A 4407  14.716   1.142  10.196 -0.2214  0.0546 -0.2705
  276loPI   C2A 4408  14.770   1.032   9.826 -0.1579 -0.3610  0.2472
  276loPI   C3A 4409  14.845   0.975   9.330 -0.1249  0.1506 -0.0564
  276loPI   C4A 4410  14.842   0.879   8.834  0.1298  0.1145 -0.3191
  276loPI   C5A 4411  14.970   1.141   8.498 -0.0543  0.0852  0.1933
  276loPI   C6A 4412  15.411   0.998   8.155  0.1793  0.1372 -0.0674
  276loPI   C1B 4413  15.380   1.503  10.155 -0.1097 -0.2633 -0.2364
  276loPI   C2B 4414  15.542   1.508   9.693  0.0991 -0.1877 -0.2001
  276loPI   C3B 4415  15.431   1.499   9.257  0.0447  0.2549  0.0877
  276loPI   C4B 4416  15.434   1.727   8.860 -0.5566 -0.2503 -0.0535
  277loPI    C1 4417  11.190   1.410  10.492  0.0851  0.1617 -0.1362
  277loPI    C2 4418  11.038   1.768  10.585  0.1635  0.1643 -0.0146
  277loPI    C3 4419  11.125   1.507  10.875 -0.1856 -0.0754 -0.1186
  277loPI   PO4 4420  11.264   1.398  10.259 -0.2088 -0.0254 -0.0716
  277loPI   GL1 4421  11.621   1.482   9.859  0.0473 -0.0332 -0.1634
  277loPI   GL2 4422  11.483   1.212   9.776  0.1617  0.1179  0.1393
  277loPI   C1A 4423  11.689   1.512   9.466  0.0652 -0.2224 -0.1319
  277loPI   C2A 4424  11.725   1.550   9.118 -0.0672 -0.4296  0.0839
  277loPI   C3A 4425  11.700   1.418   8.724  0.2521  0.2048  0.1202
  277loPI   C4A 4426  11.487   1.422   8.297  0.0249  0.1560 -0.0678
  277loPI   C5A 4427  11.337   1.440   7.914  0.0566 -0.0036  0.2631
  277loPI   C6A 4428  11.383   1.537   7.501 -0.1337 -0.4479 -0.3456
  277loPI   C1B 4429  11.687   1.006   9.373 -0.0478 -0.0580  0.2001
  277loPI   C2B 4430  11.685   0.904   8.964  0.2135  0.2098 -0.2496
  277loPI   C3B 4431  11.763   0.901   8.540 -0.2028 -0.0788  0.2011
  277loPI   C4B 4432  11.936   0.756   8.147 -0.1799  0.3277  0.3731
  278loPI    C1 4433   7.092   2.635  10.599  0.0410  0.0010  0.1246
  278loPI    C2 4434   6.757   2.525  10.788 -0.0550  0.2923  0.1290
  278loPI    C3 4435   6.999   2.797  10.952  0.1705  0.1060  0.1110
  278loPI   PO4 4436   7.048   2.537  10.370 -0.0069 -0.1157  0.2288
  278loPI   GL1 4437   7.099   2.301   9.955  0.0015 -0.0684 -0.1891
  278loPI   GL2 4438   7.350   2.510   9.957 -0.0535  0.2679 -0.1238
  278loPI   C1A 4439   7.144   2.423   9.483  0.0055  0.1469  0.2067
  278loPI   C2A 4440   7.273   2.552   9.151  0.0465 -0.0082 -0.1034
  278loPI   C3A 4441   7.072   2.725   8.800  0.0332 -0.1270  0.0467
  278loPI   C4A 4442   7.064   2.599   8.335  0.0872  0.0655  0.0558
  278loPI   C5A 4443   7.197   2.757   7.871 -0.1612 -0.1037 -0.1916
  278loPI   C6A 4444   7.274   2.631   7.524  0.0484 -0.0752  0.1405
  278loPI   C1B 4445   7.608   2.586   9.540 -0.1184 -0.2444 -0.1115
  278loPI   C2B 4446   7.597   2.283   9.308  0.0458  0.1312 -0.0369
  278loPI   C3B 4447   7.676   2.186   8.966 -0.1359 -0.3815  0.0624
  278loPI   C4B 4448   7.794   2.163   8.543 -0.0868 -0.1567  0.0829
  279loPI    C1 4449  16.266   9.258  11.191  0.0095 -0.1069  0.2507
  279loPI    C2 4450  16.534   9.253  11.488  0.0174 -0.1699  0.2429
  279loPI    C3 4451  16.217   9.010  11.501  0.1168 -0.3091  0.1085
  279loPI   PO4 4452  16.486   9.226  10.915 -0.2176  0.0699 -0.3026
  279loPI   GL1 4453  16.694   9.321  10.541 -0.1814  0.3607 -0.4119
  279loPI   GL2 4454  16.549   9.701  10.657 -0.3164  0.4160  0.0957
  279loPI   C1A 4455  16.428   9.200  10.153  0.2555 -0.0740 -0.0371
  279loPI   C2A 4456  16.283   9.023   9.829 -0.3690  0.0781  0.0832
  279loPI   C3A 4457  16.442   8.927   9.413 -0.2125 -0.0972 -0.0976
  279loPI   C4A 4458  16.583   8.887   9.005 -0.4110 -0.1506 -0.0960
  279loPI   C5A 4459  16.443   8.527   8.716 -0.0166  0.1121 -0.4578
  279loPI   C6A 4460  16.103   8.616   8.397 -0.1196  0.3052 -0.1736
  279loPI   C1B 4461  16.596   9.655  10.187  0.0952  0.2591 -0.0534
  279loPI   C2B 4462  16.488   9.515   9.723  0.1958  0.2057 -0.0139
  279loPI   C3B 4463  16.521   9.425   9.393 -0.0843 -0.1499 -0.3117
  279loPI   C4B 4464  16.244   9.398   8.946  0.1735 -0.1756 -0.3626
  280loPI    C1 4465  10.534   0.579  10.541  0.2136 -0.2470 -0.0348
  280loPI    C2 4466  10.146   0.569  10.636  0.1966  0.0685 -0.0581
  280loPI    C3 4467  10.354   0.229  10.610  0.0007 -0.0824  0.2735
  280loPI   PO4 4468  10.501   0.767  10.406 -0.3223  0.0557  0.0702
  280loPI   GL1 4469  10.432   0.751   9.946 -0.1094  0.0647 -0.0415
  280loPI   GL2 4470  10.703   0.777   9.872 -0.1395 -0.0866 -0.0084
  280loPI   C1A 4471  10.457   0.436   9.606  0.1826 -0.0243 -0.0006
  280loPI   C2A 4472  10.508   0.423   9.196 -0.3967  0.0882 -0.2149
  280loPI   C3A 4473  10.461   0.348   8.778 -0.0835  0.0892 -0.3420
  280loPI   C4A 4474  10.622   0.142   8.521 -0.2828  0.0036 -0.0118
  280loPI   C5A 4475  10.846  -0.064   8.281 -0.1212  0.4343  0.2028
  280loPI   C6A 4476  10.943   0.025   7.850  0.0237 -0.2750  0.0630
  280loPI   C1B 4477  10.755   0.862   9.456 -0.2240  0.0399 -0.1441
  280loPI   C2B 4478  10.802   0.846   8.993 -0.2223 -0.3359  0.2758
  280loPI   C3B 4479  10.833   0.596   8.583  0.0433  0.5523 -0.1130
  280loPI   C4B 4480  10.961   0.521   8.138 -0.1607 -0.1657  0.2360
  281loPI    C1 4481   4.901   3.022  10.684  0.1883  0.0514 -0.0026
  281loPI    C2 4482   4.566   3.238  10.716  0.1695  0.0428 -0.1341
  281loPI    C3 4483   4.795   3.176  11.038 -0.0574 -0.1163 -0.0004
  281loPI   PO4 4484   4.888   2.946  10.370 -0.1034  0.0027  0.2795
  281loPI   GL1 4485   5.052   3.075  10.030  0.1630  0.0032 -0.0085
  281loPI   GL2 4486   5.116   3.311   9.986  0.3929 -0.0083  0.0307
  281loPI   C1A 4487   4.993   2.913   9.541  0.2868 -0.0598 -0.2653
  281loPI   C2A 4488   5.058   2.856   9.118 -0.1557  0.0595 -0.1288
  281loPI   C3A 4489   5.125   2.860   8.698 -0.0625 -0.2776  0.1676
  281loPI   C4A 4490   5.029   2.994   8.250 -0.0703 -0.1212 -0.0641
  281loPI   C5A 4491   5.308   3.057   7.887  0.0087  0.0052  0.2634
  281loPI   C6A 4492   5.422   3.431   7.589 -0.1315 -0.0266 -0.2631
  281loPI   C1B 4493   5.177   3.360   9.554 -0.0043 -0.1787 -0.0311
  281loPI   C2B 4494   4.975   3.399   9.125 -0.0581  0.2647 -0.0659
  281loPI   C3B 4495   4.894   3.324   8.646 -0.1489 -0.2218 -0.1945
  281loPI   C4B 4496   4.947   3.572   8.322 -0.1702 -0.2107 -0.3731
  282loPI    C1 4497   3.856   5.160  10.794 -0.1104  0.0350 -0.0620
  282loPI    C2 4498   3.557   4.909  10.882 -0.1105 -0.0348 -0.2543
  282loPI    C3 4499   3.492   5.304  10.875 -0.1568 -0.0396 -0.1359
  282loPI   PO4 4500   4.004   5.028  10.598  0.1963 -0.1436 -0.0675
  282loPI   GL1 4501   4.227   5.119  10.229 -0.1541  0.1865 -0.2971
  282loPI   GL2 4502   3.926   5.020  10.051  0.3171  0.0692  0.1543
  282loPI   C1A 4503   4.323   5.053   9.712  0.1711  0.1037  0.0366
  282loPI   C2A 4504   4.259   5.112   9.283  0.1158 -0.0017  0.2120
  282loPI   C3A 4505   4.040   4.988   8.907 -0.0315 -0.2148 -0.0464
  282loPI   C4A 4506   3.931   4.923   8.503  0.0104  0.2575  0.3309
  282loPI   C5A 4507   3.847   4.683   8.173  0.1613 -0.2212  0.1332
  282loPI   C6A 4508   3.903   4.309   8.001  0.1401  0.0686 -0.0163
  282loPI   C1B 4509   3.759   5.155   9.600  0.1033  0.4135 -0.2126
  282loPI   C2B 4510   3.579   5.097   9.215 -0.0849  0.1507 -0.0440
  282loPI   C3B 4511   3.583   4.770   8.824  0.1153 -0.0827  0.0517
  282loPI   C4B 4512   3.446   4.519   8.393  0.2824  0.3644 -0.2062
  283loPI    C1 4513   4.871  13.425  10.331  0.0478 -0.0781 -0.0119
  283loPI    C2 4514   4.682  13.581  10.647  0.0434 -0.4995  0.2008
  283loPI    C3 4515   5.074  13.504  10.666  0.1509 -0.0604 -0.0782
  283loPI   PO4 4516   4.917  13.457  10.119 -0.1179  0.3990  0.1221
  283loPI   GL1 4517   5.153  13.684   9.813  0.0949  0.0275  0.0572
  283loPI   GL2 4518   5.257  13.415   9.605 -0.1263  0.3487 -0.0007
  283loPI   C1A 4519   5.359  13.824   9.378  0.2050 -0.0757 -0.2162
  283loPI   C2A 4520   5.282  13.819   8.918  0.3004 -0.0562 -0.0811
  283loPI   C3A 4521   5.431  14.160   8.598  0.1805 -0.2326  0.2098
  283loPI   C4A 4522   5.460  14.174   8.237 -0.1161  0.4245 -0.0386
  283loPI   C5A 4523   5.426  14.402   7.885  0.0767  0.0198 -0.1681
  283loPI   C6A 4524   5.595  14.909   7.807  0.0866 -0.1568 -0.1616
  283loPI   C1B 4525   5.127  13.371   9.127 -0.2723  0.0737  0.0130
  283loPI   C2B 4526   5.183  13.315   8.710  0.1883  0.2289  0.2789
  283loPI   C3B 4527   5.204  13.354   8.199  0.0216  0.0333  0.3064
  283loPI   C4B 4528   5.014  13.298   7.864  0.1568  0.0732 -0.2100
  284loPI    C1 4529   7.435   2.262  10.624  0.1037 -0.2204  0.2083
  284loPI    C2 4530   7.068   2.135  10.718 -0.1200  0.2148 -0.0457
  284loPI    C3 4531   7.280   2.347  10.983 -0.0041 -0.1250  0.1398
  284loPI   PO4 4532   7.404   2.182  10.315  0.0525  0.3043 -0.0228
  284loPI   GL1 4533   7.609   2.026   9.991 -0.1207 -0.0999  0.0798
  284loPI   GL2 4534   7.360   1.786   9.903  0.2235  0.0785  0.0747
  284loPI   C1A 4535   7.779   1.893   9.550  0.0155  0.1640 -0.0198
  284loPI   C2A 4536   7.946   1.902   9.252  0.0268 -0.0401 -0.0742
  284loPI   C3A 4537   8.166   2.092   8.892  0.0567 -0.0271 -0.1511
  284loPI   C4A 4538   8.256   1.878   8.676 -0.4277  0.0272  0.0497
  284loPI   C5A 4539   8.578   1.762   8.354  0.0507  0.4073 -0.1567
  284loPI   C6A 4540   8.712   2.035   8.052 -0.0019 -0.2063 -0.0193
  284loPI   C1B 4541   7.295   1.967   9.527 -0.1827 -0.0950 -0.0365
  284loPI   C2B 4542   7.188   2.088   9.071  0.1639  0.1470 -0.1262
  284loPI   C3B 4543   7.309   2.266   8.718 -0.0650  0.3265 -0.0364
  284loPI   C4B 4544   7.324   2.042   8.314 -0.1141 -0.1410  0.2942
  285loPI    C1 4545   5.061   7.015  10.296 -0.2088  0.2423  0.1330
  285loPI    C2 4546   5.112   7.215  10.639  0.1118 -0.0028  0.2340
  285loPI    C3 4547   4.836   6.926  10.614 -0.1364  0.2339  0.1821
  285loPI   PO4 4548   5.391   6.997  10.203  0.0411  0.0718 -0.0695
  285loPI   GL1 4549   5.449   6.892   9.778  0.1311 -0.1518  0.2480
  285loPI   GL2 4550   5.080   6.972   9.732  0.1903 -0.1273 -0.2367
  285loPI   C1A 4551   5.400   7.337   9.477 -0.1365  0.1560 -0.1627
  285loPI   C2A 4552   5.601   7.446   9.010 -0.1052  0.1665  0.1602
  285loPI   C3A 4553   5.544   7.386   8.597 -0.1388  0.0499  0.0961
  285loPI   C4A 4554   5.546   7.207   8.181 -0.1757 -0.5127  0.1529
  285loPI   C5A 4555   5.710   6.861   7.852  0.0545  0.0859 -0.1968
  285loPI   C6A 4556   5.594   6.414   7.842  0.0830  0.1197 -0.0202
  285loPI   C1B 4557   5.261   6.913   9.281 -0.2966 -0.0918 -0.0058
  285loPI   C2B 4558   5.306   7.012   8.950  0.4716 -0.3198  0.0764
  285loPI   C3B 4559   5.342   6.833   8.544  0.1894  0.2136  0.2111
  285loPI   C4B 4560   5.354   6.438   8.273 -0.2166 -0.0462 -0.1866
  286loPI    C1 4561  14.016  10.667  10.717 -0.1604 -0.0838 -0.0111
  286loPI    C2 4562  14.202  10.387  10.935 -0.1434 -0.1739 -0.1404
  286loPI    C3 4563  14.351  10.758  10.916 -0.2550 -0.1110  0.1627
  286loPI   PO4 4564  14.017  10.492  10.511  0.1487 -0.0232  0.0704
  286loPI   GL1 4565  14.081  10.246  10.053  0.1414 -0.2115  0.1575
  286loPI   GL2 4566  14.318  10.484  10.043  0.3576  0.1087 -0.0860
  286loPI   C1A 4567  14.357   9.910   9.994 -0.2046  0.0864 -0.0168
  286loPI   C2A 4568  14.643   9.809   9.726  0.3982  0.1435  0.0839
  286loPI   C3A 4569  14.699   9.966   9.247 -0.1930 -0.3448 -0.3359
  286loPI   C4A 4570  14.713   9.893   8.818 -0.0421  0.1146  0.2282
  286loPI   C5A 4571  15.070  10.047   8.714  0.2156 -0.0138 -0.1985
  286loPI   C6A 4572  15.372  10.259   8.480  0.0894  0.3246 -0.1110
  286loPI   C1B 4573  14.237  10.191   9.596 -0.0476 -0.0626  0.0393
  286loPI   C2B 4574  14.259  10.166   9.063 -0.1853  0.2423  0.0265
  286loPI   C3B 4575  14.410  10.282   8.612  0.1405 -0.0306  0.0372
  286loPI   C4B 4576  14.735  10.176   8.355  0.0024 -0.1858 -0.0561
  287loPI    C1 4577   6.109   3.076  10.490 -0.0955  0.0997 -0.0735
  287loPI    C2 4578   5.741   3.183  10.607 -0.0627 -0.1081  0.2286
  287loPI    C3 4579   6.057   3.406  10.710 -0.0586 -0.1664  0.3446
  287loPI   PO4 4580   6.129   3.072  10.270 -0.0843  0.2183 -0.1356
  287loPI   GL1 4581   5.965   2.799  10.015 -0.0238 -0.1838 -0.0044
  287loPI   GL2 4582   6.131   2.588   9.886  0.1321 -0.1269 -0.2792
  287loPI   C1A 4583   5.915   2.964   9.551  0.0167  0.0112 -0.0410
  287loPI   C2A 4584   5.938   2.774   9.150 -0.1969  0.0677 -0.2252
  287loPI   C3A 4585   6.007   2.733   8.678 -0.0211  0.1489 -0.0498
  287loPI   C4A 4586   5.875   2.806   8.258 -0.1502 -0.1376 -0.2217
  287loPI   C5A 4587   5.874   3.039   7.834 -0.0447  0.3240 -0.0062
  287loPI   C6A 4588   5.850   3.424   7.802  0.2684 -0.0507  0.1999
  287loPI   C1B 4589   5.833   2.455   9.554 -0.5401 -0.0248 -0.2069
  287loPI   C2B 4590   5.797   2.320   9.129 -0.1495  0.2272  0.1646
  287loPI   C3B 4591   5.801   2.283   8.714 -0.1881 -0.0355 -0.0535
  287loPI   C4B 4592   5.781   2.088   8.338  0.0116 -0.0151  0.1355
  288loPI    C1 4593   8.731  13.694  10.696  0.0770  0.1981 -0.0812
  288loPI    C2 4594   9.036  13.949  10.742  0.1554  0.0857  0.0303
  288loPI    C3 4595   8.736  13.946  11.007  0.1724  0.0379  0.0490
  288loPI   PO4 4596   8.621  13.665  10.463 -0.0133 -0.0129  0.1008
  288loPI   GL1 4597   8.783  13.750  10.119 -0.0921  0.2661  0.0825
  288loPI   GL2 4598   8.530  13.570   9.962 -0.0865  0.2127 -0.0221
  288loPI   C1A 4599   8.949  13.612   9.668  0.0458 -0.3729 -0.0526
  288loPI   C2A 4600   8.992  13.621   9.245  0.2130 -0.0548 -0.0445
  288loPI   C3A 4601   8.884  13.647   8.741  0.0284  0.0525 -0.0991
  288loPI   C4A 4602   8.765  13.663   8.241  0.0093 -0.1722  0.2366
  288loPI   C5A 4603   8.606  13.614   7.855  0.0624  0.0857  0.1127
  288loPI   C6A 4604   8.191  13.369   7.769  0.0292  0.2022  0.0603
  288loPI   C1B 4605   8.279  13.611   9.564  0.0939 -0.2345  0.0205
  288loPI   C2B 4606   8.139  13.735   9.099  0.3175  0.1649 -0.1196
  288loPI   C3B 4607   8.111  13.684   8.746  0.1465 -0.0163  0.1164
  288loPI   C4B 4608   8.073  13.570   8.304  0.3784  0.1022 -0.1359
  289loPI    C1 4609  14.666  11.521  10.835 -0.0497  0.0936  0.4004
  289loPI    C2 4610  14.361  11.749  10.958 -0.2224  0.3152 -0.3815
  289loPI    C3 4611  14.714  11.917  10.871  0.0592  0.0930  0.2702
  289loPI   PO4 4612  14.568  11.464  10.565  0.2600  0.0332  0.1103
  289loPI   GL1 4613  14.339  11.684  10.148  0.0809  0.0891 -0.3386
  289loPI   GL2 4614  14.568  11.829   9.929 -0.3333 -0.0668  0.0780
  289loPI   C1A 4615  14.299  11.394   9.787  0.1215 -0.0331  0.0511
  289loPI   C2A 4616  14.105  11.252   9.412 -0.1236 -0.0976  0.1450
  289loPI   C3A 4617  13.744  11.225   9.229 -0.1379  0.0674 -0.2494
  289loPI   C4A 4618  13.457  11.032   8.990  0.0381 -0.0299 -0.1918
  289loPI   C5A 4619  13.178  11.080   8.679 -0.1027 -0.2378 -0.1794
  289loPI   C6A 4620  13.200  10.980   8.264 -0.2249  0.0751 -0.2929
  289loPI   C1B 4621  14.400  11.988   9.496  0.2961  0.1261  0.1261
  289loPI   C2B 4622  14.293  11.954   9.068  0.1117 -0.0190  0.1776
  289loPI   C3B 4623  14.620  11.853   8.593  0.0523 -0.1726 -0.0339
  289loPI   C4B 4624  14.789  11.923   8.209 -0.2732 -0.0732 -0.2156
  290loPI    C1 4625  10.159   6.476  10.584  0.2463 -0.0208 -0.1980
  290loPI    C2 4626  10.018   6.110  10.660  0.0055  0.0600 -0.2481
  290loPI    C3 4627  10.144   6.341  10.961 -0.0263  0.0098 -0.1960
  290loPI   PO4 4628   9.991   6.582  10.412 -0.0454 -0.2035  0.0469
  290loPI   GL1 4629  10.124   6.866  10.077 -0.2299 -0.0765  0.3333
  290loPI   GL2 4630  10.319   7.016  10.093  0.2529  0.2020 -0.0823
  290loPI   C1A 4631   9.968   6.772   9.623 -0.1052 -0.2936  0.0825
  290loPI   C2A 4632   9.905   6.906   9.187  0.0020  0.2153 -0.1061
  290loPI   C3A 4633  10.047   6.856   8.792 -0.1942 -0.0646 -0.1381
  290loPI   C4A 4634  10.167   7.132   8.422  0.0458  0.2352 -0.2004
  290loPI   C5A 4635  10.345   7.342   8.166  0.0925 -0.0484 -0.1984
  290loPI   C6A 4636  10.092   7.728   8.106 -0.4368 -0.0250  0.0175
  290loPI   C1B 4637  10.438   7.213   9.645  0.0264 -0.1375  0.2046
  290loPI   C2B 4638  10.666   7.514   9.323 -0.0198 -0.1288 -0.1531
  290loPI   C3B 4639  10.750   7.708   8.937 -0.1144  0.1394  0.0089
  290loPI   C4B 4640  10.932   7.858   8.607  0.3173  0.2352 -0.2707
  291loPI    C1 4641   5.555   1.474  10.833  0.0319  0.1002  0.1711
  291loPI    C2 4642   5.727   1.154  11.001 -0.0195 -0.2027 -0.3320
  291loPI    C3 4643   5.348   1.135  10.873 -0.0656  0.1038 -0.2506
  291loPI   PO4 4644   5.775   1.485  10.577  0.2272  0.1071  0.1839
  291loPI   GL1 4645   5.781   1.661  10.182  0.0272 -0.0937 -0.0096
  291loPI   GL2 4646   5.658   1.426   9.966  0.0748  0.1965 -0.0822
  291loPI   C1A 4647   5.863   1.819   9.726  0.0341  0.2845 -0.0958
  291loPI   C2A 4648   5.867   1.828   9.272 -0.0989 -0.0326 -0.1079
  291loPI   C3A 4649   5.939   1.835   8.887 -0.2010 -0.1177 -0.2748
  291loPI   C4A 4650   6.013   1.673   8.513 -0.0520 -0.1236 -0.0679
  291loPI   C5A 4651   6.095   1.221   8.386  0.0490 -0.0061 -0.0262
  291loPI   C6A 4652   5.942   1.123   8.048 -0.2198  0.1919 -0.0679
  291loPI   C1B 4653   5.561   1.424   9.609 -0.0148  0.3332 -0.1493
  291loPI   C2B 4654   5.537   1.416   9.179 -0.0056  0.0507  0.1505
  291loPI   C3B 4655   5.761   1.332   8.784 -0.1650 -0.0461 -0.0430
  291loPI   C4B 4656   5.964   1.034   8.837 -0.2981  0.1395 -0.2477
  292loPI    C1 4657  10.265   8.274  10.393 -0.1628  0.2904 -0.0862
  292loPI    C2 4658  10.295   8.263  10.792 -0.2178  0.1815 -0.0847
  292loPI    C3 4659  10.580   8.440  10.575  0.0456 -0.1587 -0.0246
  292loPI   PO4 4660   9.970   8.386  10.308  0.0712  0.0588 -0.0118
  292loPI   GL1 4661   9.924   8.663   9.959  0.2331  0.0997  0.0321
  292loPI   GL2 4662   9.640   8.668   9.951 -0.2989 -0.1792 -0.0182
  292loPI   C1A 4663  10.002   8.725   9.501 -0.0940 -0.0728  0.2199
  292loPI   C2A 4664  10.116   8.901   9.096  0.3080  0.1913  0.2481
  292loPI   C3A 4665  10.052   8.669   8.794 -0.0971 -0.3002  0.0751
  292loPI   C4A 4666  10.270   8.547   8.471 -0.3173  0.1283 -0.0417
  292loPI   C5A 4667  10.404   8.404   8.096 -0.1436 -0.0467  0.3085
  292loPI   C6A 4668  10.790   8.296   8.054  0.0940 -0.3111 -0.2360
  292loPI   C1B 4669   9.564   8.691   9.438  0.2516  0.1829  0.2889
  292loPI   C2B 4670   9.601   8.702   8.977 -0.3272  0.2120 -0.0310
  292loPI   C3B 4671   9.737   9.069   8.829  0.0833  0.0077 -0.3192
  292loPI   C4B 4672   9.779   9.093   8.430  0.1911 -0.1845 -0.1034
  293loPI    C1 4673  10.931   3.850  10.395 -0.1315 -0.0182 -0.1205
  293loPI    C2 4674  10.613   3.802  10.633  0.0459  0.0825  0.1409
  293loPI    C3 4675  10.947   3.969  10.777  0.1545  0.1499 -0.1821
  293loPI   PO4 4676  10.842   3.718  10.181 -0.2207  0.0216 -0.0357
  293loPI   GL1 4677  10.893   3.263  10.019 -0.1554  0.0101 -0.1931
  293loPI   GL2 4678  10.634   3.127   9.786 -0.3621 -0.0781  0.2813
  293loPI   C1A 4679  11.102   3.473   9.694  0.0582  0.1313  0.0836
  293loPI   C2A 4680  11.210   3.605   9.287  0.2872  0.0503  0.3107
  293loPI   C3A 4681  11.338   3.501   8.860  0.0450  0.0536 -0.1566
  293loPI   C4A 4682  11.402   3.820   8.535  0.1996  0.0458  0.0069
  293loPI   C5A 4683  11.693   3.733   8.165  0.0545 -0.0053  0.3099
  293loPI   C6A 4684  11.643   3.633   7.695  0.0308  0.0304  0.3820
  293loPI   C1B 4685  10.757   3.299   9.309 -0.0164 -0.2530 -0.1826
  293loPI   C2B 4686  10.716   3.184   8.960  0.4795 -0.1472 -0.2577
  293loPI   C3B 4687  10.991   3.160   8.656 -0.1017  0.1264 -0.2039
  293loPI   C4B 4688  11.193   3.383   8.305 -0.2664  0.1069 -0.3450
  294loPI    C1 4689   4.694  10.789   9.995  0.1080 -0.0164 -0.2133
  294loPI    C2 4690   4.870  10.702  10.343  0.0910  0.2274 -0.1419
  294loPI    C3 4691   4.535  10.512  10.235  0.2301 -0.0229 -0.1395
  294loPI   PO4 4692   4.674  11.004   9.995  0.0011  0.3672 -0.3926
  294loPI   GL1 4693   4.577  11.327   9.757 -0.1770  0.0104  0.2895
  294loPI   GL2 4694   4.627  11.676   9.676  0.4048  0.1718  0.0182
  294loPI   C1A 4695   4.396  11.122   9.363  0.0125  0.1647 -0.1326
  294loPI   C2A 4696   4.269  10.941   9.006 -0.0473 -0.2087 -0.1438
  294loPI   C3A 4697   4.248  10.875   8.564  0.0698 -0.1145 -0.1682
  294loPI   C4A 4698   3.939  10.931   8.272 -0.2449  0.0090  0.0603
  294loPI   C5A 4699   3.578  10.821   7.925  0.0308  0.2117  0.1373
  294loPI   C6A 4700   3.761  10.575   7.524 -0.1690  0.1098  0.2187
  294loPI   C1B 4701   4.495  11.839   9.197 -0.0421  0.1465 -0.1967
  294loPI   C2B 4702   4.415  11.731   8.774 -0.1734  0.0386 -0.0866
  294loPI   C3B 4703   4.337  11.922   8.476 -0.0721 -0.1685  0.1440
  294loPI   C4B 4704   4.014  11.891   8.195  0.2275 -0.1471 -0.1154
  295loPI    C1 4705   5.258   3.953  10.655  0.3931  0.1452  0.2882
  295loPI    C2 4706   5.368   4.286  10.461  0.2111 -0.0390 -0.1435
  295loPI    C3 4707   4.997   4.141  10.417  0.2209 -0.1825  0.2119
  295loPI   PO4 4708   5.516   3.757  10.573 -0.2597 -0.3040 -0.1027
  295loPI   GL1 4709   5.565   3.774  10.180 -0.5438 -0.0915  0.0650
  295loPI   GL2 4710   5.206   3.760  10.176 -0.3768 -0.1537 -0.1492
  295loPI   C1A 4711   5.877   3.858   9.927  0.2977  0.0357 -0.0596
  295loPI   C2A 4712   5.888   3.809   9.477 -0.0824 -0.2730  0.0742
  295loPI   C3A 4713   5.739   3.988   9.153 -0.1792 -0.1329  0.2890
  295loPI   C4A 4714   5.767   4.439   9.125 -0.0027  0.1152 -0.2264
  295loPI   C5A 4715   5.895   4.736   8.904  0.1509 -0.0134  0.0994
  295loPI   C6A 4716   5.901   4.689   8.455 -0.1503 -0.3629  0.0966
  295loPI   C1B 4717   4.915   3.789   9.767 -0.1992  0.0818 -0.1675
  295loPI   C2B 4718   4.918   3.821   9.382 -0.0113 -0.4031  0.1670
  295loPI   C3B 4719   5.001   3.849   8.924 -0.0209  0.2979 -0.1533
  295loPI   C4B 4720   5.024   4.129   8.549 -0.1540  0.6224  0.0059
  296loPI    C1 4721  17.060   7.180  11.059 -0.1143 -0.0442 -0.2050
  296loPI    C2 4722  16.846   7.343  10.763 -0.3958 -0.2874 -0.1400
  296loPI    C3 4723  16.891   7.539  11.108  0.0738  0.0724 -0.3936
  296loPI   PO4 4724  17.262   7.109  10.976 -0.1937  0.1771  0.1467
  296loPI   GL1 4725  17.297   7.172  10.545  0.1153 -0.0686  0.1660
  296loPI   GL2 4726  17.251   7.510  10.413 -0.0552  0.0116 -0.1926
  296loPI   C1A 4727  17.551   7.132  10.290 -0.0895  0.1581  0.1133
  296loPI   C2A 4728  17.664   6.862   9.955  0.1776 -0.0670  0.2522
  296loPI   C3A 4729  17.850   6.748   9.549  0.0212 -0.0692  0.0502
  296loPI   C4A 4730  17.974   6.783   9.125 -0.0997  0.3408 -0.0279
  296loPI   C5A 4731  18.293   6.876   8.802 -0.0877  0.1239 -0.1154
  296loPI   C6A 4732  18.490   6.797   8.287  0.0011 -0.2714  0.2439
  296loPI   C1B 4733  17.391   7.550  10.054  0.2843 -0.1286 -0.1368
  296loPI   C2B 4734  17.427   7.339   9.667 -0.0707  0.0857 -0.3527
  296loPI   C3B 4735  17.467   7.013   9.461  0.2553 -0.2487 -0.3483
  296loPI   C4B 4736  17.487   6.798   9.010 -0.0411 -0.0096  0.1730
  297loPI    C1 4737   3.592   1.646  10.579 -0.1726  0.1414 -0.0594
  297loPI    C2 4738   3.784   1.533  10.912 -0.3817 -0.1559 -0.0355
  297loPI    C3 4739   3.618   1.896  10.890 -0.0222  0.0164  0.0304
  297loPI   PO4 4740   3.759   1.645  10.406  0.1010 -0.0360 -0.1124
  297loPI   GL1 4741   3.830   1.798   9.978  0.1600 -0.2944 -0.3629
  297loPI   GL2 4742   3.902   1.398   9.932 -0.2606 -0.0676 -0.3673
  297loPI   C1A 4743   3.755   1.929   9.611  0.0026 -0.4089  0.1823
  297loPI   C2A 4744   3.891   1.856   9.184 -0.2882 -0.1561 -0.1887
  297loPI   C3A 4745   3.742   1.806   8.780  0.2344  0.0406  0.0613
  297loPI   C4A 4746   3.841   1.683   8.416 -0.1018 -0.0868 -0.1246
  297loPI   C5A 4747   4.034   1.562   8.112 -0.0614 -0.2142 -0.1408
  297loPI   C6A 4748   4.407   1.296   7.938  0.1744 -0.2150 -0.3088
  297loPI   C1B 4749   3.907   1.401   9.458 -0.0602 -0.1058 -0.1871
  297loPI   C2B 4750   4.191   1.398   9.050 -0.1215 -0.0707  0.2323
  297loPI   C3B 4751   4.230   1.846   8.711 -0.1082 -0.0218 -0.2252
  297loPI   C4B 4752   4.664   2.090   8.680 -0.0362  0.0177 -0.3626
  298loPI    C1 4753   7.583   8.199  10.294 -0.1185  0.1613  0.0721
  298loPI    C2 4754   7.504   8.488  10.559 -0.2360  0.0374  0.1741
  298loPI    C3 4755   7.354   8.121  10.613 -0.1520 -0.0230  0.0044
  298loPI   PO4 4756   7.590   8.320  10.060  0.2256  0.0117 -0.0487
  298loPI   GL1 4757   7.868   8.522   9.783  0.3687  0.0034 -0.2599
  298loPI   GL2 4758   7.688   8.853   9.746 -0.0221  0.0352 -0.2732
  298loPI   C1A 4759   7.984   8.586   9.413  0.0149 -0.4476 -0.0039
  298loPI   C2A 4760   8.125   8.458   9.074  0.2792 -0.0904  0.0071
  298loPI   C3A 4761   8.318   8.343   8.614  0.0643  0.0237 -0.0347
  298loPI   C4A 4762   8.433   8.358   8.138 -0.3278 -0.2582  0.2881
  298loPI   C5A 4763   8.791   8.542   7.839  0.2720 -0.0281 -0.6214
  298loPI   C6A 4764   9.201   8.602   7.664 -0.0706  0.1865  0.1500
  298loPI   C1B 4765   7.725   8.998   9.421  0.0067 -0.0508 -0.3088
  298loPI   C2B 4766   7.772   8.881   8.964  0.0006 -0.0257 -0.2409
  298loPI   C3B 4767   7.919   9.060   8.615  0.1577  0.0069  0.1329
  298loPI   C4B 4768   8.035   8.727   8.303 -0.1353 -0.1436  0.2142
  299loPI    C1 4769   1.908  11.308  10.881  0.2546 -0.0349 -0.0227
  299loPI    C2 4770   2.064  11.147  11.212  0.1772 -0.1230 -0.0287
  299loPI    C3 4771   1.705  11.323  11.225  0.1225 -0.2291 -0.0904
  299loPI   PO4 4772   1.838  11.136  10.771 -0.0425  0.1685  0.0588
  299loPI   GL1 4773   1.726  11.251  10.357  0.1034  0.0442 -0.0065
  299loPI   GL2 4774   1.777  11.498  10.426  0.2186 -0.1042  0.1697
  299loPI   C1A 4775   1.383  11.338  10.091  0.0023  0.1635 -0.1989
  299loPI   C2A 4776   1.272  11.650   9.713  0.0123  0.2136  0.2193
  299loPI   C3A 4777   1.098  11.706   9.262  0.1906 -0.1008  0.6724
  299loPI   C4A 4778   0.989  11.686   8.888 -0.1643 -0.0204 -0.0666
  299loPI   C5A 4779   0.986  11.907   8.485  0.0221 -0.0389 -0.0624
  299loPI   C6A 4780   1.349  11.707   8.245  0.0962  0.0224  0.0031
  299loPI   C1B 4781   1.691  11.702  10.034 -0.0957 -0.4290  0.1765
  299loPI   C2B 4782   1.742  11.650   9.590 -0.2282  0.0050  0.1363
  299loPI   C3B 4783   1.592  11.658   9.138 -0.1374 -0.0710  0.0006
  299loPI   C4B 4784   1.559  11.754   8.723  0.1907 -0.1639 -0.1128
  300loPI    C1 4785   1.407  12.350  10.824 -0.2375 -0.2614  0.0121
  300loPI    C2 4786   1.404  12.150  11.171  0.0306 -0.3122 -0.0128
  300loPI    C3 4787   1.159  12.462  11.117  0.2619 -0.0561  0.3707
  300loPI   PO4 4788   1.351  12.210  10.661  0.0914 -0.1762 -0.1176
  300loPI   GL1 4789   1.270  12.225  10.258 -0.0028 -0.2830  0.0904
  300loPI   GL2 4790   1.015  12.498  10.335  0.0344  0.1720 -0.1479
  300loPI   C1A 4791   1.464  12.078   9.884  0.0843 -0.1536 -0.0904
  300loPI   C2A 4792   1.514  12.031   9.413 -0.2128  0.2175  0.0069
  300loPI   C3A 4793   1.682  12.217   9.038  0.0829 -0.1753  0.0073
  300loPI   C4A 4794   1.757  12.365   8.578 -0.2369  0.1191  0.0051
  300loPI   C5A 4795   1.462  12.687   8.494  0.2847 -0.1932 -0.3522
  300loPI   C6A 4796   1.291  13.037   8.324 -0.3559  0.3069  0.0526
  300loPI   C1B 4797   1.062  12.470   9.877 -0.0417 -0.1990  0.3347
  300loPI   C2B 4798   1.225  12.398   9.484 -0.1645  0.0468 -0.2280
  300loPI   C3B 4799   1.162  12.220   9.143  0.2932  0.0876  0.0841
  300loPI   C4B 4800   1.277  12.176   8.784  0.0353 -0.0317  0.2423
  301loPI    C1 4801  11.184  10.878  10.861  0.1255  0.0403  0.1467
  301loPI    C2 4802  11.113  11.252  10.986 -0.1806 -0.0170  0.1525
  301loPI    C3 4803  11.095  10.947  11.245 -0.0344 -0.0484  0.1267
  301loPI   PO4 4804  11.378  10.847  10.706  0.0613  0.0544 -0.1857
  301loPI   GL1 4805  11.261  10.822  10.279  0.3291 -0.0344 -0.1591
  301loPI   GL2 4806  11.023  10.543  10.164 -0.0481 -0.0614  0.1705
  301loPI   C1A 4807  11.531  10.602  10.072  0.2159 -0.0455  0.1546
  301loPI   C2A 4808  11.528  10.628   9.588 -0.3931  0.1889 -0.3107
  301loPI   C3A 4809  11.468  10.571   9.162 -0.0098 -0.1919 -0.0559
  301loPI   C4A 4810  11.486  10.407   8.702 -0.1464 -0.2083  0.0396
  301loPI   C5A 4811  11.691  10.128   8.426 -0.0805  0.0638  0.0320
  301loPI   C6A 4812  11.896   9.900   8.003  0.1594 -0.0911  0.1160
  301loPI   C1B 4813  11.141  10.756   9.811 -0.3085  0.0950  0.0152
  301loPI   C2B 4814  11.489  11.117   9.560 -0.1236  0.1379  0.0902
  301loPI   C3B 4815  11.965  10.965   9.487 -0.1090  0.0694 -0.0668
  301loPI   C4B 4816  12.051  10.786   9.088 -0.0844  0.1252  0.1069
  302loPI    C1 4817   7.380  15.566  10.586  0.0679 -0.3319 -0.0980
  302loPI    C2 4818   7.583  15.436  10.267  0.0847 -0.2831 -0.1072
  302loPI    C3 4819   7.744  15.408  10.632  0.1468 -0.1604 -0.1247
  302loPI   PO4 4820   7.118  15.361  10.520 -0.0500 -0.2947  0.0720
  302loPI   GL1 4821   6.877  15.195  10.106  0.2225 -0.0018 -0.0050
  302loPI   GL2 4822   6.782  14.823  10.019  0.2296  0.1524 -0.0192
  302loPI   C1A 4823   7.203  15.242   9.749  0.5259 -0.2099 -0.2102
  302loPI   C2A 4824   7.415  15.182   9.460  0.0849 -0.1065 -0.1478
  302loPI   C3A 4825   7.504  15.029   9.118 -0.1097 -0.1897 -0.2368
  302loPI   C4A 4826   7.497  15.130   8.726  0.1684  0.3520 -0.0229
  302loPI   C5A 4827   7.592  15.065   8.249 -0.3218  0.1043 -0.3499
  302loPI   C6A 4828   7.459  14.728   7.932 -0.1063  0.2341  0.3466
  302loPI   C1B 4829   6.812  14.850   9.559 -0.0161  0.0156  0.1964
  302loPI   C2B 4830   6.691  14.747   9.143 -0.0945 -0.1454  0.0615
  302loPI   C3B 4831   6.497  14.649   8.802  0.1734  0.1224  0.5270
  302loPI   C4B 4832   6.283  14.722   8.456  0.0800 -0.0704 -0.0654
  303loPI    C1 4833   9.873   1.681  10.173  0.1139  0.0754  0.0151
  303loPI    C2 4834   9.839   1.673  10.571  0.1119  0.0802  0.0150
  303loPI    C3 4835   9.641   1.406  10.349  0.2495 -0.0330  0.0271
  303loPI   PO4 4836   9.865   1.981  10.129 -0.1696  0.4012 -0.1223
  303loPI   GL1 4837   9.598   2.063   9.902 -0.2708  0.1003 -0.1699
  303loPI   GL2 4838   9.273   2.175   9.792  0.0591  0.0560 -0.0975
  303loPI   C1A 4839   9.730   2.009   9.425  0.3924 -0.0997 -0.0959
  303loPI   C2A 4840   9.548   1.657   9.156  0.0466  0.0766  0.1743
  303loPI   C3A 4841   9.654   1.444   8.789 -0.0029  0.1308  0.0087
  303loPI   C4A 4842   9.608   1.337   8.330  0.1264 -0.0105 -0.4404
  303loPI   C5A 4843   9.337   1.111   8.053 -0.2596 -0.0129 -0.0914
  303loPI   C6A 4844   9.055   1.230   7.696 -0.0420 -0.1586 -0.2996
  303loPI   C1B 4845   9.244   1.789   9.591 -0.1192 -0.1185 -0.1095
  303loPI   C2B 4846   9.184   1.356   9.508  0.0253  0.0790 -0.1792
  303loPI   C3B 4847   9.143   1.177   9.077 -0.1393 -0.1494 -0.0488
  303loPI   C4B 4848   9.210   1.253   8.640  0.1315  0.0331  0.1186
  304loPI    C1 4849  12.430   8.223  10.990 -0.2122  0.2702  0.1385
  304loPI    C2 4850  12.075   8.056  11.069 -0.0302 -0.3424 -0.2585
  304loPI    C3 4851  12.368   8.042  11.341 -0.1537 -0.2740 -0.1202
  304loPI   PO4 4852  12.378   8.223  10.665  0.1285 -0.1675 -0.0542
  304loPI   GL1 4853  12.332   7.997  10.286  0.1509 -0.2315  0.0944
  304loPI   GL2 4854  12.597   7.820  10.185  0.0167  0.0754 -0.1379
  304loPI   C1A 4855  12.419   8.167   9.853 -0.2912  0.0930  0.1521
  304loPI   C2A 4856  12.383   8.399   9.520  0.2947  0.0860 -0.1216
  304loPI   C3A 4857  12.494   8.099   9.253  0.3336  0.1555 -0.0098
  304loPI   C4A 4858  12.358   7.943   8.824 -0.0726 -0.1294 -0.2425
  304loPI   C5A 4859  12.461   8.071   8.386 -0.1344  0.1020  0.0372
  304loPI   C6A 4860  12.625   8.539   8.108  0.1465 -0.3617 -0.1139
  304loPI   C1B 4861  12.648   7.749   9.729  0.3398 -0.2888  0.0138
  304loPI   C2B 4862  12.758   7.700   9.293  0.2223  0.3529 -0.0441
  304loPI   C3B 4863  12.828   7.561   8.845  0.0190 -0.1817 -0.1071
  304loPI   C4B 4864  12.741   7.609   8.413 -0.2452  0.1796 -0.1569
  305loPI    C1 4865   2.157   2.847  10.503  0.1372  0.0843  0.1821
  305loPI    C2 4866   1.868   2.813  10.778 -0.1248 -0.2369 -0.1249
  305loPI    C3 4867   2.166   2.547  10.767  0.0958 -0.0035  0.0841
  305loPI   PO4 4868   2.077   2.932  10.383  0.0685  0.1491  0.3313
  305loPI   GL1 4869   2.003   3.245  10.030  0.1535 -0.0271 -0.0881
  305loPI   GL2 4870   2.288   3.053   9.926  0.0520  0.1853 -0.0713
  305loPI   C1A 4871   1.961   3.323   9.561 -0.2637  0.0935 -0.1700
  305loPI   C2A 4872   1.974   3.331   9.141 -0.2735  0.0673  0.0193
  305loPI   C3A 4873   1.932   3.370   8.692 -0.1350 -0.0625  0.1548
  305loPI   C4A 4874   1.961   3.516   8.244  0.0506 -0.0901  0.1000
  305loPI   C5A 4875   1.840   3.427   7.855  0.0654 -0.0698 -0.1666
  305loPI   C6A 4876   1.706   3.532   7.437 -0.1629  0.1108 -0.2698
  305loPI   C1B 4877   2.344   3.003   9.459  0.1622 -0.1094 -0.2176
  305loPI   C2B 4878   2.334   2.954   8.905 -0.0928 -0.0801 -0.0047
  305loPI   C3B 4879   2.112   2.851   8.485 -0.2696 -0.2894  0.1708
  305loPI   C4B 4880   2.184   2.533   8.127 -0.1308 -0.0815 -0.0110
  306loPI    C1 4881   3.019   6.644  10.514 -0.3820 -0.0585 -0.0254
  306loPI    C2 4882   3.335   6.565  10.747  0.0349  0.0310 -0.5405
  306loPI    C3 4883   2.966   6.468  10.869  0.2235  0.1819  0.1972
  306loPI   PO4 4884   3.054   6.607  10.215 -0.1382  0.0875 -0.1434
  306loPI   GL1 4885   3.261   6.364   9.878 -0.1720  0.3422 -0.0585
  306loPI   GL2 4886   3.402   6.086   9.941 -0.2044 -0.1146  0.1297
  306loPI   C1A 4887   3.253   6.613   9.486 -0.1794 -0.1791 -0.1696
  306loPI   C2A 4888   3.340   6.552   9.068 -0.3338  0.0274  0.1211
  306loPI   C3A 4889   3.520   6.623   8.700 -0.0698 -0.2668 -0.5065
  306loPI   C4A 4890   3.227   6.583   8.398 -0.3000  0.0842  0.0490
  306loPI   C5A 4891   3.077   6.267   8.056  0.1164  0.2279  0.4981
  306loPI   C6A 4892   3.296   5.999   7.957  0.2226 -0.0876  0.1309
  306loPI   C1B 4893   3.379   6.166   9.418  0.1173 -0.2150 -0.2130
  306loPI   C2B 4894   3.239   6.019   8.982 -0.0630 -0.2264 -0.1227
  306loPI   C3B 4895   3.086   6.195   8.645 -0.1414  0.0747  0.3530
  306loPI   C4B 4896   2.886   5.891   8.342  0.0426 -0.0576  0.1576
  307loPI    C1 4897  12.939  15.986  10.447 -0.0479  0.1362  0.0717
  307loPI    C2 4898  13.076  16.231  10.732 -0.1640  0.1990  0.0743
  307loPI    C3 4899  13.040  15.839  10.805 -0.3632  0.2408  0.2075
  307loPI   PO4 4900  13.096  16.139  10.244  0.1184 -0.1332  0.2060
  307loPI   GL1 4901  13.129  16.307   9.960  0.0418 -0.0719 -0.3284
  307loPI   GL2 4902  13.476  16.349  10.014  0.3086 -0.2735 -0.1186
  307loPI   C1A 4903  13.300  16.747   9.800 -0.1285  0.1721  0.4109
  307loPI   C2A 4904  13.477  17.051   9.684 -0.0840 -0.0781 -0.1712
  307loPI   C3A 4905  13.510  17.179   9.268 -0.2082 -0.2560  0.2001
  307loPI   C4A 4906  13.705  17.307   8.815 -0.1628  0.0404  0.2856
  307loPI   C5A 4907  13.831  17.321   8.360  0.0169  0.0258  0.0027
  307loPI   C6A 4908  13.962  17.183   8.012  0.0913  0.2605 -0.1072
  307loPI   C1B 4909  13.769  16.544   9.733  0.1862 -0.3759 -0.2764
  307loPI   C2B 4910  13.946  16.522   9.356 -0.1486 -0.2699  0.2141
  307loPI   C3B 4911  14.001  16.363   8.996  0.2444  0.0592  0.0858
  307loPI   C4B 4912  14.131  16.479   8.656 -0.1221  0.1665  0.4664
  308loPI    C1 4913  12.498   6.492  11.099  0.0183 -0.0134 -0.0373
  308loPI    C2 4914  12.681   6.822  11.231 -0.0522 -0.0053  0.0416
  308loPI    C3 4915  12.724   6.477  11.428 -0.0243 -0.0307 -0.0087
  308loPI   PO4 4916  12.502   6.716  10.791 -0.1589  0.0810 -0.4422
  308loPI   GL1 4917  12.377   6.845  10.443 -0.0807  0.2978 -0.0906
  308loPI   GL2 4918  12.621   6.773  10.256 -0.0571 -0.1364  0.0986
  308loPI   C1A 4919  12.244   6.910  10.035 -0.2015 -0.2643  0.2427
  308loPI   C2A 4920  12.125   6.628   9.653  0.0374 -0.2354  0.3189
  308loPI   C3A 4921  11.844   6.673   9.328 -0.0014 -0.1334 -0.5284
  308loPI   C4A 4922  11.752   6.590   8.895 -0.0104 -0.0834  0.1211
  308loPI   C5A 4923  11.735   6.945   8.606  0.0435  0.2948 -0.0768
  308loPI   C6A 4924  12.194   7.117   8.392  0.0762  0.0412  0.1247
  308loPI   C1B 4925  12.791   7.084   9.914 -0.1010 -0.3351  0.1391
  308loPI   C2B 4926  12.944   7.286   9.479 -0.1443  0.1005 -0.2250
  308loPI   C3B 4927  13.136   7.346   9.120  0.4682  0.1631  0.0093
  308loPI   C4B 4928  13.275   7.762   8.858 -0.0018 -0.0314  0.0037
  309loPI    C1 4929  16.209  10.782  10.755 -0.1825  0.0410  0.1549
  309loPI    C2 4930  16.271  11.025  11.067  0.0054 -0.0377  0.1803
  309loPI    C3 4931  16.493  11.063  10.737 -0.1616  0.0147  0.0727
  309loPI   PO4 4932  15.948  10.778  10.704  0.1024  0.1120  0.3224
  309loPI   GL1 4933  15.945  11.007  10.323  0.1210 -0.0242  0.0763
  309loPI   GL2 4934  16.172  11.048  10.239 -0.3342  0.0200 -0.1014
  309loPI   C1A 4935  15.835  11.034   9.889  0.1145 -0.0200  0.0319
  309loPI   C2A 4936  16.064  11.029   9.536 -0.1731 -0.0069 -0.1411
  309loPI   C3A 4937  16.023  10.865   9.238  0.0669  0.2168  0.0017
  309loPI   C4A 4938  15.866  10.726   8.824 -0.0356  0.0793  0.1048
  309loPI   C5A 4939  15.886  10.416   8.417 -0.2008 -0.3576  0.1727
  309loPI   C6A 4940  15.697  10.463   7.932  0.1326 -0.0883  0.2301
  309loPI   C1B 4941  16.274  10.780  10.020 -0.0950 -0.0036  0.2054
  309loPI   C2B 4942  16.097  10.545   9.646 -0.1181 -0.3093 -0.1860
  309loPI   C3B 4943  16.060  10.262   9.273  0.0423 -0.2237 -0.1638
  309loPI   C4B 4944  16.092  10.152   8.853 -0.0930 -0.0557 -0.4151
  310loPI    C1 4945   4.682  11.782  10.195 -0.1669  0.0895 -0.0859
  310loPI    C2 4946   4.920  11.468  10.125 -0.1334  0.0970 -0.0066
  310loPI    C3 4947   4.931  11.652  10.480 -0.2345  0.1174 -0.0136
  310loPI   PO4 4948   4.709  12.056  10.053 -0.0070 -0.0423  0.0230
  310loPI   GL1 4949   4.384  12.135   9.653  0.1239 -0.0048 -0.1365
  310loPI   GL2 4950   4.034  11.947   9.549  0.1106 -0.1687 -0.0028
  310loPI   C1A 4951   4.645  12.328   9.401 -0.2934  0.0383  0.1373
  310loPI   C2A 4952   4.723  12.711   9.114 -0.2387 -0.2137  0.0628
  310loPI   C3A 4953   4.886  12.729   8.671 -0.2276  0.0889  0.3060
  310loPI   C4A 4954   4.717  12.623   8.319  0.0196  0.0162 -0.0802
  310loPI   C5A 4955   4.414  12.665   8.073  0.1775 -0.1603 -0.1948
  310loPI   C6A 4956   3.992  12.488   7.974 -0.0905 -0.1677 -0.0760
  310loPI   C1B 4957   3.986  11.902   9.106  0.0283 -0.0367 -0.1140
  310loPI   C2B 4958   3.983  12.108   8.726  0.4807 -0.1323 -0.1713
  310loPI   C3B 4959   3.578  12.143   8.383 -0.3510  0.0424 -0.1825
  310loPI   C4B 4960   3.332  12.565   8.246  0.0420 -0.1276  0.2239
  311loPI    C1 4961   7.098   6.548  10.752  0.0736 -0.1551  0.1895
  311loPI    C2 4962   7.273   6.188  10.741 -0.0316 -0.2020  0.0211
  311loPI    C3 4963   7.481   6.508  10.861  0.1375 -0.2758 -0.0712
  311loPI   PO4 4964   6.953   6.591  10.494 -0.0261 -0.1006  0.2710
  311loPI   GL1 4965   6.835   6.702  10.008 -0.1952  0.1083 -0.0703
  311loPI   GL2 4966   6.851   7.116  10.127 -0.0492 -0.1720 -0.1843
  311loPI   C1A 4967   6.661   6.642   9.635 -0.2971 -0.4275  0.1693
  311loPI   C2A 4968   6.538   6.328   9.266 -0.2600  0.2233 -0.1342
  311loPI   C3A 4969   6.505   6.291   8.804 -0.0726 -0.2881  0.0961
  311loPI   C4A 4970   6.678   6.091   8.390  0.1414  0.0663 -0.0856
  311loPI   C5A 4971   6.591   5.891   8.043 -0.2382  0.0503  0.0656
  311loPI   C6A 4972   6.546   6.220   7.756  0.0506 -0.0539  0.0775
  311loPI   C1B 4973   6.815   7.111   9.708  0.1579 -0.1253  0.0951
  311loPI   C2B 4974   6.787   6.945   9.246  0.2327 -0.2001  0.0530
  311loPI   C3B 4975   6.641   6.767   8.855  0.0501 -0.0450 -0.1302
  311loPI   C4B 4976   6.270   6.689   8.577  0.1503  0.3436  0.0491
  312loPI    C1 4977  14.793   4.725  11.185 -0.1079 -0.1348 -0.0280
  312loPI    C2 4978  14.900   5.080  11.034 -0.1663 -0.1091 -0.0094
  312loPI    C3 4979  15.176   4.838  11.193 -0.1310 -0.0582  0.0069
  312loPI   PO4 4980  14.737   4.570  10.966 -0.2650 -0.0593 -0.2770
  312loPI   GL1 4981  14.926   4.541  10.574 -0.0227  0.0152  0.1270
  312loPI   GL2 4982  14.740   4.881  10.612  0.3048  0.2974  0.3104
  312loPI   C1A 4983  14.938   4.601  10.114  0.0171 -0.2168  0.1351
  312loPI   C2A 4984  15.063   4.211   9.809  0.0753 -0.2296  0.0044
  312loPI   C3A 4985  15.097   4.302   9.384  0.1547  0.0697 -0.0056
  312loPI   C4A 4986  15.112   4.321   8.935  0.0309  0.0304 -0.0441
  312loPI   C5A 4987  15.031   4.678   8.792 -0.0561  0.1823 -0.0527
  312loPI   C6A 4988  14.611   4.876   8.725 -0.0955 -0.0254 -0.0531
  312loPI   C1B 4989  14.598   5.020  10.240  0.3380  0.1269 -0.2628
  312loPI   C2B 4990  14.486   4.808   9.841  0.1026 -0.0647 -0.2683
  312loPI   C3B 4991  14.570   4.947   9.467  0.0136  0.4421  0.3218
  312loPI   C4B 4992  14.700   4.678   9.184 -0.0132 -0.1490 -0.0139
  313loPI    C1 4993  13.645  12.365  10.457  0.0688 -0.0614 -0.0316
  313loPI    C2 4994  13.947  12.110  10.392  0.1741  0.0626 -0.0324
  313loPI    C3 4995  13.923  12.308  10.739  0.0969  0.0577 -0.0347
  313loPI   PO4 4996  13.527  12.524  10.280 -0.0816 -0.2228  0.2262
  313loPI   GL1 4997  13.257  12.555   9.889 -0.0462 -0.0213 -0.2095
  313loPI   GL2 4998  13.399  12.861   9.829 -0.0097  0.1580 -0.2316
  313loPI   C1A 4999  13.378  12.344   9.600  0.1130  0.1920 -0.0353
  313loPI   C2A 5000  13.430  12.106   9.246  0.3515 -0.0271  0.1423
  313loPI   C3A 5001  13.437  12.061   8.838 -0.2977 -0.0356  0.1006
  313loPI   C4A 5002  13.563  11.854   8.513 -0.0944  0.1409 -0.2966
  313loPI   C5A 5003  13.427  11.972   8.204  0.0472 -0.0984 -0.3717
  313loPI   C6A 5004  13.469  12.407   8.233 -0.0828  0.2180  0.1388
  313loPI   C1B 5005  13.275  12.860   9.410  0.1856  0.0631 -0.1766
  313loPI   C2B 5006  13.220  13.066   9.156 -0.1535 -0.0214 -0.5295
  313loPI   C3B 5007  13.248  13.015   8.804  0.1070 -0.0514 -0.2374
  313loPI   C4B 5008  13.401  12.865   8.402  0.0137  0.0140  0.4375
  314loPI    C1 5009  10.052  11.681  10.909 -0.0165  0.0832  0.1865
  314loPI    C2 5010   9.797  11.404  11.046 -0.0433  0.1027  0.1763
  314loPI    C3 5011   9.658  11.751  10.904 -0.0390 -0.0462 -0.2028
  314loPI   PO4 5012  10.221  11.501  10.750 -0.0024  0.1324 -0.4285
  314loPI   GL1 5013  10.207  11.299  10.287  0.0440 -0.3698  0.0704
  314loPI   GL2 5014  10.350  11.669  10.244 -0.1424  0.2073 -0.1774
  314loPI   C1A 5015  10.378  11.253   9.803 -0.1354  0.1722  0.0324
  314loPI   C2A 5016  10.460  11.206   9.313  0.2158  0.1521  0.0825
  314loPI   C3A 5017  10.250  11.173   9.037  0.0923  0.0135 -0.0931
  314loPI   C4A 5018  10.162  11.023   8.677 -0.0310  0.2601  0.3313
  314loPI   C5A 5019  10.000  10.604   8.435  0.1585  0.2146  0.0756
  314loPI   C6A 5020   9.808  10.609   8.032  0.2388  0.2415  0.0463
  314loPI   C1B 5021  10.410  11.993   9.876 -0.1129 -0.0768  0.1853
  314loPI   C2B 5022  10.512  12.054   9.450  0.2845  0.2340  0.2931
  314loPI   C3B 5023  10.379  12.211   9.097  0.0347  0.1985  0.3049
  314loPI   C4B 5024  10.369  11.974   8.753  0.1518  0.3265 -0.4600
  315loPI    C1 5025  10.926  10.377  10.666  0.1283  0.2756  0.1492
  315loPI    C2 5026  11.289  10.323  10.505 -0.0023 -0.0528 -0.0441
  315loPI    C3 5027  11.227  10.238  10.891  0.0618 -0.2647 -0.0788
  315loPI   PO4 5028  10.757  10.237  10.483 -0.0648  0.0011 -0.0026
  315loPI   GL1 5029  10.591  10.220  10.149  0.1204 -0.0949  0.2884
  315loPI   GL2 5030  10.522   9.953   9.917 -0.1597 -0.0225  0.0835
  315loPI   C1A 5031  10.674  10.465   9.769 -0.3650  0.3540  0.1300
  315loPI   C2A 5032  10.837  10.652   9.380  0.3790  0.0375  0.1614
  315loPI   C3A 5033  10.796  10.817   8.999  0.0856 -0.1258  0.1477
  315loPI   C4A 5034  10.675  11.120   8.746 -0.1382 -0.1251  0.2192
  315loPI   C5A 5035  10.529  11.041   8.318 -0.1575 -0.4231 -0.1622
  315loPI   C6A 5036  10.104  10.994   8.133 -0.1214  0.2799  0.1179
  315loPI   C1B 5037  10.605  10.024   9.485 -0.1738 -0.0864 -0.1338
  315loPI   C2B 5038  10.774  10.239   9.042  0.0651  0.0351 -0.0251
  315loPI   C3B 5039  10.994  10.378   8.683  0.1178  0.0134  0.1394
  315loPI   C4B 5040  11.161  10.219   8.417  0.1938 -0.0687  0.0965
  316loPI    C1 5041   1.971   7.619  10.915  0.0264  0.2388  0.0960
  316loPI    C2 5042   2.257   7.834  11.092  0.1399  0.0358  0.1634
  316loPI    C3 5043   1.962   7.675  11.311 -0.1221  0.3844  0.0731
  316loPI   PO4 5044   1.881   7.837  10.712 -0.2496 -0.0538  0.0490
  316loPI   GL1 5045   1.937   7.753  10.264  0.2937  0.2301  0.2754
  316loPI   GL2 5046   1.680   8.133  10.274  0.0563  0.2806  0.2294
  316loPI   C1A 5047   1.862   7.528   9.847 -0.2095 -0.0139 -0.3675
  316loPI   C2A 5048   2.032   7.665   9.458  0.2180 -0.6620  0.0682
  316loPI   C3A 5049   2.063   7.806   9.034 -0.1365 -0.2200  0.0377
  316loPI   C4A 5050   2.097   7.946   8.573 -0.3479  0.2154 -0.1979
  316loPI   C5A 5051   2.252   7.969   8.131  0.0456  0.0399 -0.2372
  316loPI   C6A 5052   2.678   8.023   7.943 -0.1823  0.1467  0.1821
  316loPI   C1B 5053   1.475   7.845  10.016  0.1881  0.2830 -0.2155
  316loPI   C2B 5054   1.436   7.710   9.618 -0.1346 -0.0590 -0.1281
  316loPI   C3B 5055   1.635   7.440   9.278  0.0547 -0.0708 -0.2612
  316loPI   C4B 5056   1.837   7.417   8.868  0.0157  0.2826  0.1692
  317loPI    C1 5057  17.525  17.839  11.153  0.0834 -0.0601 -0.1386
  317loPI    C2 5058  17.915  17.819  11.067  0.1441 -0.0615  0.1274
  317loPI    C3 5059  17.787  17.734  11.436 -0.1002  0.0184  0.0634
  317loPI   PO4 5060  17.365  17.680  10.965 -0.2188 -0.1164  0.1263
  317loPI   GL1 5061  17.058  17.723  10.528 -0.2348 -0.1671  0.2631
  317loPI   GL2 5062  17.356  17.590  10.397  0.4008  0.1978  0.1899
  317loPI   C1A 5063  17.000  17.912  10.169  0.1656 -0.4081 -0.1127
  317loPI   C2A 5064  16.956  18.052   9.730 -0.2337  0.0858 -0.1561
  317loPI   C3A 5065  16.851  18.233   9.404 -0.0181  0.0927  0.6380
  317loPI   C4A 5066  16.528  18.234   9.032  0.2404  0.1405  0.1316
  317loPI   C5A 5067  16.537  18.120   8.651 -0.2237 -0.1296  0.1689
  317loPI   C6A 5068  16.489  17.970   8.355 -0.1530 -0.1698  0.1052
  317loPI   C1B 5069  17.454  17.756   9.924 -0.0524  0.1483 -0.1034
  317loPI   C2B 5070  17.342  17.876   9.532 -0.2779  0.0310  0.2529
  317loPI   C3B 5071  17.261  17.929   9.105 -0.2561 -0.1161  0.1207
  317loPI   C4B 5072  17.069  18.204   8.871  0.1920 -0.1412  0.0561
  318loPI    C1 5073  13.320   0.048  10.859  0.0046  0.0311  0.0207
  318loPI    C2 5074  13.125   0.299  11.101 -0.2043 -0.0557 -0.0554
  318loPI    C3 5075  13.016  -0.085  11.082  0.2484 -0.2050  0.2195
  318loPI   PO4 5076  13.335   0.184  10.672  0.0498 -0.0979 -0.3260
  318loPI   GL1 5077  13.317  -0.053  10.305  0.2506  0.0562  0.0381
  318loPI   GL2 5078  13.357  -0.304  10.168 -0.1782 -0.0905 -0.1206
  318loPI   C1A 5079  13.399   0.213   9.963 -0.2378 -0.0505 -0.3083
  318loPI   C2A 5080  13.432   0.459   9.604 -0.0890  0.0036  0.0809
  318loPI   C3A 5081  13.458   0.351   9.226  0.0857 -0.3900  0.0682
  318loPI   C4A 5082  13.438   0.417   8.777 -0.0535  0.0526 -0.0156
  318loPI   C5A 5083  13.201   0.548   8.343 -0.2566  0.0271 -0.0527
  318loPI   C6A 5084  13.424   0.455   8.040  0.1369 -0.0572 -0.0749
  318loPI   C1B 5085  13.338  -0.223   9.774  0.1176  0.0647  0.1444
  318loPI   C2B 5086  13.429  -0.123   9.294  0.3550 -0.1176  0.2452
  318loPI   C3B 5087  13.449  -0.111   8.795  0.0982  0.1625  0.0593
  318loPI   C4B 5088  13.542   0.084   8.395 -0.0277  0.2227  0.0838
  319loPI    C1 5089   2.117   1.722  10.499  0.0610  0.0122  0.2071
  319loPI    C2 5090   1.793   1.749  10.731 -0.0050  0.0554  0.1106
  319loPI    C3 5091   2.089   2.016  10.769 -0.0238  0.0731  0.1326
  319loPI   PO4 5092   2.036   1.654  10.281 -0.1775 -0.0283  0.0741
  319loPI   GL1 5093   2.074   1.676   9.785  0.3718  0.1440 -0.0360
  319loPI   GL2 5094   1.701   1.772   9.814 -0.0840  0.1193 -0.0441
  319loPI   C1A 5095   2.437   1.361   9.754  0.0487  0.0722 -0.1327
  319loPI   C2A 5096   2.560   1.169   9.507 -0.0921  0.0525  0.4142
  319loPI   C3A 5097   2.610   1.194   8.982 -0.4110  0.0548 -0.1936
  319loPI   C4A 5098   2.462   1.297   8.568  0.3667  0.0305 -0.1364
  319loPI   C5A 5099   2.385   1.556   8.170 -0.0277 -0.0903  0.1019
  319loPI   C6A 5100   2.420   2.018   8.160 -0.0131  0.0452  0.2363
  319loPI   C1B 5101   1.771   1.722   9.382 -0.0841  0.2876  0.0284
  319loPI   C2B 5102   1.718   1.839   8.872  0.0916 -0.0494 -0.1066
  319loPI   C3B 5103   1.515   1.844   8.425 -0.2541 -0.0768 -0.1499
  319loPI   C4B 5104   1.455   1.666   8.038 -0.1689 -0.3984 -0.0185
  320loPI    C1 5105   8.825   3.085  10.363 -0.1279 -0.1740 -0.0880
  320loPI    C2 5106   8.701   3.420  10.183 -0.0997 -0.0882  0.0501
  320loPI    C3 5107   9.089   3.368  10.263 -0.1183 -0.1031  0.1313
  320loPI   PO4 5108   8.667   2.889  10.273 -0.0794  0.1178  0.1023
  320loPI   GL1 5109   8.402   3.029   9.961  0.0033 -0.0011 -0.0990
  320loPI   GL2 5110   8.585   2.794   9.773  0.0284 -0.2305  0.4396
  320loPI   C1A 5111   8.347   3.193   9.568  0.2930 -0.1322 -0.0140
  320loPI   C2A 5112   8.261   2.947   9.155 -0.1180 -0.2826  0.0634
  320loPI   C3A 5113   8.435   2.895   8.699  0.1846  0.0633  0.1266
  320loPI   C4A 5114   8.360   3.045   8.360 -0.0026  0.2360  0.0728
  320loPI   C5A 5115   8.537   3.135   7.993  0.0092 -0.0648  0.1145
  320loPI   C6A 5116   8.898   3.321   7.703  0.0421 -0.3056  0.2922
  320loPI   C1B 5117   8.502   2.538   9.445  0.4332  0.0590 -0.4937
  320loPI   C2B 5118   8.489   2.494   9.052 -0.0179 -0.1057  0.0322
  320loPI   C3B 5119   8.527   2.344   8.715 -0.4542 -0.0492  0.1451
  320loPI   C4B 5120   8.691   2.597   8.418  0.0581  0.0274  0.1622
  321loPI    C1 5121  12.572  16.297  10.604  0.4743  0.0344 -0.0231
  321loPI    C2 5122  12.731  16.559  10.861 -0.0647  0.2964  0.0567
  321loPI    C3 5123  12.648  16.186  10.981 -0.0663  0.3380  0.1864
  321loPI   PO4 5124  12.378  16.446  10.462 -0.2252  0.2620 -0.2674
  321loPI   GL1 5125  12.407  16.530  10.135 -0.1444  0.0742 -0.2060
  321loPI   GL2 5126  12.641  16.232  10.081 -0.0227  0.2751  0.0168
  321loPI   C1A 5127  12.342  16.556   9.747  0.0134 -0.1218 -0.2703
  321loPI   C2A 5128  12.438  16.694   9.428 -0.0856  0.0043 -0.2094
  321loPI   C3A 5129  12.456  16.603   8.985 -0.0823  0.1438 -0.0746
  321loPI   C4A 5130  12.292  16.405   8.638 -0.1584 -0.0071  0.1368
  321loPI   C5A 5131  12.225  16.362   8.265 -0.1857 -0.1512 -0.0613
  321loPI   C6A 5132  12.018  15.951   8.097 -0.0303 -0.0785 -0.0272
  321loPI   C1B 5133  12.712  16.223   9.569  0.2513  0.0405 -0.2183
  321loPI   C2B 5134  12.707  16.183   9.121  0.1144 -0.1045 -0.1465
  321loPI   C3B 5135  12.737  15.992   8.735 -0.1155 -0.0975 -0.0211
  321loPI   C4B 5136  12.939  15.712   8.458 -0.2126  0.1221 -0.1133
  322loPI    C1 5137   5.361   2.667  10.774  0.0122 -0.2786 -0.1066
  322loPI    C2 5138   5.334   3.042  10.911  0.1368 -0.1212 -0.4982
  322loPI    C3 5139   5.460   2.749  11.153  0.1402  0.1066 -0.2188
  322loPI   PO4 5140   5.426   2.763  10.454  0.0608 -0.0773  0.1602
  322loPI   GL1 5141   5.509   2.993  10.113 -0.1101  0.0294  0.1404
  322loPI   GL2 5142   5.653   3.287  10.112 -0.1963  0.1997 -0.1106
  322loPI   C1A 5143   5.442   2.929   9.714 -0.0453 -0.0058  0.2994
  322loPI   C2A 5144   5.494   2.978   9.220 -0.0402  0.0941  0.0898
  322loPI   C3A 5145   5.596   3.077   8.822 -0.0077  0.0974 -0.3110
  322loPI   C4A 5146   5.437   3.203   8.339 -0.2167  0.2054  0.0347
  322loPI   C5A 5147   5.487   3.516   8.138  0.0497  0.1945  0.2199
  322loPI   C6A 5148   5.785   3.864   8.032  0.0588  0.1524  0.0184
  322loPI   C1B 5149   5.651   3.402   9.701 -0.1430  0.2871  0.0620
  322loPI   C2B 5150   5.822   3.402   9.203  0.3436  0.0399 -0.0507
  322loPI   C3B 5151   5.919   3.631   8.766 -0.2724 -0.1325 -0.1205
  322loPI   C4B 5152   5.928   3.399   8.416 -0.0236  0.0007 -0.0041
  323loPI    C1 5153  10.270   7.490  10.708  0.0113  0.0470 -0.0951
  323loPI    C2 5154  10.542   7.279  10.912 -0.2240 -0.1473  0.0241
  323loPI    C3 5155  10.154   7.245  11.003 -0.3187 -0.1138 -0.3510
  323loPI   PO4 5156  10.340   7.463  10.414  0.0318  0.0701 -0.0059
  323loPI   GL1 5157  10.585   7.560  10.064  0.0521 -0.0625 -0.1754
  323loPI   GL2 5158  10.280   7.786  10.021  0.0157 -0.0570 -0.0377
  323loPI   C1A 5159  11.002   7.633   9.820  0.0476 -0.0809  0.1304
  323loPI   C2A 5160  11.033   7.891   9.436 -0.0523  0.1065 -0.0512
  323loPI   C3A 5161  10.941   8.121   9.086  0.1650 -0.4216  0.1541
  323loPI   C4A 5162  11.219   8.469   8.980  0.1642 -0.0062 -0.2033
  323loPI   C5A 5163  11.253   8.764   8.644 -0.0290  0.0733 -0.0540
  323loPI   C6A 5164  11.368   9.139   8.484  0.2476  0.0497 -0.0620
  323loPI   C1B 5165  10.165   7.816   9.599 -0.0241 -0.2095 -0.3192
  323loPI   C2B 5166  10.267   7.714   9.140 -0.0321  0.1463  0.0875
  323loPI   C3B 5167  10.211   7.734   8.728 -0.0336  0.0355  0.0199
  323loPI   C4B 5168  10.424   7.880   8.408 -0.4159 -0.5444  0.0710
  324loPI    C1 5169   9.996   3.840  10.363 -0.3365  0.1849  0.0525
  324loPI    C2 5170  10.147   3.620  10.660 -0.3305  0.1041 -0.0102
  324loPI    C3 5171  10.167   4.019  10.677  0.0073  0.0933 -0.0786
  324loPI   PO4 5172  10.105   3.691  10.146 -0.1783 -0.2142  0.0536
  324loPI   GL1 5173  10.110   3.303   9.916 -0.3124 -0.0573 -0.0151
  324loPI   GL2 5174   9.874   3.379   9.792 -0.1843  0.4897 -0.0638
  324loPI   C1A 5175  10.290   3.344   9.505 -0.0153 -0.0090  0.2876
  324loPI   C2A 5176  10.125   3.170   9.123  0.0260 -0.1362 -0.1115
  324loPI   C3A 5177   9.942   3.110   8.659 -0.2797 -0.1888 -0.0333
  324loPI   C4A 5178  10.046   3.070   8.186 -0.4045 -0.0255 -0.2492
  324loPI   C5A 5179   9.860   3.195   7.864 -0.2101  0.0368 -0.2403
  324loPI   C6A 5180   9.667   3.560   7.765 -0.1293 -0.4773 -0.0079
  324loPI   C1B 5181   9.749   3.478   9.392 -0.4103  0.1302  0.0206
  324loPI   C2B 5182   9.745   3.435   8.912  0.2963  0.0655 -0.0076
  324loPI   C3B 5183   9.948   3.702   8.625  0.1632  0.0660  0.0210
  324loPI   C4B 5184  10.038   3.599   8.189 -0.0442  0.1098  0.0909
  325loPI    C1 5185   0.125   9.409  11.028 -0.2588 -0.0832 -0.0007
  325loPI    C2 5186   0.122   9.073  10.812 -0.1645 -0.0944  0.0147
  325loPI    C3 5187   0.468   9.259  10.887 -0.1778 -0.1757  0.2881
  325loPI   PO4 5188  -0.149   9.514  10.821 -0.0018 -0.1410 -0.0206
  325loPI   GL1 5189  -0.136   9.654  10.366 -0.0712 -0.0684 -0.3104
  325loPI   GL2 5190   0.017   9.906  10.145 -0.0707  0.0557 -0.1126
  325loPI   C1A 5191   0.064   9.369  10.059 -0.0891  0.1940 -0.2110
  325loPI   C2A 5192   0.374   9.370   9.781 -0.4236 -0.1560 -0.0743
  325loPI   C3A 5193   0.436   9.236   9.386 -0.2505 -0.1684 -0.2303
  325loPI   C4A 5194   0.619   9.426   9.095  0.0681 -0.1412 -0.0464
  325loPI   C5A 5195   0.988   9.334   8.874  0.1632  0.0410  0.3666
  325loPI   C6A 5196   1.208   9.585   8.659 -0.0466 -0.1430 -0.0063
  325loPI   C1B 5197   0.080   9.836   9.710 -0.3028 -0.0549 -0.0531
  325loPI   C2B 5198   0.162   9.778   9.265 -0.0753  0.0341 -0.1385
  325loPI   C3B 5199   0.342   9.779   8.732  0.2577 -0.1768  0.0242
  325loPI   C4B 5200   0.391   9.909   8.268  0.2330 -0.1014  0.4063
  326loPI    C1 5201   7.632   1.123  10.730  0.0104  0.3343 -0.1175
  326loPI    C2 5202   7.846   0.785  10.720 -0.5621 -0.0445 -0.0154
  326loPI    C3 5203   7.982   1.101  10.923  0.0282 -0.1715 -0.1934
  326loPI   PO4 5204   7.508   1.106  10.531  0.1252 -0.2631 -0.1205
  326loPI   GL1 5205   7.221   0.906  10.121  0.0532  0.1080  0.0312
  326loPI   GL2 5206   7.131   1.257  10.107  0.2156  0.2281 -0.1608
  326loPI   C1A 5207   7.368   0.622   9.816 -0.2937 -0.0978 -0.0545
  326loPI   C2A 5208   7.327   0.465   9.420 -0.0174  0.1256 -0.0324
  326loPI   C3A 5209   7.250   0.472   9.080 -0.3486  0.0671  0.0785
  326loPI   C4A 5210   7.266   0.815   8.818 -0.0038  0.0333 -0.1659
  326loPI   C5A 5211   7.036   1.016   8.506 -0.2916  0.0438 -0.0750
  326loPI   C6A 5212   6.813   1.336   8.218 -0.0687  0.2300 -0.0433
  326loPI   C1B 5213   7.051   1.143   9.651 -0.2788 -0.0758 -0.1050
  326loPI   C2B 5214   6.997   0.879   9.237  0.1130 -0.0145  0.0566
  326loPI   C3B 5215   6.811   0.662   8.888  0.3038  0.1325  0.2404
  326loPI   C4B 5216   6.788   0.620   8.343 -0.2546 -0.0967 -0.0030
  327loPI    C1 5217  11.968   8.949  10.895 -0.4337 -0.2309  0.2963
  327loPI    C2 5218  11.633   9.089  11.063 -0.2676  0.2434  0.2467
  327loPI    C3 5219  11.987   9.249  11.159 -0.0800 -0.0746  0.0996
  327loPI   PO4 5220  11.839   8.950  10.633  0.3559 -0.4964 -0.0208
  327loPI   GL1 5221  11.915   9.019  10.272 -0.2065  0.1081  0.1342
  327loPI   GL2 5222  11.696   9.209  10.231 -0.1645  0.0107  0.1719
  327loPI   C1A 5223  12.116   8.946   9.899 -0.0760  0.2082 -0.0593
  327loPI   C2A 5224  12.288   8.904   9.433 -0.0359  0.2695 -0.2129
  327loPI   C3A 5225  12.220   8.583   9.129  0.0312  0.0917 -0.3124
  327loPI   C4A 5226  12.190   8.551   8.715  0.2062  0.1071  0.1661
  327loPI   C5A 5227  12.059   8.370   8.350  0.3229 -0.4642  0.0716
  327loPI   C6A 5228  11.804   8.105   8.371  0.0586  0.1398 -0.2780
  327loPI   C1B 5229  11.791   9.328   9.759 -0.1313 -0.1811 -0.0134
  327loPI   C2B 5230  11.909   9.212   9.441  0.1005 -0.2193  0.2466
  327loPI   C3B 5231  12.068   9.238   9.062 -0.0674  0.2544  0.1875
  327loPI   C4B 5232  12.138   9.139   8.576  0.1147  0.1442  0.1139
  328loPI    C1 5233   2.965   3.776  10.747  0.1258 -0.1738 -0.0935
  328loPI    C2 5234   2.823   4.118  10.898 -0.0601 -0.2462 -0.1027
  328loPI    C3 5235   3.147   3.948  11.059  0.0621 -0.0408 -0.1286
  328loPI   PO4 5236   2.836   3.755  10.448 -0.3860 -0.1196  0.0356
  328loPI   GL1 5237   3.165   3.643  10.075 -0.1284 -0.1128 -0.0551
  328loPI   GL2 5238   3.021   3.416  10.159  0.1326  0.1497  0.3201
  328loPI   C1A 5239   3.156   3.469   9.599 -0.0265  0.0263  0.1546
  328loPI   C2A 5240   3.332   3.268   9.419 -0.3196 -0.1227  0.0882
  328loPI   C3A 5241   3.294   3.202   8.951  0.1139  0.0645  0.2181
  328loPI   C4A 5242   3.266   3.189   8.524 -0.1264 -0.0354 -0.2051
  328loPI   C5A 5243   3.500   3.018   8.285 -0.3371 -0.2359  0.1459
  328loPI   C6A 5244   3.703   2.882   7.909  0.1034 -0.4581  0.4170
  328loPI   C1B 5245   2.705   3.429   9.835  0.2813 -0.1244 -0.0212
  328loPI   C2B 5246   2.486   3.464   9.443 -0.0104 -0.1498 -0.1190
  328loPI   C3B 5247   2.446   3.416   8.990  0.0557  0.1662 -0.1251
  328loPI   C4B 5248   2.418   3.451   8.557 -0.2660 -0.0470  0.4127
  329loPI    C1 5249  16.898  17.464  11.337  0.0621 -0.0369 -0.0109
  329loPI    C2 5250  16.562  17.673  11.279  0.0884 -0.0595 -0.2556
  329loPI    C3 5251  16.640  17.516  11.638  0.0393  0.2973 -0.0842
  329loPI   PO4 5252  16.955  17.421  11.027 -0.0410 -0.1259 -0.1453
  329loPI   GL1 5253  16.851  17.319  10.607  0.0034 -0.2123  0.1502
  329loPI   GL2 5254  16.875  16.939  10.724 -0.0206 -0.2203  0.0627
  329loPI   C1A 5255  16.912  17.374  10.149 -0.1329  0.0576  0.1474
  329loPI   C2A 5256  17.047  17.480   9.763 -0.1193 -0.0269 -0.1283
  329loPI   C3A 5257  16.982  17.433   9.370  0.0281  0.2038 -0.0556
  329loPI   C4A 5258  17.004  17.462   8.864 -0.1470  0.1012  0.2236
  329loPI   C5A 5259  16.694  17.365   8.465  0.2487 -0.2871  0.0675
  329loPI   C6A 5260  16.266  17.104   8.349  0.3311 -0.1984 -0.0638
  329loPI   C1B 5261  16.706  16.859  10.373  0.2444 -0.3020  0.0510
  329loPI   C2B 5262  16.716  16.616  10.078 -0.0095 -0.1155  0.1764
  329loPI   C3B 5263  16.740  16.471   9.756  0.0673 -0.0810 -0.2772
  329loPI   C4B 5264  16.487  16.242   9.388  0.0690  0.2125 -0.2542
  330loPI    C1 5265  18.189   1.163  10.977 -0.0287 -0.1423 -0.0075
  330loPI    C2 5266  18.448   1.378  11.193 -0.0893 -0.1727  0.0959
  330loPI    C3 5267  18.129   1.213  11.369 -0.1249 -0.2198 -0.0120
  330loPI   PO4 5268  18.297   1.323  10.664 -0.1395  0.0896  0.0168
  330loPI   GL1 5269  18.293   1.654  10.308 -0.2236 -0.0686  0.1976
  330loPI   GL2 5270  17.987   1.521  10.264 -0.0631 -0.2096 -0.0235
  330loPI   C1A 5271  18.008   1.963  10.121  0.0305  0.0116  0.1689
  330loPI   C2A 5272  18.071   1.999   9.693  0.0925  0.1499 -0.1920
  330loPI   C3A 5273  18.092   1.964   9.304  0.0760  0.0585 -0.1031
  330loPI   C4A 5274  18.104   1.886   8.857  0.1326  0.1744  0.1123
  330loPI   C5A 5275  18.220   2.064   8.515  0.0268 -0.2279 -0.0977
  330loPI   C6A 5276  18.168   1.954   7.978  0.2794 -0.0155  0.0358
  330loPI   C1B 5277  17.922   1.313   9.809  0.1436  0.0787 -0.1634
  330loPI   C2B 5278  17.630   1.399   9.463 -0.2636  0.1115 -0.4144
  330loPI   C3B 5279  17.417   1.437   8.926  0.2462  0.1878 -0.0814
  330loPI   C4B 5280  17.303   1.446   8.483 -0.0699 -0.0813  0.1939
  331loPI    C1 5281   2.645  14.613  10.569 -0.0636 -0.2090 -0.1371
  331loPI    C2 5282   2.610  14.767  10.937 -0.2268  0.2280 -0.3289
  331loPI    C3 5283   2.700  14.380  10.890 -0.2029  0.1670  0.1677
  331loPI   PO4 5284   2.776  14.879  10.459 -0.2053 -0.1536 -0.1055
  331loPI   GL1 5285   2.787  15.049  10.060 -0.2702  0.0556  0.0903
  331loPI   GL2 5286   3.073  14.953  10.024  0.1497 -0.0244 -0.2485
  331loPI   C1A 5287   2.807  15.293   9.715  0.1104  0.1752 -0.1262
  331loPI   C2A 5288   2.744  15.213   9.344 -0.0394  0.1910 -0.1793
  331loPI   C3A 5289   2.776  15.177   8.983 -0.0581  0.1319  0.1851
  331loPI   C4A 5290   2.897  15.087   8.625  0.1621  0.0961  0.3286
  331loPI   C5A 5291   2.670  15.143   8.277  0.2620  0.0708 -0.0964
  331loPI   C6A 5292   2.369  14.925   8.130 -0.3291 -0.1885 -0.0699
  331loPI   C1B 5293   3.190  14.979   9.581  0.0509 -0.2704 -0.0348
  331loPI   C2B 5294   3.228  14.929   9.210 -0.1062  0.2382 -0.4615
  331loPI   C3B 5295   3.213  14.945   8.900 -0.0790  0.1449  0.1093
  331loPI   C4B 5296   3.210  14.589   8.515  0.2191  0.0999 -0.2346
  332loPI    C1 5297   2.670   4.691  10.952  0.0782 -0.1216 -0.2434
  332loPI    C2 5298   2.835   4.488  11.255  0.0793  0.0579 -0.1220
  332loPI    C3 5299   2.918   4.876  11.206 -0.2376  0.1294 -0.1112
  332loPI   PO4 5300   2.715   4.639  10.692  0.1746  0.0350 -0.0937
  332loPI   GL1 5301   2.814   4.792  10.298 -0.0177  0.2208  0.1267
  332loPI   GL2 5302   2.742   4.580  10.085  0.0283 -0.0238 -0.1182
  332loPI   C1A 5303   2.922   5.187  10.039 -0.0489 -0.0955  0.0364
  332loPI   C2A 5304   3.024   5.261   9.583 -0.0413  0.0207 -0.1982
  332loPI   C3A 5305   2.927   5.399   9.234  0.2235  0.0644  0.0537
  332loPI   C4A 5306   2.785   5.216   8.815  0.1855  0.0755 -0.2061
  332loPI   C5A 5307   2.528   5.215   8.473  0.0997 -0.0237 -0.2095
  332loPI   C6A 5308   2.607   5.421   8.133 -0.1192  0.0558 -0.1258
  332loPI   C1B 5309   2.800   4.748   9.705  0.4735 -0.0788  0.0074
  332loPI   C2B 5310   2.666   4.531   9.296  0.0947 -0.0442  0.3587
  332loPI   C3B 5311   2.705   4.578   8.929 -0.1412 -0.2694  0.1570
  332loPI   C4B 5312   2.715   4.358   8.436 -0.4349  0.0191  0.4263
  333loPI    C1 5313  10.382   1.705  10.238  0.1803 -0.0443 -0.0727
  333loPI    C2 5314  10.639   1.990  10.348 -0.1073  0.1900  0.0049
  333loPI    C3 5315  10.355   1.869  10.602 -0.0139 -0.1388 -0.0431
  333loPI   PO4 5316  10.381   1.743  10.023  0.1197 -0.0428  0.1548
  333loPI   GL1 5317  10.157   1.922   9.640  0.0015 -0.0516  0.1403
  333loPI   GL2 5318  10.070   1.645   9.681 -0.0196  0.1930 -0.0497
  333loPI   C1A 5319  10.364   1.855   9.201 -0.1577 -0.2309  0.2115
  333loPI   C2A 5320  10.441   1.777   8.698  0.1769 -0.2011 -0.3634
  333loPI   C3A 5321  10.359   1.710   8.185  0.4423  0.0957  0.1535
  333loPI   C4A 5322   9.964   1.615   8.038  0.0836  0.1028 -0.1314
  333loPI   C5A 5323   9.576   1.778   7.986  0.2457 -0.2877  0.0957
  333loPI   C6A 5324   9.512   2.109   7.640 -0.0113 -0.2793  0.0722
  333loPI   C1B 5325   9.979   1.493   9.247 -0.1653  0.2517 -0.0219
  333loPI   C2B 5326  10.111   1.278   8.853  0.0266 -0.3555  0.1400
  333loPI   C3B 5327   9.998   1.066   8.481  0.1202 -0.1382 -0.0879
  333loPI   C4B 5328   9.888   1.024   8.050 -0.4284  0.2514  0.0251
  334loPI    C1 5329  15.981  11.271  10.754  0.1757 -0.4390 -0.1848
  334loPI    C2 5330  15.656  11.380  10.548  0.1018 -0.2967  0.0042
  334loPI    C3 5331  15.619  11.248  10.924  0.2816 -0.0708  0.1032
  334loPI   PO4 5332  16.159  11.411  10.657 -0.0034 -0.1787  0.5481
  334loPI   GL1 5333  16.085  11.577  10.303  0.2103  0.1127 -0.2743
  334loPI   GL2 5334  16.312  11.523  10.126  0.3776  0.0631  0.1782
  334loPI   C1A 5335  15.831  11.475   9.996 -0.1537 -0.1598 -0.2107
  334loPI   C2A 5336  15.647  11.529   9.654  0.1475  0.1599  0.4031
  334loPI   C3A 5337  15.481  11.663   9.231 -0.4405 -0.1578  0.4437
  334loPI   C4A 5338  15.286  11.598   8.876 -0.1476  0.1669  0.3201
  334loPI   C5A 5339  15.374  11.147   8.599  0.0655 -0.1958  0.0206
  334loPI   C6A 5340  15.489  10.728   8.481  0.0213  0.0655  0.0128
  334loPI   C1B 5341  16.183  11.689   9.690  0.2468  0.0141  0.1645
  334loPI   C2B 5342  16.053  11.493   9.314 -0.2758  0.0146 -0.3231
  334loPI   C3B 5343  16.242  11.238   9.010 -0.2235  0.0103 -0.3418
  334loPI   C4B 5344  16.164  10.994   8.569 -0.0597  0.1657  0.0854
  335loPI    C1 5345   7.968   2.605  10.715 -0.1183  0.1108 -0.0301
  335loPI    C2 5346   8.297   2.774  10.564 -0.1209  0.0333 -0.1226
  335loPI    C3 5347   8.306   2.611  10.929 -0.0316 -0.0490 -0.1611
  335loPI   PO4 5348   7.907   2.416  10.563 -0.0567  0.0409  0.0861
  335loPI   GL1 5349   7.914   2.394  10.100 -0.1170 -0.0852 -0.1467
  335loPI   GL2 5350   8.037   2.792  10.072 -0.0441 -0.1945  0.1218
  335loPI   C1A 5351   8.108   2.485   9.726 -0.1872 -0.0650 -0.3878
  335loPI   C2A 5352   8.058   2.407   9.256  0.2909  0.1285  0.3350
  335loPI   C3A 5353   8.072   2.549   8.840 -0.0878  0.0359  0.0979
  335loPI   C4A 5354   8.044   2.649   8.429 -0.1893 -0.1041  0.0889
  335loPI   C5A 5355   8.088   2.886   8.038 -0.0626 -0.0211  0.2631
  335loPI   C6A 5356   8.168   3.143   7.708 -0.1862  0.0552 -0.1518
  335loPI   C1B 5357   7.955   2.929   9.596 -0.0075  0.3966 -0.1913
  335loPI   C2B 5358   7.754   2.808   9.179 -0.1206  0.1017 -0.1794
  335loPI   C3B 5359   7.534   2.708   8.770 -0.4024 -0.3298  0.0374
  335loPI   C4B 5360   7.578   2.557   8.255  0.1022  0.0515 -0.2429
  336loPI    C1 5361  10.997  15.477  10.290 -0.1100 -0.0881 -0.1025
  336loPI    C2 5362  10.843  15.664  10.608  0.2599 -0.0400  0.0531
  336loPI    C3 5363  10.832  15.264  10.586 -0.1162 -0.0271 -0.0618
  336loPI   PO4 5364  11.208  15.711  10.196  0.0531 -0.0591 -0.1972
  336loPI   GL1 5365  11.298  15.929   9.895  0.1348  0.0108 -0.2131
  336loPI   GL2 5366  11.476  16.060   9.855  0.0992 -0.0430 -0.2741
  336loPI   C1A 5367  11.329  15.744   9.545 -0.2827  0.1142 -0.0221
  336loPI   C2A 5368  11.313  15.620   9.067 -0.1094 -0.1936 -0.1083
  336loPI   C3A 5369  11.577  15.395   8.826  0.0936  0.1577 -0.2440
  336loPI   C4A 5370  11.563  14.920   8.627 -0.2765  0.1414 -0.1696
  336loPI   C5A 5371  11.562  14.562   8.497  0.0490  0.1115  0.0526
  336loPI   C6A 5372  11.699  14.483   8.039 -0.0844  0.2596 -0.1100
  336loPI   C1B 5373  11.569  16.181   9.475  0.1654 -0.2137  0.0269
  336loPI   C2B 5374  11.389  16.253   9.159 -0.2807 -0.0489  0.3477
  336loPI   C3B 5375  11.335  16.450   8.840  0.0827 -0.0274  0.1749
  336loPI   C4B 5376  11.496  16.375   8.364 -0.1476  0.0241  0.2069
  337loPI    C1 5377   1.807  17.375  10.693  0.1608  0.0822  0.0088
  337loPI    C2 5378   2.052  17.126  10.888  0.0030 -0.1825 -0.1268
  337loPI    C3 5379   1.750  17.303  11.082  0.1917  0.0046 -0.0009
  337loPI   PO4 5380   1.917  17.582  10.549  0.0552  0.0251  0.1813
  337loPI   GL1 5381   1.998  17.542  10.158 -0.1112 -0.3813  0.1697
  337loPI   GL2 5382   1.780  17.692  10.066 -0.1804  0.0496 -0.0401
  337loPI   C1A 5383   1.953  17.338   9.758 -0.0528 -0.2372  0.2259
  337loPI   C2A 5384   1.825  17.546   9.294 -0.0470  0.0459 -0.1528
  337loPI   C3A 5385   1.888  17.347   8.900 -0.5508 -0.3243  0.1000
  337loPI   C4A 5386   2.017  17.048   8.420 -0.0658  0.0446  0.3336
  337loPI   C5A 5387   2.353  16.879   8.091 -0.2096  0.1825  0.2528
  337loPI   C6A 5388   2.728  16.734   7.891 -0.0965 -0.1815 -0.3236
  337loPI   C1B 5389   1.546  17.729   9.680  0.2291  0.0919 -0.1331
  337loPI   C2B 5390   1.338  18.095   9.639 -0.0577 -0.2267 -0.1979
  337loPI   C3B 5391   1.225  18.248   9.262 -0.2937 -0.1527 -0.3790
  337loPI   C4B 5392   0.972  18.088   8.913 -0.0690 -0.2250  0.1353
  338loPI    C1 5393   3.840  13.576  10.523 -0.0058  0.0608 -0.1177
  338loPI    C2 5394   4.027  13.574  10.876  0.0414  0.2502 -0.1408
  338loPI    C3 5395   3.635  13.498  10.857  0.0593  0.1355 -0.0600
  338loPI   PO4 5396   3.919  13.377  10.277 -0.0656 -0.1824 -0.0228
  338loPI   GL1 5397   3.716  13.308   9.897  0.0022 -0.0313 -0.1059
  338loPI   GL2 5398   3.636  13.555   9.960  0.0955 -0.1895  0.1111
  338loPI   C1A 5399   3.867  13.271   9.476 -0.0264  0.0543  0.0523
  338loPI   C2A 5400   3.860  13.265   9.055  0.1456 -0.0762 -0.1983
  338loPI   C3A 5401   4.004  13.303   8.600  0.0618  0.0538  0.2221
  338loPI   C4A 5402   3.980  13.004   8.154 -0.2055  0.1316 -0.0009
  338loPI   C5A 5403   4.020  13.176   7.758 -0.2334  0.3060 -0.0570
  338loPI   C6A 5404   4.336  13.489   7.556  0.5503 -0.0981 -0.1731
  338loPI   C1B 5405   3.428  13.621   9.600  0.0978 -0.0749  0.0370
  338loPI   C2B 5406   3.393  13.533   9.256  0.0720 -0.3521 -0.1406
  338loPI   C3B 5407   3.437  13.496   8.824  0.1993 -0.0114 -0.1383
  338loPI   C4B 5408   3.579  13.483   8.380  0.1345  0.2689 -0.2668
  339loPI    C1 5409   9.071  17.876  10.475 -0.3396 -0.0312  0.1059
  339loPI    C2 5410   9.151  18.268  10.453 -0.0632 -0.0851  0.1083
  339loPI    C3 5411   8.831  18.118  10.266 -0.1352  0.1315  0.0551
  339loPI   PO4 5412   9.349  17.796  10.500  0.2105 -0.1497 -0.3097
  339loPI   GL1 5413   9.512  17.534  10.082 -0.0523  0.1782  0.4932
  339loPI   GL2 5414   9.796  17.400   9.993 -0.1005  0.0107  0.0977
  339loPI   C1A 5415   9.350  17.184   9.808  0.1462 -0.1077  0.1561
  339loPI   C2A 5416   9.312  17.199   9.357  0.1119 -0.2432 -0.4493
  339loPI   C3A 5417   9.337  17.083   8.871  0.3687  0.0297  0.1965
  339loPI   C4A 5418   9.227  16.927   8.540 -0.1334 -0.0405 -0.0135
  339loPI   C5A 5419   9.098  16.470   8.437  0.1487 -0.1604 -0.1903
  339loPI   C6A 5420   8.961  16.078   8.521  0.3481  0.2606  0.1686
  339loPI   C1B 5421   9.717  17.431   9.552  0.0391 -0.0950 -0.0643
  339loPI   C2B 5422   9.723  17.400   9.151 -0.0063  0.1487  0.1021
  339loPI   C3B 5423   9.701  17.240   8.661  0.2413  0.2726 -0.0230
  339loPI   C4B 5424   9.606  17.135   8.242 -0.4584 -0.0095  0.2268
  340loPI    C1 5425   7.010  10.126  10.548 -0.0419 -0.3173 -0.1255
  340loPI    C2 5426   6.930   9.909  10.875  0.0829 -0.2361 -0.0401
  340loPI    C3 5427   7.164  10.232  10.902 -0.0698 -0.1127 -0.1736
  340loPI   PO4 5428   7.160   9.999  10.333  0.1748  0.0981 -0.1130
  340loPI   GL1 5429   7.038   9.907   9.848 -0.2827 -0.3390  0.0635
  340loPI   GL2 5430   7.012  10.132   9.668 -0.0184 -0.1552  0.0313
  340loPI   C1A 5431   7.140   9.580   9.507  0.1536 -0.1010  0.1671
  340loPI   C2A 5432   7.196   9.614   9.051  0.1334  0.1746  0.1731
  340loPI   C3A 5433   7.194   9.738   8.698  0.0236 -0.0116  0.1177
  340loPI   C4A 5434   7.179   9.692   8.293  0.0836  0.0677 -0.0453
  340loPI   C5A 5435   7.252   9.567   7.821 -0.2331 -0.0177  0.0366
  340loPI   C6A 5436   7.613   9.446   7.732  0.1436  0.1752  0.1709
  340loPI   C1B 5437   7.077  10.088   9.288 -0.0983  0.1003  0.0011
  340loPI   C2B 5438   6.886  10.134   8.873 -0.1627 -0.0223  0.1485
  340loPI   C3B 5439   6.759  10.105   8.502 -0.1080 -0.0432 -0.1528
  340loPI   C4B 5440   6.944  10.050   8.118 -0.0583  0.1283  0.3100
  341loPI    C1 5441   2.406  11.467  10.896  0.0114  0.1511  0.0953
  341loPI    C2 5442   2.142  11.740  10.772 -0.1514  0.0124  0.1326
  341loPI    C3 5443   2.163  11.644  11.159  0.0757  0.1495  0.1563
  341loPI   PO4 5444   2.407  11.318  10.618 -0.3306  0.0230  0.3193
  341loPI   GL1 5445   2.240  11.059  10.328 -0.0767  0.1690  0.0060
  341loPI   GL2 5446   2.023  10.804  10.409 -0.2259 -0.3106  0.1581
  341loPI   C1A 5447   2.075  11.151   9.993  0.1302  0.4548 -0.0519
  341loPI   C2A 5448   1.808  11.226   9.805 -0.1550  0.1377  0.1013
  341loPI   C3A 5449   1.754  11.184   9.417  0.1699 -0.0308 -0.0838
  341loPI   C4A 5450   1.671  10.945   9.102  0.1296  0.1810 -0.2096
  341loPI   C5A 5451   1.585  10.859   8.708  0.0765  0.0912  0.2097
  341loPI   C6A 5452   1.461  10.613   8.460  0.0219  0.5081 -0.2223
  341loPI   C1B 5453   1.620  10.695  10.090 -0.0212  0.1768 -0.0463
  341loPI   C2B 5454   1.538  10.804   9.609 -0.1216 -0.0601  0.0403
  341loPI   C3B 5455   1.250  10.697   9.222 -0.1092 -0.1909  0.1149
  341loPI   C4B 5456   1.237  10.499   8.910 -0.0582 -0.3834  0.1031
  342loPI    C1 5457  15.402  12.680  10.821 -0.2171  0.4303 -0.0722
  342loPI    C2 5458  15.630  13.004  10.879  0.0513  0.1824  0.3006
  342loPI    C3 5459  15.299  12.951  11.097  0.0240  0.1896  0.2612
  342loPI   PO4 5460  15.423  12.608  10.572  0.0361 -0.0654 -0.1309
  342loPI   GL1 5461  15.434  12.805  10.211  0.1225  0.0089  0.2087
  342loPI   GL2 5462  15.203  12.789  10.018 -0.0320  0.0781 -0.1227
  342loPI   C1A 5463  15.607  13.079   9.834  0.0238 -0.1499  0.3207
  342loPI   C2A 5464  15.598  13.132   9.482 -0.0649 -0.0762  0.0399
  342loPI   C3A 5465  15.652  13.179   9.115  0.1006 -0.2454 -0.1602
  342loPI   C4A 5466  15.805  13.413   8.741  0.1314 -0.1698 -0.3335
  342loPI   C5A 5467  15.992  13.437   8.325  0.0042  0.0940  0.3908
  342loPI   C6A 5468  15.636  13.258   8.067  0.2484 -0.1801  0.1068
  342loPI   C1B 5469  15.326  12.696   9.590  0.0677 -0.0062 -0.5199
  342loPI   C2B 5470  15.287  12.626   9.132 -0.2394  0.0041  0.2810
  342loPI   C3B 5471  15.341  12.640   8.688 -0.4437  0.0079  0.2061
  342loPI   C4B 5472  15.557  12.980   8.424 -0.0373  0.0646  0.1824
  343loPI    C1 5473   9.625  13.508  10.975  0.1458  0.1465 -0.0328
  343loPI    C2 5474   9.270  13.323  10.981  0.1591  0.1226  0.0256
  343loPI    C3 5475   9.312  13.680  11.156  0.1747  0.1056  0.0565
  343loPI   PO4 5476   9.616  13.530  10.719 -0.0439  0.0303 -0.0023
  343loPI   GL1 5477   9.634  13.510  10.192  0.1628  0.1186  0.0431
  343loPI   GL2 5478   9.284  13.674  10.001  0.0315 -0.1246  0.1275
  343loPI   C1A 5479   9.783  13.558   9.771 -0.1170  0.1999  0.0254
  343loPI   C2A 5480   9.929  13.680   9.353 -0.3500  0.0266 -0.0197
  343loPI   C3A 5481  10.112  13.471   9.002  0.0659 -0.0819 -0.0762
  343loPI   C4A 5482   9.996  13.258   8.678  0.2984  0.1721  0.0081
  343loPI   C5A 5483   9.740  13.073   8.348 -0.1671  0.2244 -0.1107
  343loPI   C6A 5484   9.346  13.023   8.098  0.0067  0.1624 -0.0004
  343loPI   C1B 5485   9.408  13.718   9.492  0.3557  0.1266 -0.3494
  343loPI   C2B 5486   9.442  13.458   9.182  0.0200  0.0381 -0.1157
  343loPI   C3B 5487   9.434  13.504   8.655 -0.1001 -0.0538  0.1490
  343loPI   C4B 5488   9.149  13.359   8.388  0.0497  0.0338 -0.0147
  344loPI    C1 5489  14.514   7.572  10.976 -0.0349 -0.0718 -0.0350
  344loPI    C2 5490  14.779   7.731  11.230  0.0282 -0.0895 -0.0894
  344loPI    C3 5491  14.457   7.540  11.371  0.1090 -0.1768 -0.0215
  344loPI   PO4 5492  14.664   7.514  10.810  0.0481  0.2409 -0.0475
  344loPI   GL1 5493  14.784   7.656  10.382  0.0433 -0.0014 -0.1596
  344loPI   GL2 5494  15.113   7.548  10.460  0.2208  0.3286 -0.0448
  344loPI   C1A 5495  14.454   7.840  10.178  0.0846 -0.2129  0.0392
  344loPI   C2A 5496  14.374   7.713   9.698 -0.0103  0.5174  0.3254
  344loPI   C3A 5497  14.558   7.772   9.355 -0.2176 -0.0975  0.0229
  344loPI   C4A 5498  14.689   7.740   8.917 -0.0006 -0.2502  0.0037
  344loPI   C5A 5499  14.722   7.512   8.521  0.1895  0.0602  0.2330
  344loPI   C6A 5500  15.034   7.449   8.177  0.0399  0.0253  0.4086
  344loPI   C1B 5501  15.257   7.593  10.042 -0.2396  0.0970  0.1706
  344loPI   C2B 5502  15.465   7.618   9.698 -0.0507  0.2662 -0.1195
  344loPI   C3B 5503  15.526   7.661   9.260  0.1139 -0.1773 -0.3249
  344loPI   C4B 5504  15.681   7.501   8.822  0.1487 -0.1680 -0.0278
  345loPI    C1 5505   9.301   8.833  10.984 -0.0660 -0.0626  0.0070
  345loPI    C2 5506   9.681   8.955  11.018 -0.0855  0.0691 -0.2267
  345loPI    C3 5507   9.422   9.022  11.315  0.0261  0.1532 -0.1475
  345loPI   PO4 5508   9.295   8.890  10.670 -0.0682 -0.1058 -0.3398
  345loPI   GL1 5509   9.297   9.218  10.393 -0.2555  0.0410 -0.1218
  345loPI   GL2 5510   9.415   9.452  10.309 -0.1163  0.1330  0.3629
  345loPI   C1A 5511   9.300   9.102   9.974  0.2116 -0.0886 -0.1811
  345loPI   C2A 5512   9.279   9.114   9.500  0.2886 -0.1493 -0.2788
  345loPI   C3A 5513   9.276   9.122   8.995  0.2718 -0.0610 -0.0403
  345loPI   C4A 5514   9.317   8.904   8.567 -0.1999  0.0217  0.1153
  345loPI   C5A 5515   9.279   8.866   8.124  0.0591  0.2570 -0.0775
  345loPI   C6A 5516   9.187   9.163   7.745  0.0053  0.0271 -0.0483
  345loPI   C1B 5517   9.561   9.592   9.948 -0.0209  0.3739  0.0822
  345loPI   C2B 5518   9.491   9.632   9.520  0.0874  0.1972  0.0086
  345loPI   C3B 5519   9.290   9.588   9.091 -0.1903  0.2874  0.1835
  345loPI   C4B 5520   8.992   9.512   8.869 -0.2321  0.3852 -0.0854
  346loPI    C1 5521   1.128  14.882  10.745 -0.1171 -0.0404 -0.2352
  346loPI    C2 5522   1.344  14.611  10.544 -0.0320  0.0618 -0.2823
  346loPI    C3 5523   1.430  14.692  10.927 -0.3067 -0.2618 -0.1475
  346loPI   PO4 5524   0.949  15.056  10.457  0.0414  0.0446 -0.2279
  346loPI   GL1 5525   0.708  14.873  10.151 -0.1441 -0.0482 -0.1678
  346loPI   GL2 5526   0.561  15.172  10.174  0.2028  0.1458 -0.1018
  346loPI   C1A 5527   0.918  14.633   9.896  0.0021  0.1829 -0.3262
  346loPI   C2A 5528   1.059  14.759   9.542  0.0086  0.0137 -0.1118
  346loPI   C3A 5529   1.207  14.669   9.217  0.2089  0.0540 -0.0440
  346loPI   C4A 5530   1.245  14.468   8.776 -0.1219 -0.0326  0.1063
  346loPI   C5A 5531   1.335  14.097   8.404  0.0346 -0.1706  0.1452
  346loPI   C6A 5532   1.130  13.992   8.035  0.3362  0.0607 -0.1940
  346loPI   C1B 5533   0.709  15.652  10.046  0.0503  0.2958 -0.1471
  346loPI   C2B 5534   0.599  15.745   9.643 -0.0988 -0.2276  0.2481
  346loPI   C3B 5535   0.583  16.040   9.344  0.0697 -0.1690 -0.0941
  346loPI   C4B 5536   0.648  16.463   9.196  0.2790 -0.0764 -0.2633
  347loPI    C1 5537  10.568   3.013  10.373 -0.1002  0.0468  0.3618
  347loPI    C2 5538  10.484   3.380  10.238  0.2056 -0.0519 -0.1216
  347loPI    C3 5539  10.701   3.334  10.571 -0.2249  0.1981  0.2045
  347loPI   PO4 5540  10.328   2.881  10.257 -0.2810  0.0694  0.0050
  347loPI   GL1 5541  10.364   2.672   9.817  0.0417  0.1118  0.1062
  347loPI   GL2 5542  10.178   2.419   9.693 -0.1636 -0.0879  0.0929
  347loPI   C1A 5543  10.529   2.801   9.377  0.1089  0.2679 -0.1206
  347loPI   C2A 5544  10.508   2.714   8.912  0.0127  0.2996 -0.0814
  347loPI   C3A 5545  10.489   2.554   8.492  0.2543  0.0856  0.1192
  347loPI   C4A 5546  10.295   2.619   8.168  0.4395  0.0472 -0.1363
  347loPI   C5A 5547   9.948   2.652   7.882 -0.0673 -0.0707 -0.5819
  347loPI   C6A 5548   9.468   2.630   7.852  0.2113 -0.2529 -0.1494
  347loPI   C1B 5549  10.153   2.338   9.303 -0.0762  0.3129  0.2187
  347loPI   C2B 5550  10.426   2.237   8.856  0.0785  0.2031  0.0784
  347loPI   C3B 5551  10.224   2.116   8.462  0.1273  0.2020  0.1518
  347loPI   C4B 5552  10.050   2.173   8.105 -0.0755  0.1075 -0.0658
  348loPI    C1 5553   1.733   6.336  10.945 -0.0501  0.2931  0.2003
  348loPI    C2 5554   1.450   6.305  11.226  0.0066  0.0312  0.2312
  348loPI    C3 5555   1.722   6.015  11.183 -0.0320  0.0433 -0.1284
  348loPI   PO4 5556   1.704   6.384  10.654 -0.0499  0.1295  0.1145
  348loPI   GL1 5557   1.731   6.666  10.405 -0.2617  0.0440  0.1332
  348loPI   GL2 5558   1.478   6.844  10.377 -0.2634  0.1801  0.0905
  348loPI   C1A 5559   1.970   6.652  10.054  0.1320  0.0090 -0.0159
  348loPI   C2A 5560   1.869   6.716   9.583  0.0802  0.0177 -0.2723
  348loPI   C3A 5561   1.597   6.795   9.193 -0.1006 -0.0196 -0.3624
  348loPI   C4A 5562   1.446   7.057   8.915  0.0261  0.0450  0.0970
  348loPI   C5A 5563   1.541   7.191   8.511  0.1393  0.2964  0.1696
  348loPI   C6A 5564   1.796   7.521   8.380 -0.0280 -0.4521  0.1423
  348loPI   C1B 5565   1.412   6.655   9.967 -0.1159 -0.2294 -0.0436
  348loPI   C2B 5566   1.326   6.493   9.613 -0.3085  0.0962 -0.4210
  348loPI   C3B 5567   1.163   6.438   9.309  0.2864  0.2088 -0.0844
  348loPI   C4B 5568   1.398   6.268   9.053 -0.5085  0.0065  0.1453
  349loPI    C1 5569   7.164   9.193  10.345  0.0610 -0.0422  0.1245
  349loPI    C2 5570   7.151   9.533  10.135 -0.2395 -0.2199 -0.1529
  349loPI    C3 5571   7.297   9.534  10.507 -0.2157  0.2064 -0.1582
  349loPI   PO4 5572   6.905   9.147  10.348  0.0418 -0.2352  0.0226
  349loPI   GL1 5573   6.813   9.237   9.927 -0.2507 -0.1076 -0.0971
  349loPI   GL2 5574   6.535   9.510   9.977  0.1964  0.2099 -0.0459
  349loPI   C1A 5575   6.768   9.261   9.475  0.2479 -0.2072 -0.1433
  349loPI   C2A 5576   6.783   9.162   9.078 -0.2033 -0.1870 -0.2773
  349loPI   C3A 5577   6.958   9.240   8.607 -0.1844  0.2106 -0.2070
  349loPI   C4A 5578   7.170   9.205   8.275 -0.0928  0.2164 -0.1075
  349loPI   C5A 5579   7.174   8.987   7.952 -0.2110 -0.0649 -0.0786
  349loPI   C6A 5580   7.213   9.137   7.547  0.0044  0.0599 -0.0128
  349loPI   C1B 5581   6.332   9.302   9.677  0.0608  0.0796  0.4423
  349loPI   C2B 5582   6.265   9.087   9.288 -0.1369 -0.1278  0.0431
  349loPI   C3B 5583   6.286   9.000   8.985  0.1174 -0.1171 -0.1196
  349loPI   C4B 5584   6.368   9.142   8.533 -0.0722  0.1718 -0.2012
  350loPI    C1 5585   1.698   5.041  10.585 -0.0255  0.0890  0.0159
  350loPI    C2 5586   1.797   4.960  10.964  0.1142 -0.1358 -0.0664
  350loPI    C3 5587   1.414   5.013  10.865  0.0839  0.0059  0.1198
  350loPI   PO4 5588   1.871   4.880  10.472  0.4264 -0.3111 -0.0738
  350loPI   GL1 5589   1.897   4.989  10.032  0.1055 -0.0290  0.2338
  350loPI   GL2 5590   1.879   5.267  10.039 -0.0660  0.0848  0.3159
  350loPI   C1A 5591   1.690   4.730   9.778 -0.2499  0.1549  0.0701
  350loPI   C2A 5592   1.634   4.781   9.342 -0.2937 -0.0806 -0.1023
  350loPI   C3A 5593   1.458   4.821   8.972 -0.1601  0.2846 -0.3586
  350loPI   C4A 5594   1.142   5.017   8.635  0.0130 -0.0899  0.1547
  350loPI   C5A 5595   0.806   4.946   8.395 -0.0314 -0.1187 -0.1047
  350loPI   C6A 5596   0.441   4.790   8.453 -0.1445  0.3471 -0.0532
  350loPI   C1B 5597   1.997   5.174   9.580  0.4612  0.2890 -0.1520
  350loPI   C2B 5598   1.798   5.176   9.125  0.1183 -0.3712  0.0671
  350loPI   C3B 5599   1.628   5.278   8.747 -0.0686 -0.5590 -0.1279
  350loPI   C4B 5600   1.535   5.246   8.345 -0.0922 -0.2633 -0.2413
  351loPI    C1 5601  15.268  14.601  10.727  0.0080  0.0805 -0.2107
  351loPI    C2 5602  15.579  14.351  10.707 -0.1569 -0.1459 -0.0059
  351loPI    C3 5603  15.480  14.519  11.056 -0.2786 -0.0926 -0.0654
  351loPI   PO4 5604  15.250  14.678  10.501  0.1003  0.2346 -0.0829
  351loPI   GL1 5605  15.390  14.410  10.230 -0.2868 -0.2237  0.1638
  351loPI   GL2 5606  15.261  14.177  10.083  0.1460  0.1015 -0.2124
  351loPI   C1A 5607  15.341  14.449   9.656  0.0401 -0.1177 -0.2765
  351loPI   C2A 5608  15.229  14.622   9.220  0.1303 -0.2249  0.0323
  351loPI   C3A 5609  15.402  14.854   8.800  0.0549  0.2294 -0.3841
  351loPI   C4A 5610  15.532  14.890   8.389 -0.0616 -0.2072  0.1200
  351loPI   C5A 5611  15.450  15.128   8.005 -0.0849 -0.0004  0.0085
  351loPI   C6A 5612  15.217  15.231   7.612  0.0728 -0.1291  0.0685
  351loPI   C1B 5613  15.191  14.015   9.633 -0.0388  0.0670 -0.1342
  351loPI   C2B 5614  15.188  14.119   9.197 -0.0897  0.1125 -0.0888
  351loPI   C3B 5615  15.316  14.208   8.727  0.2649 -0.4988 -0.0909
  351loPI   C4B 5616  15.271  14.143   8.234 -0.4027  0.3445  0.0220
  352loPI    C1 5617  16.848  15.669  11.001 -0.0835  0.1455 -0.1229
  352loPI    C2 5618  17.227  15.725  11.114 -0.0034 -0.0567 -0.2854
  352loPI    C3 5619  16.945  15.655  11.388  0.0945 -0.0071 -0.1717
  352loPI   PO4 5620  16.850  15.841  10.803 -0.0814  0.1884 -0.1095
  352loPI   GL1 5621  17.091  15.819  10.438 -0.2375 -0.2070 -0.3573
  352loPI   GL2 5622  17.212  16.139  10.365  0.1646  0.1878 -0.1082
  352loPI   C1A 5623  17.059  15.565  10.076  0.2757  0.1255 -0.2391
  352loPI   C2A 5624  17.145  15.127   9.807  0.0984 -0.4560 -0.2162
  352loPI   C3A 5625  17.026  15.084   9.353 -0.1092 -0.1406 -0.0911
  352loPI   C4A 5626  17.030  15.040   8.969 -0.3135  0.2341  0.1753
  352loPI   C5A 5627  17.063  14.668   8.685  0.1006 -0.0339  0.0255
  352loPI   C6A 5628  16.998  14.307   8.343  0.0529 -0.1572  0.1347
  352loPI   C1B 5629  17.146  16.085   9.878 -0.1180 -0.0350 -0.0097
  352loPI   C2B 5630  17.415  16.043   9.529 -0.1936 -0.2654 -0.5450
  352loPI   C3B 5631  17.371  15.957   9.092 -0.2447 -0.0906 -0.1809
  352loPI   C4B 5632  17.493  15.810   8.682  0.2112 -0.3751 -0.0512
  353loPI    C1 5633   3.007  12.737  10.598  0.2460 -0.0589  0.0405
  353loPI    C2 5634   3.039  12.943  10.940 -0.1735 -0.0326  0.0694
  353loPI    C3 5635   3.258  12.613  10.884 -0.1094 -0.0433  0.3675
  353loPI   PO4 5636   3.088  12.930  10.436  0.0274  0.0357  0.1725
  353loPI   GL1 5637   3.050  12.909  10.048  0.4325 -0.0406 -0.2539
  353loPI   GL2 5638   3.230  13.123  10.012  0.0279 -0.2815 -0.1291
  353loPI   C1A 5639   2.852  12.994   9.699 -0.1177 -0.0522 -0.0861
  353loPI   C2A 5640   2.836  13.038   9.273  0.2814 -0.1263 -0.0794
  353loPI   C3A 5641   2.978  12.993   8.789  0.5179 -0.1479 -0.0062
  353loPI   C4A 5642   3.000  13.124   8.360 -0.0482 -0.0295 -0.3457
  353loPI   C5A 5643   3.058  13.384   8.034 -0.2396  0.0296  0.1056
  353loPI   C6A 5644   3.292  13.753   8.068 -0.2110 -0.0763  0.2735
  353loPI   C1B 5645   3.347  13.112   9.541 -0.0003  0.2663 -0.1432
  353loPI   C2B 5646   3.361  13.077   9.091 -0.0100  0.0307  0.0091
  353loPI   C3B 5647   3.435  13.022   8.630  0.3052 -0.1047  0.1477
  353loPI   C4B 5648   3.458  13.062   8.123  0.0588  0.0784 -0.2173
  354loPI    C1 5649  16.362  14.557  10.832  0.0210 -0.1715  0.0833
  354loPI    C2 5650  16.345  14.770  11.170 -0.1694 -0.0426 -0.0059
  354loPI    C3 5651  16.435  14.381  11.184 -0.1370 -0.0292  0.1890
  354loPI   PO4 5652  16.438  14.710  10.682 -0.1140  0.3312  0.0810
  354loPI   GL1 5653  16.511  14.826  10.367 -0.2752 -0.0629  0.1149
  354loPI   GL2 5654  16.568  15.173  10.218 -0.0096  0.1355 -0.2706
  354loPI   C1A 5655  16.225  14.971   9.970 -0.2074 -0.0237  0.4525
  354loPI   C2A 5656  16.132  14.887   9.590 -0.2489  0.0449 -0.0269
  354loPI   C3A 5657  15.958  14.887   9.160 -0.3736  0.1820  0.2922
  354loPI   C4A 5658  15.885  15.014   8.760  0.3574  0.0224  0.1669
  354loPI   C5A 5659  16.235  15.159   8.583  0.2917 -0.1389  0.0336
  354loPI   C6A 5660  16.324  15.461   8.186  0.1191  0.0555 -0.0273
  354loPI   C1B 5661  16.656  15.254   9.726  0.1982 -0.1397  0.2735
  354loPI   C2B 5662  16.488  15.117   9.292 -0.3447  0.0613 -0.1363
  354loPI   C3B 5663  16.484  14.868   8.886 -0.2272  0.2494 -0.2230
  354loPI   C4B 5664  16.373  14.688   8.471 -0.0455  0.3743  0.0627
  355loPI    C1 5665   4.778   3.877  10.772  0.0946  0.3123  0.1230
  355loPI    C2 5666   4.611   3.618  11.027  0.0783  0.0327 -0.1640
  355loPI    C3 5667   4.442   3.975  10.964 -0.1083 -0.0331 -0.0444
  355loPI   PO4 5668   4.846   3.578  10.506 -0.0411 -0.0738 -0.0636
  355loPI   GL1 5669   4.642   3.351  10.210  0.0579 -0.0774  0.1719
  355loPI   GL2 5670   4.226   3.237  10.173 -0.1374 -0.0483  0.0712
  355loPI   C1A 5671   4.694   3.388   9.701 -0.0105 -0.2390 -0.0249
  355loPI   C2A 5672   4.588   3.126   9.314 -0.0731  0.0114 -0.2320
  355loPI   C3A 5673   4.488   3.120   8.914 -0.1585 -0.3951 -0.4978
  355loPI   C4A 5674   4.594   2.970   8.527 -0.1750  0.1550 -0.3383
  355loPI   C5A 5675   4.635   3.240   8.155 -0.2318 -0.0673 -0.3112
  355loPI   C6A 5676   5.053   3.542   7.855 -0.0154 -0.0368 -0.2093
  355loPI   C1B 5677   4.162   3.300   9.685  0.0088 -0.2706  0.2870
  355loPI   C2B 5678   4.127   3.287   9.237  0.2141 -0.1946  0.2294
  355loPI   C3B 5679   4.148   3.491   8.875 -0.0208  0.1972 -0.3382
  355loPI   C4B 5680   4.177   3.364   8.400  0.1441 -0.2360 -0.3760
  356loPI    C1 5681   8.665   0.218  10.642  0.0299  0.0336 -0.0950
  356loPI    C2 5682   8.443   0.044  10.925 -0.0766 -0.0693 -0.2403
  356loPI    C3 5683   8.797  -0.113  10.824  0.0634  0.0921 -0.0122
  356loPI   PO4 5684   8.512   0.263  10.432  0.2900  0.1242 -0.0353
  356loPI   GL1 5685   8.567   0.200   9.947  0.2715  0.0547 -0.1250
  356loPI   GL2 5686   8.575  -0.123   9.876  0.1324  0.0750 -0.1379
  356loPI   C1A 5687   8.304   0.467   9.772  0.0251 -0.1899  0.0834
  356loPI   C2A 5688   8.257   0.522   9.326  0.0168  0.3359 -0.1982
  356loPI   C3A 5689   8.273   0.589   8.965 -0.0661 -0.0263 -0.0973
  356loPI   C4A 5690   8.091   0.811   8.554 -0.0536  0.1577  0.1287
  356loPI   C5A 5691   7.841   0.660   8.234 -0.1825  0.1466  0.2345
  356loPI   C6A 5692   7.689   0.538   7.817  0.1613 -0.1781 -0.0912
  356loPI   C1B 5693   8.486   0.056   9.412  0.0120  0.0838 -0.0609
  356loPI   C2B 5694   8.420   0.072   8.988 -0.2114 -0.2961 -0.2417
  356loPI   C3B 5695   8.628   0.034   8.587  0.3870  0.0974 -0.2281
  356loPI   C4B 5696   8.730  -0.180   8.254 -0.0977  0.1758 -0.3034
  357loPI    C1 5697   5.413  11.549  10.342 -0.0732 -0.1458  0.2861
  357loPI    C2 5698   5.687  11.821  10.444 -0.0675 -0.0470  0.0137
  357loPI    C3 5699   5.377  11.750  10.686  0.0706  0.0119  0.2101
  357loPI   PO4 5700   5.409  11.615  10.092  0.0319 -0.0978  0.0327
  357loPI   GL1 5701   5.619  11.613   9.639 -0.1157 -0.2657  0.1116
  357loPI   GL2 5702   5.396  11.774   9.410  0.0975 -0.0824 -0.1065
  357loPI   C1A 5703   5.833  11.602   9.163 -0.0192 -0.0113  0.0130
  357loPI   C2A 5704   5.730  11.595   8.856  0.1518 -0.0688 -0.0407
  357loPI   C3A 5705   5.941  11.500   8.515  0.1565  0.1553 -0.0512
  357loPI   C4A 5706   6.053  11.163   8.200  0.0985 -0.0774 -0.0787
  357loPI   C5A 5707   5.974  11.141   7.781 -0.0198 -0.0902 -0.1238
  357loPI   C6A 5708   6.096  11.155   7.295  0.0262 -0.2565 -0.1170
  357loPI   C1B 5709   5.349  11.409   9.159  0.1795  0.1463  0.1228
  357loPI   C2B 5710   5.167  11.145   8.971  0.0006 -0.0920  0.1500
  357loPI   C3B 5711   4.812  10.928   8.897 -0.0632 -0.1516  0.0169
  357loPI   C4B 5712   4.769  10.789   8.570 -0.1471 -0.2478 -0.0022
  358loPI    C1 5713  16.399  13.238  10.949  0.0610 -0.0901  0.2664
  358loPI    C2 5714  16.005  13.266  11.010 -0.0153 -0.2025 -0.1406
  358loPI    C3 5715  16.248  13.561  11.130 -0.2787  0.0901 -0.3127
  358loPI   PO4 5716  16.382  13.169  10.703  0.0401  0.0249 -0.1600
  358loPI   GL1 5717  16.252  13.284  10.257 -0.0656  0.1157  0.2548
  358loPI   GL2 5718  16.717  13.283  10.212 -0.1660  0.0411 -0.0192
  358loPI   C1A 5719  16.126  13.101   9.768  0.2102 -0.2699  0.4646
  358loPI   C2A 5720  16.085  13.050   9.302  0.0192  0.1677 -0.0447
  358loPI   C3A 5721  15.994  12.830   8.913  0.0651 -0.2627  0.0116
  358loPI   C4A 5722  15.905  12.637   8.558 -0.1083  0.1153  0.3380
  358loPI   C5A 5723  15.765  12.504   8.142  0.1204  0.1993 -0.0453
  358loPI   C6A 5724  15.554  12.406   7.856  0.2295 -0.2286 -0.1341
  358loPI   C1B 5725  16.499  13.396   9.830 -0.0767  0.0898 -0.0216
  358loPI   C2B 5726  16.415  13.418   9.415  0.0269  0.0937 -0.1590
  358loPI   C3B 5727  16.177  13.480   9.091  0.2047 -0.2756 -0.1170
  358loPI   C4B 5728  16.235  13.697   8.749  0.0660 -0.3304  0.1905
  359loPI    C1 5729   5.221  15.727  10.543 -0.2300  0.1640 -0.0957
  359loPI    C2 5730   5.321  16.110  10.599 -0.0302  0.0944  0.0341
  359loPI    C3 5731   5.093  15.921  10.869 -0.0674  0.1005  0.0070
  359loPI   PO4 5732   5.087  15.719  10.310 -0.1966  0.0127 -0.2398
  359loPI   GL1 5733   5.063  15.743   9.929 -0.1651 -0.1735  0.2779
  359loPI   GL2 5734   5.178  15.934   9.797 -0.2266  0.1656 -0.1954
  359loPI   C1A 5735   4.910  15.571   9.538 -0.1109 -0.1284  0.0465
  359loPI   C2A 5736   4.869  15.568   9.142 -0.0691 -0.1075  0.1590
  359loPI   C3A 5737   4.748  15.738   8.734 -0.2092 -0.1605 -0.0819
  359loPI   C4A 5738   4.576  16.070   8.513  0.0963  0.0270 -0.5731
  359loPI   C5A 5739   4.595  16.353   8.303  0.0985 -0.1204  0.1931
  359loPI   C6A 5740   4.613  16.535   7.939 -0.0305  0.0106  0.3782
  359loPI   C1B 5741   4.945  16.048   9.430 -0.1095 -0.0590  0.2599
  359loPI   C2B 5742   4.723  16.041   9.082  0.1047 -0.1135 -0.1992
  359loPI   C3B 5743   4.342  15.922   8.939 -0.0550  0.0300  0.0083
  359loPI   C4B 5744   4.080  15.995   9.205 -0.1583 -0.1286  0.0865
  360loPI    C1 5745  16.222   4.971  11.661  0.0713  0.0160 -0.1836
  360loPI    C2 5746  16.046   5.293  11.821  0.1248 -0.0632  0.0392
  360loPI    C3 5747  16.051   4.948  12.022 -0.1807 -0.2839 -0.3178
  360loPI   PO4 5748  16.131   4.994  11.416  0.0160  0.2833  0.0878
  360loPI   GL1 5749  16.394   5.075  11.011 -0.0610 -0.2192  0.0934
  360loPI   GL2 5750  16.697   5.235  11.040  0.1989 -0.0417 -0.1858
  360loPI   C1A 5751  16.149   4.923  10.693  0.2184  0.0662  0.0822
  360loPI   C2A 5752  16.239   4.724  10.247  0.0256  0.0505  0.1478
  360loPI   C3A 5753  16.238   4.938   9.896  0.2770  0.1331 -0.0619
  360loPI   C4A 5754  15.949   4.928   9.508 -0.0933  0.0518  0.1849
  360loPI   C5A 5755  15.930   4.896   9.144  0.0011 -0.1094  0.0508
  360loPI   C6A 5756  15.934   5.186   8.781 -0.0699  0.1901  0.0126
  360loPI   C1B 5757  16.687   4.962  10.672 -0.0276 -0.0430  0.0062
  360loPI   C2B 5758  16.752   4.779  10.351 -0.3570 -0.0592 -0.0643
  360loPI   C3B 5759  16.971   4.668   9.962  0.2025  0.1949  0.2409
  360loPI   C4B 5760  17.158   4.559   9.635 -0.0767 -0.0331 -0.0621
  361loPI    C1 5761   3.322   5.074  10.412 -0.0862 -0.1032 -0.0998
  361loPI    C2 5762   3.037   5.330  10.528 -0.0432 -0.0563 -0.0972
  361loPI    C3 5763   3.093   4.988  10.728 -0.2107 -0.1454 -0.2008
  361loPI   PO4 5764   3.616   5.254  10.386 -0.0157 -0.0560  0.3991
  361loPI   GL1 5765   3.474   5.634  10.236  0.2643 -0.2434  0.0154
  361loPI   GL2 5766   3.232   5.606  10.039  0.0593 -0.1510  0.0967
  361loPI   C1A 5767   3.585   5.616   9.721  0.1439 -0.3433  0.1431
  361loPI   C2A 5768   3.389   5.525   9.366  0.0878 -0.1191 -0.2686
  361loPI   C3A 5769   3.356   5.562   8.915 -0.0220 -0.3568 -0.3373
  361loPI   C4A 5770   3.351   5.775   8.497  0.1628  0.3660 -0.0996
  361loPI   C5A 5771   3.660   5.734   8.272 -0.3866 -0.1027  0.4722
  361loPI   C6A 5772   3.799   5.895   7.847 -0.1053  0.0227  0.1481
  361loPI   C1B 5773   3.078   5.782   9.686  0.3254  0.2584  0.2397
  361loPI   C2B 5774   2.842   5.849   9.258  0.1407 -0.0573 -0.0427
  361loPI   C3B 5775   2.928   5.693   8.793 -0.1564 -0.0306  0.3513
  361loPI   C4B 5776   3.039   5.409   8.450 -0.0210  0.0174  0.0539
  362loPI    C1 5777   3.968   8.158  10.017  0.0159 -0.0296 -0.0543
  362loPI    C2 5778   4.366   8.123  10.049  0.0266  0.1349  0.0025
  362loPI    C3 5779   4.126   7.923  10.300  0.0814  0.2925  0.1825
  362loPI   PO4 5780   3.970   8.222   9.709 -0.3869 -0.1107  0.1213
  362loPI   GL1 5781   4.212   8.411   9.518  0.2084  0.1453 -0.1098
  362loPI   GL2 5782   4.500   8.262   9.599  0.2195 -0.3225 -0.0088
  362loPI   C1A 5783   4.280   8.314   9.057 -0.1398 -0.2853 -0.2103
  362loPI   C2A 5784   4.429   8.379   8.646 -0.1506  0.0906  0.1408
  362loPI   C3A 5785   4.417   8.696   8.470  0.1111  0.0388  0.0994
  362loPI   C4A 5786   4.750   8.903   8.160 -0.0866  0.0904  0.1566
  362loPI   C5A 5787   5.187   8.898   8.164 -0.1309  0.0961 -0.0055
  362loPI   C6A 5788   5.454   9.124   8.345 -0.0650  0.1350  0.3161
  362loPI   C1B 5789   4.525   7.852   9.341  0.1311  0.2761 -0.1744
  362loPI   C2B 5790   4.619   7.749   8.881  0.1650 -0.0781  0.0136
  362loPI   C3B 5791   4.835   7.619   8.572 -0.2393  0.0498  0.0924
  362loPI   C4B 5792   5.011   7.204   8.544 -0.1371 -0.2431 -0.0442
  363loPI    C1 5793   2.358   9.502  10.752 -0.1670 -0.2969  0.1133
  363loPI    C2 5794   2.375   9.811  11.005 -0.0683 -0.0435 -0.1957
  363loPI    C3 5795   2.699   9.583  10.945 -0.0334  0.0183 -0.2428
  363loPI   PO4 5796   2.284   9.521  10.539  0.0725  0.1545 -0.1666
  363loPI   GL1 5797   2.467   9.438  10.040  0.0040  0.1722 -0.2322
  363loPI   GL2 5798   2.578   9.666   9.983 -0.1886 -0.2734 -0.1253
  363loPI   C1A 5799   2.600   9.292   9.642  0.0691 -0.0050 -0.0197
  363loPI   C2A 5800   2.383   9.067   9.386  0.1914  0.2577 -0.1521
  363loPI   C3A 5801   2.519   9.089   8.940  0.2166  0.0362  0.0887
  363loPI   C4A 5802   2.360   8.868   8.522  0.2007  0.1221 -0.0915
  363loPI   C5A 5803   2.568   8.852   8.101 -0.1069 -0.0410  0.2584
  363loPI   C6A 5804   2.847   9.133   8.054 -0.2742 -0.1319 -0.0597
  363loPI   C1B 5805   2.901   9.647   9.532 -0.1706  0.3473  0.0377
  363loPI   C2B 5806   2.684   9.477   9.138  0.2218  0.1296  0.2241
  363loPI   C3B 5807   2.570   9.726   8.796 -0.0369  0.1368 -0.1078
  363loPI   C4B 5808   2.399  10.159   8.587 -0.0873 -0.1686 -0.1234
  364loPI    C1 5809  11.608   5.423  10.383 -0.1025  0.1219 -0.0667
  364loPI    C2 5810  11.602   5.279  10.010 -0.1895  0.0104 -0.0228
  364loPI    C3 5811  11.285   5.228  10.249 -0.2076  0.2446  0.0052
  364loPI   PO4 5812  11.654   5.672  10.381  0.3283  0.1693 -0.2103
  364loPI   GL1 5813  11.730   5.998  10.097 -0.0851 -0.2693  0.0631
  364loPI   GL2 5814  11.558   5.786   9.902 -0.2036 -0.1055 -0.0627
  364loPI   C1A 5815  11.889   6.159   9.837 -0.0988  0.1473  0.0381
  364loPI   C2A 5816  11.920   6.182   9.407  0.1230  0.0711 -0.0171
  364loPI   C3A 5817  11.956   6.197   9.092 -0.1790  0.0230 -0.1275
  364loPI   C4A 5818  12.306   6.332   8.846  0.0443  0.0685  0.2128
  364loPI   C5A 5819  12.595   6.615   8.712  0.3238 -0.1474 -0.0617
  364loPI   C6A 5820  13.039   6.706   8.658  0.3603 -0.0755 -0.0375
  364loPI   C1B 5821  11.566   5.820   9.499  0.1206 -0.3429 -0.1841
  364loPI   C2B 5822  11.619   5.834   9.098 -0.3056  0.1571 -0.4575
  364loPI   C3B 5823  11.838   5.749   8.630  0.3681  0.0659 -0.1680
  364loPI   C4B 5824  12.088   5.952   8.467  0.0444 -0.0374  0.3628
  365loPI    C1 5825   3.144   8.431  10.412 -0.0178 -0.0300  0.1071
  365loPI    C2 5826   3.444   8.229  10.582  0.2361  0.0860 -0.1930
  365loPI    C3 5827   3.125   8.335  10.799  0.2155 -0.4070  0.0295
  365loPI   PO4 5828   3.052   8.293  10.248 -0.1886 -0.1247  0.0424
  365loPI   GL1 5829   3.011   8.074   9.890  0.0719 -0.0927  0.3959
  365loPI   GL2 5830   2.908   7.825  10.054  0.1600 -0.0924 -0.3732
  365loPI   C1A 5831   2.995   7.876   9.479 -0.0981 -0.4038 -0.0338
  365loPI   C2A 5832   3.103   7.816   9.082  0.1064  0.2372  0.2359
  365loPI   C3A 5833   3.205   7.722   8.647  0.0566 -0.0136 -0.0552
  365loPI   C4A 5834   3.424   7.587   8.237  0.0424  0.0491  0.0214
  365loPI   C5A 5835   3.655   7.147   8.217  0.1793  0.0745  0.1357
  365loPI   C6A 5836   3.725   6.647   8.278 -0.0563  0.0896 -0.0665
  365loPI   C1B 5837   2.836   7.447   9.752  0.2992  0.0378  0.0979
  365loPI   C2B 5838   2.895   7.385   9.315  0.3854 -0.0805 -0.2828
  365loPI   C3B 5839   2.865   7.437   8.847  0.2981 -0.1278 -0.1680
  365loPI   C4B 5840   2.872   7.427   8.411  0.2777 -0.3818  0.2213
  366loPI    C1 5841   1.202   2.386  10.677  0.1307 -0.1624  0.1004
  366loPI    C2 5842   1.264   2.780  10.659 -0.2758 -0.0988 -0.0198
  366loPI    C3 5843   1.447   2.561  10.939 -0.0368  0.1705  0.0397
  366loPI   PO4 5844   1.188   2.293  10.372 -0.1403 -0.1588  0.0797
  366loPI   GL1 5845   0.939   2.151  10.057  0.0385 -0.2383  0.1739
  366loPI   GL2 5846   1.183   1.925   9.947  0.0568  0.0668  0.1631
  366loPI   C1A 5847   1.035   2.320   9.698 -0.0456  0.0705 -0.0745
  366loPI   C2A 5848   1.049   2.309   9.297 -0.1318  0.0777 -0.0592
  366loPI   C3A 5849   0.836   2.097   8.948 -0.0522  0.0752 -0.3980
  366loPI   C4A 5850   0.810   2.150   8.569  0.1575  0.2239  0.1218
  366loPI   C5A 5851   0.969   2.259   8.157  0.0989 -0.0121  0.0745
  366loPI   C6A 5852   0.750   2.346   7.742 -0.2803 -0.1330 -0.1381
  366loPI   C1B 5853   1.287   1.890   9.517  0.0464 -0.1935 -0.1577
  366loPI   C2B 5854   1.261   1.878   9.053 -0.0292 -0.0653 -0.4643
  366loPI   C3B 5855   1.144   1.789   8.691 -0.1277  0.2870 -0.1164
  366loPI   C4B 5856   1.012   1.731   8.312 -0.0621 -0.0248 -0.1697
  367loPI    C1 5857   1.798   5.520  11.189  0.4423 -0.3724  0.0801
  367loPI    C2 5858   1.518   5.261  11.311  0.1139 -0.0277  0.0774
  367loPI    C3 5859   1.658   5.537  11.563  0.2537 -0.0253 -0.0018
  367loPI   PO4 5860   1.787   5.500  10.852  0.1426  0.0672 -0.5335
  367loPI   GL1 5861   1.585   5.482  10.440  0.1590 -0.0017 -0.3192
  367loPI   GL2 5862   1.320   5.310  10.408 -0.3173 -0.1261  0.0185
  367loPI   C1A 5863   1.488   5.667  10.053  0.1443 -0.0029 -0.4248
  367loPI   C2A 5864   1.625   5.684   9.658  0.0739  0.1933 -0.0514
  367loPI   C3A 5865   1.536   5.805   9.206  0.0149  0.0545  0.2522
  367loPI   C4A 5866   1.517   5.835   8.781 -0.2542  0.1175  0.2757
  367loPI   C5A 5867   1.356   5.722   8.405 -0.2442  0.2510  0.2183
  367loPI   C6A 5868   1.042   5.446   8.302  0.2981 -0.0594  0.1738
  367loPI   C1B 5869   1.373   5.237   9.976  0.1984 -0.2538 -0.3953
  367loPI   C2B 5870   1.505   5.234   9.558  0.2924  0.0602  0.0630
  367loPI   C3B 5871   1.307   5.294   9.170  0.2989  0.2395  0.1844
  367loPI   C4B 5872   1.124   5.493   8.818 -0.2504 -0.0409 -0.2048
  368loPI    C1 5873   1.324   5.626  10.954  0.0451 -0.0462  0.0484
  368loPI    C2 5874   1.290   5.793  11.316 -0.1328 -0.0203  0.0208
  368loPI    C3 5875   1.050   5.490  11.212  0.0728 -0.1810  0.0075
  368loPI   PO4 5876   1.384   5.831  10.842  0.1822  0.1986  0.0290
  368loPI   GL1 5877   1.331   5.988  10.385  0.1687  0.1512 -0.2096
  368loPI   GL2 5878   1.376   6.292  10.262 -0.0811 -0.1473  0.0288
  368loPI   C1A 5879   1.052   5.708  10.240  0.1024  0.2575 -0.0795
  368loPI   C2A 5880   0.968   5.550   9.771  0.0102 -0.0606 -0.1180
  368loPI   C3A 5881   0.898   5.460   9.355  0.3941  0.2453 -0.2553
  368loPI   C4A 5882   0.620   5.617   9.113  0.1481  0.0299  0.2094
  368loPI   C5A 5883   0.318   5.651   8.703  0.3684 -0.0313 -0.1093
  368loPI   C6A 5884   0.179   5.449   8.521  0.0376 -0.0236 -0.3194
  368loPI   C1B 5885   1.225   6.137   9.929 -0.0215 -0.2792 -0.1029
  368loPI   C2B 5886   1.200   5.984   9.525 -0.1253 -0.0751 -0.2992
  368loPI   C3B 5887   1.041   5.928   9.154  0.0041  0.2433  0.0402
  368loPI   C4B 5888   0.786   5.889   8.747  0.2441  0.1803 -0.2274
  369loPI    C1 5889  11.027   4.216  10.065  0.1528 -0.0775 -0.0385
  369loPI    C2 5890  10.939   4.603  10.117  0.0716 -0.0731 -0.1998
  369loPI    C3 5891  10.908   4.348  10.424  0.3531  0.0891 -0.0317
  369loPI   PO4 5892  10.837   4.102   9.870  0.1062  0.1877 -0.0971
  369loPI   GL1 5893  10.868   3.996   9.425 -0.2429  0.2248  0.0067
  369loPI   GL2 5894  10.614   3.739   9.336  0.0478 -0.0338 -0.3120
  369loPI   C1A 5895  10.860   4.258   9.033 -0.1055  0.2327 -0.1844
  369loPI   C2A 5896  10.923   4.272   8.633  0.2010 -0.0300  0.0860
  369loPI   C3A 5897  10.824   4.330   8.226  0.2670  0.0361 -0.0314
  369loPI   C4A 5898  10.633   4.274   7.838  0.2161 -0.1784 -0.0706
  369loPI   C5A 5899  10.868   4.258   7.384 -0.0222 -0.3085  0.1207
  369loPI   C6A 5900  11.154   4.367   7.030 -0.1745 -0.3327  0.1965
  369loPI   C1B 5901  10.852   3.752   8.901  0.0959 -0.2433 -0.1753
  369loPI   C2B 5902  10.813   3.656   8.533  0.1616 -0.0691 -0.0847
  369loPI   C3B 5903  10.963   3.855   8.234 -0.3012 -0.0418 -0.0215
  369loPI   C4B 5904  11.199   3.688   7.904  0.3191 -0.1678 -0.0568
  370loPI    C1 5905   2.363  15.701  10.641 -0.1536 -0.1124 -0.1118
  370loPI    C2 5906   2.305  16.010  10.889 -0.0561 -0.0713 -0.1395
  370loPI    C3 5907   2.006  15.756  10.812 -0.0050 -0.2580  0.2543
  370loPI   PO4 5908   2.582  15.791  10.542 -0.0740 -0.0278  0.0855
  370loPI   GL1 5909   2.603  15.999  10.160 -0.1948 -0.1342 -0.0475
  370loPI   GL2 5910   2.755  15.733  10.091  0.0018 -0.1853  0.0763
  370loPI   C1A 5911   2.489  16.226   9.783  0.1609 -0.2293 -0.2052
  370loPI   C2A 5912   2.359  16.219   9.364 -0.2365 -0.1661  0.0993
  370loPI   C3A 5913   2.371  16.121   8.877  0.0818  0.0718 -0.1547
  370loPI   C4A 5914   2.616  16.164   8.459 -0.1864  0.0274  0.0915
  370loPI   C5A 5915   2.454  16.268   8.026  0.0742  0.0376  0.1324
  370loPI   C6A 5916   2.240  16.212   7.642 -0.1034 -0.2296 -0.1162
  370loPI   C1B 5917   2.631  15.760   9.651  0.3120 -0.1765  0.2415
  370loPI   C2B 5918   2.610  15.753   9.153 -0.1308  0.1013  0.0604
  370loPI   C3B 5919   2.746  15.636   8.715 -0.1812  0.0431  0.1823
  370loPI   C4B 5920   2.568  15.658   8.330 -0.1772  0.0812 -0.1043
  371loPI    C1 5921  16.629   4.632  11.016  0.0845  0.0229 -0.0453
  371loPI    C2 5922  16.649   4.710  11.408 -0.0441 -0.1025 -0.0130
  371loPI    C3 5923  16.928   4.855  11.161 -0.0434  0.0996  0.1040
  371loPI   PO4 5924  16.609   4.366  10.971 -0.2078  0.0493 -0.1710
  371loPI   GL1 5925  16.719   4.092  10.588  0.4625 -0.1880 -0.0932
  371loPI   GL2 5926  16.394   4.320  10.475  0.0084  0.1594 -0.1699
  371loPI   C1A 5927  16.516   3.913  10.146  0.2406  0.1923  0.1094
  371loPI   C2A 5928  16.509   4.009   9.768  0.0068 -0.1487  0.0441
  371loPI   C3A 5929  16.420   4.134   9.324 -0.2237 -0.0804 -0.1257
  371loPI   C4A 5930  16.437   4.246   8.954  0.0033  0.0015 -0.0637
  371loPI   C5A 5931  16.474   4.351   8.565 -0.0329  0.0314 -0.1405
  371loPI   C6A 5932  16.347   4.057   8.196 -0.1663  0.1324 -0.1021
  371loPI   C1B 5933  16.544   4.405  10.031  0.4287  0.1564  0.0337
  371loPI   C2B 5934  16.577   4.496   9.629  0.0979  0.1514  0.0311
  371loPI   C3B 5935  16.365   4.694   9.335  0.0276 -0.3413 -0.4492
  371loPI   C4B 5936  16.367   4.724   8.859  0.0119 -0.2522  0.0145
  372loPI    C1 5937   8.734  12.239  10.350 -0.4226  0.1787  0.0968
  372loPI    C2 5938   8.952  12.347  10.667 -0.1395 -0.0389 -0.0189
  372loPI    C3 5939   8.802  11.977  10.644 -0.1915 -0.0118 -0.1220
  372loPI   PO4 5940   8.843  12.247  10.185 -0.2682 -0.1230  0.2528
  372loPI   GL1 5941   8.973  12.352   9.824 -0.4383 -0.0081  0.3107
  372loPI   GL2 5942   8.633  12.198   9.723 -0.1755 -0.2191  0.1130
  372loPI   C1A 5943   9.089  12.195   9.373  0.1038  0.2435  0.1288
  372loPI   C2A 5944   9.503  12.141   9.214 -0.0500  0.0819 -0.2833
  372loPI   C3A 5945   9.875  12.118   8.928 -0.0168  0.0070 -0.0400
  372loPI   C4A 5946  10.084  12.328   8.562  0.3071  0.1950 -0.1989
  372loPI   C5A 5947  10.050  12.690   8.303  0.3508 -0.0852 -0.1803
  372loPI   C6A 5948   9.988  13.000   7.898 -0.1702 -0.0572  0.0863
  372loPI   C1B 5949   8.592  12.298   9.242  0.0009 -0.2111 -0.0060
  372loPI   C2B 5950   8.546  12.372   8.801  0.1180 -0.0568  0.1079
  372loPI   C3B 5951   8.512  12.094   8.423 -0.0749  0.0571 -0.1652
  372loPI   C4B 5952   8.764  11.949   8.048  0.3150  0.2025 -0.0702
  373loPI    C1 5953  12.139   9.991  10.686  0.0314  0.0143  0.1623
  373loPI    C2 5954  11.946   9.777  10.963 -0.0487 -0.0863  0.0301
  373loPI    C3 5955  12.343   9.744  10.924 -0.0585 -0.1981  0.0221
  373loPI   PO4 5956  12.043   9.932  10.451 -0.3406 -0.0164 -0.0273
  373loPI   GL1 5957  11.911   9.677  10.151  0.0762  0.1188 -0.2109
  373loPI   GL2 5958  12.183   9.507  10.194  0.1624  0.1927 -0.1882
  373loPI   C1A 5959  12.099   9.955   9.812  0.1892  0.0015 -0.3772
  373loPI   C2A 5960  12.172   9.820   9.433 -0.2154  0.1630  0.1784
  373loPI   C3A 5961  12.150   9.901   9.024 -0.0330  0.1041  0.1989
  373loPI   C4A 5962  12.373  10.090   8.743  0.2254 -0.2630 -0.1811
  373loPI   C5A 5963  12.289  10.209   8.292 -0.3259 -0.0577  0.3391
  373loPI   C6A 5964  12.309  10.687   8.217 -0.0732  0.3993 -0.2396
  373loPI   C1B 5965  12.337   9.430   9.847  0.2456  0.0054  0.1702
  373loPI   C2B 5966  12.448   9.420   9.315 -0.1458  0.0300 -0.2715
  373loPI   C3B 5967  12.427   9.473   8.857  0.0283  0.0888 -0.0870
  373loPI   C4B 5968  12.925   9.432   8.792  0.1200 -0.0927  0.0499
  374loPI    C1 5969   7.207  16.066  10.560  0.0986 -0.0120  0.0490
  374loPI    C2 5970   7.035  16.382  10.734  0.0037 -0.0571  0.0382
  374loPI    C3 5971   7.341  16.198  10.912  0.1326  0.1093 -0.0088
  374loPI   PO4 5972   7.252  16.203  10.221 -0.1191  0.2835  0.1271
  374loPI   GL1 5973   7.277  16.198   9.799  0.1544  0.0299  0.3045
  374loPI   GL2 5974   7.038  16.497   9.797 -0.2940  0.2849  0.3173
  374loPI   C1A 5975   7.287  16.338   9.360  0.0369  0.1340 -0.0361
  374loPI   C2A 5976   7.111  16.417   8.837  0.1938  0.1762 -0.2426
  374loPI   C3A 5977   7.117  16.467   8.425  0.1217 -0.1610  0.2124
  374loPI   C4A 5978   7.087  16.234   7.974 -0.0270  0.1827  0.3852
  374loPI   C5A 5979   6.915  16.444   7.586 -0.4182 -0.0926 -0.0207
  374loPI   C6A 5980   6.579  16.553   7.303  0.0563  0.3052 -0.0259
  374loPI   C1B 5981   6.823  16.171   9.466 -0.1581  0.3211 -0.0700
  374loPI   C2B 5982   6.991  15.970   9.086 -0.0866 -0.1198  0.0844
  374loPI   C3B 5983   6.829  15.574   8.862  0.0850 -0.2604 -0.1607
  374loPI   C4B 5984   6.677  15.675   8.498  0.0067  0.0169 -0.1849
  375loPI    C1 5985  12.815   9.020  10.884 -0.1256  0.2601  0.0793
  375loPI    C2 5986  12.579   9.010  11.207 -0.0799  0.0077  0.1069
  375loPI    C3 5987  12.959   9.131  11.241 -0.1362  0.1874  0.1064
  375loPI   PO4 5988  12.817   9.099  10.682  0.0527 -0.1443  0.1365
  375loPI   GL1 5989  12.793   9.234  10.258  0.2239 -0.2914 -0.0111
  375loPI   GL2 5990  12.518   9.141  10.263  0.0317 -0.0702  0.0616
  375loPI   C1A 5991  12.927   8.850  10.112 -0.3951 -0.1103 -0.2144
  375loPI   C2A 5992  12.741   8.613   9.742 -0.1284  0.0227 -0.1480
  375loPI   C3A 5993  12.826   8.700   9.439  0.3894 -0.2893  0.0340
  375loPI   C4A 5994  12.735   8.650   9.040  0.2863 -0.1510 -0.3515
  375loPI   C5A 5995  12.587   8.886   8.749  0.0323 -0.5082 -0.1089
  375loPI   C6A 5996  12.624   9.175   8.424  0.1900 -0.2906 -0.0199
  375loPI   C1B 5997  12.717   9.124   9.798  0.2154 -0.1229  0.1358
  375loPI   C2B 5998  13.100   9.070   9.640  0.0710  0.1748  0.0085
  375loPI   C3B 5999  13.424   9.393   9.401 -0.0906  0.1663 -0.1597
  375loPI   C4B 6000  13.272   9.786   9.064 -0.0637 -0.2395  0.4532
  376loPI    C1 6001  13.576   7.837  10.986  0.1042 -0.0477 -0.0422
  376loPI    C2 6002  13.526   7.494  11.186 -0.0630  0.0755  0.1307
  376loPI    C3 6003  13.659   7.820  11.377  0.0325  0.1250 -0.0186
  376loPI   PO4 6004  13.630   7.643  10.713 -0.0264 -0.1767  0.1998
  376loPI   GL1 6005  13.660   7.777  10.392 -0.0342 -0.0879 -0.0987
  376loPI   GL2 6006  13.812   7.700  10.229 -0.0583 -0.0211 -0.0563
  376loPI   C1A 6007  13.484   7.990  10.016  0.2349  0.2284  0.1532
  376loPI   C2A 6008  13.411   8.119   9.672 -0.2115  0.1077  0.1869
  376loPI   C3A 6009  13.507   8.116   9.216 -0.1560 -0.2388 -0.0138
  376loPI   C4A 6010  13.535   8.229   8.860  0.2916 -0.0469  0.0231
  376loPI   C5A 6011  13.778   8.439   8.520  0.1633  0.0046  0.0808
  376loPI   C6A 6012  14.087   8.421   8.180  0.2039  0.0035  0.3043
  376loPI   C1B 6013  14.036   7.420   9.918 -0.0209 -0.0369  0.0011
  376loPI   C2B 6014  14.418   7.236   9.618  0.2709  0.2679  0.0690
  376loPI   C3B 6015  14.672   7.191   9.347  0.0357  0.0558  0.2423
  376loPI   C4B 6016  14.740   7.222   8.924 -0.1292 -0.0508  0.1297
  377loPI    C1 6017   5.183  12.511  10.116 -0.0520 -0.0958 -0.2453
  377loPI    C2 6018   5.259  12.517  10.509 -0.1099 -0.1046 -0.2340
  377loPI    C3 6019   4.886  12.456  10.378 -0.1124  0.0227 -0.2882
  377loPI   PO4 6020   5.401  12.422   9.999  0.1368  0.1206 -0.0215
  377loPI   GL1 6021   5.529  12.317   9.628 -0.0437 -0.1834  0.1188
  377loPI   GL2 6022   5.170  12.407   9.534 -0.2714  0.0020  0.0144
  377loPI   C1A 6023   5.669  12.205   9.253 -0.0730 -0.0702 -0.2872
  377loPI   C2A 6024   5.586  12.081   8.933 -0.2080 -0.1382  0.2990
  377loPI   C3A 6025   5.625  12.014   8.619 -0.0376 -0.1245  0.0033
  377loPI   C4A 6026   5.645  12.082   8.138  0.0426  0.1472  0.2928
  377loPI   C5A 6027   5.809  11.853   7.778  0.0484  0.1515 -0.1376
  377loPI   C6A 6028   6.054  11.557   7.610  0.4349 -0.1261 -0.1917
  377loPI   C1B 6029   5.177  12.353   9.167 -0.2245  0.1953 -0.1363
  377loPI   C2B 6030   5.173  12.354   8.735 -0.2666 -0.0944 -0.1455
  377loPI   C3B 6031   5.241  12.435   8.367 -0.0835  0.2542  0.0194
  377loPI   C4B 6032   5.124  12.841   8.155 -0.1520 -0.1266  0.2498
  378loPI    C1 6033   8.307   1.496  10.717  0.2531 -0.1550  0.1997
  378loPI    C2 6034   8.511   1.162  10.636  0.2494 -0.1089 -0.0070
  378loPI    C3 6035   8.545   1.336  10.995  0.3637 -0.2502  0.0517
  378loPI   PO4 6036   8.270   1.700  10.415  0.2308 -0.0881 -0.0531
  378loPI   GL1 6037   8.004   1.658  10.047  0.1300  0.1437 -0.0126
  378loPI   GL2 6038   8.250   1.975   9.975  0.1937  0.1780  0.1428
  378loPI   C1A 6039   8.157   1.497   9.728 -0.0439  0.1601  0.0165
  378loPI   C2A 6040   8.289   1.541   9.381  0.1581 -0.0657  0.0375
  378loPI   C3A 6041   8.380   1.603   9.024 -0.1074 -0.2448  0.1797
  378loPI   C4A 6042   8.671   1.434   8.710 -0.0581  0.1264 -0.0378
  378loPI   C5A 6043   8.837   1.334   8.275 -0.0783  0.0534  0.2792
  378loPI   C6A 6044   9.050   1.635   8.049  0.1289 -0.0281 -0.0582
  378loPI   C1B 6045   8.364   1.956   9.659 -0.0464 -0.3874 -0.1674
  378loPI   C2B 6046   8.416   2.083   9.294  0.0581 -0.1496  0.0873
  378loPI   C3B 6047   8.732   1.931   8.939  0.0858 -0.0770  0.1827
  378loPI   C4B 6048   8.919   2.077   8.538  0.1610  0.1099 -0.2852
  379loPI    C1 6049   6.221   1.135  10.397 -0.1644 -0.0557 -0.0877
  379loPI    C2 6050   5.959   0.911  10.600  0.2718 -0.2926  0.2303
  379loPI    C3 6051   6.152   1.209  10.784  0.1939 -0.0882 -0.0142
  379loPI   PO4 6052   6.027   1.175  10.174 -0.0692  0.1453 -0.2188
  379loPI   GL1 6053   5.950   1.095   9.785 -0.0681  0.1558  0.0258
  379loPI   GL2 6054   5.720   0.792   9.794  0.1001  0.0202  0.2082
  379loPI   C1A 6055   6.047   1.365   9.425 -0.0773  0.0240  0.1356
  379loPI   C2A 6056   6.221   1.395   9.003  0.1205  0.2205  0.0440
  379loPI   C3A 6057   6.490   1.553   8.614 -0.0393 -0.1013  0.2595
  379loPI   C4A 6058   6.655   1.826   8.353 -0.1063 -0.3913  0.3019
  379loPI   C5A 6059   6.818   2.101   8.139 -0.0465 -0.0960  0.0079
  379loPI   C6A 6060   7.071   2.277   7.878 -0.7051  0.2692 -0.1301
  379loPI   C1B 6061   5.603   0.902   9.371 -0.0610 -0.0007 -0.1523
  379loPI   C2B 6062   5.546   0.930   8.981  0.3611 -0.2146 -0.0464
  379loPI   C3B 6063   5.621   0.916   8.493  0.3104  0.0414  0.3940
  379loPI   C4B 6064   5.368   1.108   8.164  0.0307 -0.2081  0.0159
  380loPI    C1 6065  11.468   8.597  10.808 -0.1552  0.1176 -0.1192
  380loPI    C2 6066  11.069   8.606  10.771 -0.1944 -0.0746  0.2205
  380loPI    C3 6067  11.240   8.688  11.124  0.0708  0.0469  0.0671
  380loPI   PO4 6068  11.481   8.394  10.607 -0.3327 -0.0313 -0.2112
  380loPI   GL1 6069  11.435   8.134  10.269  0.0389  0.0494 -0.1556
  380loPI   GL2 6070  11.102   7.959  10.190  0.2222  0.2032 -0.0641
  380loPI   C1A 6071  11.815   8.114  10.120  0.3172  0.0817 -0.0662
  380loPI   C2A 6072  11.963   8.290   9.803 -0.1205 -0.0359 -0.0351
  380loPI   C3A 6073  11.927   8.181   9.449 -0.2059  0.1713 -0.1585
  380loPI   C4A 6074  11.820   8.266   9.024  0.0507  0.2171  0.0712
  380loPI   C5A 6075  11.701   8.459   8.680 -0.1446 -0.3299 -0.1150
  380loPI   C6A 6076  11.630   8.607   8.251  0.1120  0.0249  0.0239
  380loPI   C1B 6077  11.339   8.132   9.815  0.2940 -0.3156 -0.1277
  380loPI   C2B 6078  11.423   8.184   9.339 -0.1191 -0.1396 -0.2456
  380loPI   C3B 6079  11.432   8.055   8.842 -0.2354 -0.1919  0.1378
  380loPI   C4B 6080  11.452   7.805   8.487  0.1151  0.1812  0.1717
  381loPI    C1 6081   0.277   3.082  11.135 -0.0780  0.0055  0.0962
  381loPI    C2 6082   0.435   2.721  11.205 -0.1596 -0.0682 -0.0936
  381loPI    C3 6083   0.662   3.049  11.237 -0.0891 -0.1345  0.0943
  381loPI   PO4 6084   0.162   3.048  10.933 -0.3146 -0.1126  0.1369
  381loPI   GL1 6085   0.210   2.724  10.709  0.0612 -0.0707 -0.3270
  381loPI   GL2 6086  -0.173   2.829  10.623  0.0376  0.0444  0.0795
  381loPI   C1A 6087   0.185   2.808  10.233 -0.0427  0.2715  0.0507
  381loPI   C2A 6088   0.318   2.850   9.797  0.2491  0.2611  0.2122
  381loPI   C3A 6089   0.207   2.858   9.333  0.0890 -0.1991 -0.2768
  381loPI   C4A 6090   0.320   2.904   8.929 -0.0570 -0.0581 -0.0469
  381loPI   C5A 6091   0.521   2.941   8.551  0.2037  0.1102  0.2808
  381loPI   C6A 6092   0.564   2.864   8.066 -0.1439 -0.0205 -0.0668
  381loPI   C1B 6093  -0.354   2.966  10.283  0.2028 -0.2723  0.2129
  381loPI   C2B 6094  -0.220   2.820   9.915 -0.0033  0.1375 -0.1467
  381loPI   C3B 6095  -0.352   2.785   9.518 -0.0073 -0.5163 -0.0386
  381loPI   C4B 6096  -0.209   2.836   9.092 -0.0975  0.0481  0.1717
  382loPI    C1 6097   1.860  13.212  10.860 -0.0759 -0.0712  0.1275
  382loPI    C2 6098   2.229  13.217  11.014 -0.1031 -0.0659  0.1925
  382loPI    C3 6099   1.931  13.409  11.200 -0.1176  0.0149  0.0867
  382loPI   PO4 6100   1.811  13.015  10.708 -0.0747  0.1604 -0.1268
  382loPI   GL1 6101   1.682  12.800  10.273 -0.2170  0.2329 -0.4832
  382loPI   GL2 6102   1.327  12.840  10.164  0.2619 -0.2292  0.0003
  382loPI   C1A 6103   1.769  12.976   9.826 -0.0212  0.0124  0.1410
  382loPI   C2A 6104   1.690  13.174   9.442 -0.1985 -0.0064 -0.0190
  382loPI   C3A 6105   1.391  13.276   9.092 -0.1313  0.1361  0.0361
  382loPI   C4A 6106   1.107  13.509   8.842 -0.0467 -0.0721 -0.3147
  382loPI   C5A 6107   0.960  13.823   8.628  0.0074  0.0602  0.2517
  382loPI   C6A 6108   0.884  14.258   8.445  0.0175 -0.1316  0.0140
  382loPI   C1B 6109   1.303  12.920   9.721  0.1176 -0.0401 -0.1461
  382loPI   C2B 6110   1.189  12.813   9.218 -0.1125 -0.1109 -0.0677
  382loPI   C3B 6111   1.057  12.977   8.748  0.0386 -0.4382  0.3414
  382loPI   C4B 6112   0.703  12.909   8.476 -0.4614 -0.0148 -0.5748
  383loPI    C1 6113   7.433   6.575   9.944  0.0635 -0.1345  0.0131
  383loPI    C2 6114   7.431   6.506  10.338  0.2430  0.1877  0.0740
  383loPI    C3 6115   7.280   6.848  10.194 -0.1064 -0.0621 -0.1675
  383loPI   PO4 6116   7.562   6.282   9.917 -0.1928 -0.0072  0.1103
  383loPI   GL1 6117   7.372   6.086   9.530 -0.1004  0.1243 -0.2093
  383loPI   GL2 6118   7.676   5.853   9.601 -0.1074 -0.0725  0.3510
  383loPI   C1A 6119   7.491   5.860   9.140 -0.4056  0.1494 -0.1392
  383loPI   C2A 6120   7.479   5.731   8.714  0.0749 -0.2283 -0.2543
  383loPI   C3A 6121   7.359   5.615   8.266 -0.1281  0.1409  0.0159
  383loPI   C4A 6122   7.152   5.689   7.810 -0.0352 -0.0140 -0.0564
  383loPI   C5A 6123   6.770   5.652   7.669 -0.0865 -0.1588  0.1357
  383loPI   C6A 6124   6.366   5.698   7.665 -0.0000 -0.0876 -0.0597
  383loPI   C1B 6125   7.963   5.981   9.317  0.2463 -0.3049  0.1122
  383loPI   C2B 6126   7.974   6.154   8.890  0.3278 -0.2261  0.1654
  383loPI   C3B 6127   8.086   6.339   8.470  0.1738 -0.1807  0.0937
  383loPI   C4B 6128   8.116   6.582   8.155  0.2507 -0.0976 -0.1092
  384loPI    C1 6129  10.008  10.714  10.756  0.1058  0.2004 -0.2042
  384loPI    C2 6130   9.921  11.090  10.653  0.2618  0.2424 -0.1844
  384loPI    C3 6131  10.236  11.015  10.888 -0.0401  0.1410  0.1972
  384loPI   PO4 6132  10.027  10.541  10.578 -0.0522 -0.0669 -0.0217
  384loPI   GL1 6133  10.093  10.431  10.206 -0.2876 -0.0084 -0.0987
  384loPI   GL2 6134  10.000  10.762  10.164 -0.1198 -0.1342  0.1991
  384loPI   C1A 6135  10.167  10.319   9.801  0.0366 -0.2227  0.2798
  384loPI   C2A 6136  10.139  10.398   9.417 -0.0627 -0.3467 -0.2088
  384loPI   C3A 6137  10.218  10.242   9.060  0.0564  0.2505  0.1071
  384loPI   C4A 6138   9.987  10.204   8.686  0.0690  0.0077 -0.0694
  384loPI   C5A 6139  10.040  10.117   8.265 -0.3221 -0.1765 -0.1806
  384loPI   C6A 6140  10.340   9.979   8.084  0.1348  0.0724  0.0526
  384loPI   C1B 6141   9.806  10.688   9.814 -0.2456  0.1775  0.0821
  384loPI   C2B 6142   9.659  10.623   9.362 -0.0730  0.1855 -0.2619
  384loPI   C3B 6143   9.668  10.508   8.963 -0.0957  0.0769  0.0173
  384loPI   C4B 6144   9.512  10.360   8.533  0.0666  0.0707 -0.0364
  385loPI    C1 6145  10.179  10.280  11.123 -0.0688  0.1570  0.1083
  385loPI    C2 6146   9.796  10.339  11.024 -0.0600  0.2564  0.1328
  385loPI    C3 6147   9.960   9.977  10.980 -0.1457  0.2231  0.0857
  385loPI   PO4 6148  10.430  10.505  10.919 -0.0206 -0.1996  0.2892
  385loPI   GL1 6149  10.538  10.758  10.524 -0.2609  0.0731 -0.0319
  385loPI   GL2 6150  10.820  10.855  10.552  0.2537 -0.4225 -0.1829
  385loPI   C1A 6151  10.469  10.767  10.058 -0.0901 -0.0050 -0.0903
  385loPI   C2A 6152  10.353  10.828   9.578 -0.3794 -0.1533  0.0544
  385loPI   C3A 6153  10.334  10.735   9.094  0.0394  0.3159 -0.0988
  385loPI   C4A 6154  10.487  10.663   8.625  0.0022  0.1457 -0.1926
  385loPI   C5A 6155  10.329  10.506   8.093  0.2286 -0.3564 -0.0836
  385loPI   C6A 6156  10.148  10.350   7.793 -0.1052 -0.0206  0.0121
  385loPI   C1B 6157  10.888  11.034  10.130  0.2344 -0.1295 -0.1129
  385loPI   C2B 6158  10.902  11.106   9.690  0.0234 -0.1003  0.1003
  385loPI   C3B 6159  10.940  11.234   9.279 -0.0938  0.1266  0.0483
  385loPI   C4B 6160  11.265  11.098   9.015  0.0492  0.2787  0.0540
  386loPI    C1 6161   1.480  15.147  10.629  0.2514  0.0762  0.0691
  386loPI    C2 6162   1.542  15.542  10.634  0.0623  0.1063  0.1103
  386loPI    C3 6163   1.210  15.389  10.797  0.0890 -0.0617  0.0103
  386loPI   PO4 6164   1.641  15.114  10.369  0.3171  0.0915  0.1369
  386loPI   GL1 6165   1.890  15.197  10.108 -0.1206  0.0611 -0.0155
  386loPI   GL2 6166   1.835  14.735  10.152  0.1780 -0.1246  0.0766
  386loPI   C1A 6167   1.874  15.175   9.604 -0.1868 -0.0239 -0.2795
  386loPI   C2A 6168   1.748  15.231   9.245 -0.0430 -0.0796  0.1872
  386loPI   C3A 6169   1.783  15.323   8.843 -0.0522 -0.0401 -0.3337
  386loPI   C4A 6170   2.004  15.446   8.397  0.1167  0.1459 -0.3061
  386loPI   C5A 6171   2.002  15.657   8.066 -0.0126 -0.0863 -0.1371
  386loPI   C6A 6172   1.891  16.030   7.941 -0.0618 -0.3279 -0.0340
  386loPI   C1B 6173   1.885  14.384   9.882  0.0455  0.2478  0.1643
  386loPI   C2B 6174   1.858  14.236   9.479  0.1581  0.1635  0.0595
  386loPI   C3B 6175   1.775  14.413   9.074 -0.2270  0.2833 -0.1262
  386loPI   C4B 6176   1.705  14.391   8.657  0.2935  0.2196  0.2544
  387loPI    C1 6177   3.546   8.772  10.564 -0.0165 -0.0668  0.2841
  387loPI    C2 6178   3.553   9.100  10.793 -0.2362  0.0346  0.1487
  387loPI    C3 6179   3.770   8.780  10.895  0.0763  0.2639  0.2169
  387loPI   PO4 6180   3.423   8.840  10.225  0.1383 -0.1684 -0.0657
  387loPI   GL1 6181   3.513   8.915   9.848  0.1184  0.2407 -0.2218
  387loPI   GL2 6182   3.460   8.608   9.683 -0.0180  0.1411 -0.1568
  387loPI   C1A 6183   3.584   9.068   9.421 -0.0977  0.2173 -0.0411
  387loPI   C2A 6184   3.823   9.173   9.053  0.0573  0.0408 -0.0914
  387loPI   C3A 6185   3.951   9.478   8.748  0.4627 -0.0241 -0.1185
  387loPI   C4A 6186   4.217   9.574   8.442  0.0673  0.2176 -0.1266
  387loPI   C5A 6187   4.430   9.235   8.322  0.3193 -0.1233  0.2152
  387loPI   C6A 6188   4.194   8.903   8.081 -0.0243  0.1274 -0.0713
  387loPI   C1B 6189   3.402   8.624   9.237  0.1623 -0.0046 -0.1023
  387loPI   C2B 6190   3.333   8.746   8.858 -0.3018  0.0421  0.0689
  387loPI   C3B 6191   3.440   8.909   8.497 -0.0384 -0.0619 -0.0768
  387loPI   C4B 6192   3.326   9.144   8.107 -0.0694 -0.0817  0.0867
  388loPI    C1 6193   6.411  16.067  10.228 -0.0074 -0.1037 -0.2074
  388loPI    C2 6194   6.761  16.116  10.040  0.0914 -0.0694 -0.0168
  388loPI    C3 6195   6.697  16.292  10.394 -0.1770  0.0523 -0.1229
  388loPI   PO4 6196   6.213  16.151  10.037  0.0216  0.1002  0.1692
  388loPI   GL1 6197   6.163  15.970   9.690  0.1628 -0.0588 -0.0085
  388loPI   GL2 6198   5.945  15.703   9.638  0.0167  0.1019 -0.1587
  388loPI   C1A 6199   6.442  15.803   9.321  0.2636  0.2663 -0.1284
  388loPI   C2A 6200   6.396  15.853   8.894 -0.0832 -0.0277 -0.1493
  388loPI   C3A 6201   6.240  15.860   8.331  0.0230 -0.2581  0.1040
  388loPI   C4A 6202   6.297  16.161   8.063 -0.1018 -0.2310  0.0778
  388loPI   C5A 6203   6.592  16.429   7.955  0.1688 -0.0342  0.5214
  388loPI   C6A 6204   6.811  16.827   7.969  0.3261 -0.0484  0.1451
  388loPI   C1B 6205   6.011  15.639   9.151 -0.0896  0.2542  0.1303
  388loPI   C2B 6206   6.035  15.535   8.736  0.0141 -0.0519 -0.1918
  388loPI   C3B 6207   6.202  15.400   8.354 -0.2350 -0.0057 -0.1715
  388loPI   C4B 6208   6.187  15.529   7.909 -0.1074 -0.2084 -0.0947
  389loPI    C1 6209  14.515  15.296  10.712 -0.0963  0.2078  0.2170
  389loPI    C2 6210  14.150  15.313  10.874 -0.0928  0.0398  0.2437
  389loPI    C3 6211  14.379  14.989  10.929 -0.0196  0.0585  0.0567
  389loPI   PO4 6212  14.511  15.350  10.486 -0.0957 -0.1130  0.2284
  389loPI   GL1 6213  14.332  15.740  10.172 -0.0536 -0.1811  0.0028
  389loPI   GL2 6214  14.079  15.704   9.963  0.0283 -0.0848  0.0352
  389loPI   C1A 6215  14.595  15.826   9.751 -0.1088  0.0638  0.0793
  389loPI   C2A 6216  14.780  16.012   9.411  0.1112 -0.0269 -0.0554
  389loPI   C3A 6217  15.004  16.248   9.148  0.0855 -0.1049  0.0076
  389loPI   C4A 6218  15.117  16.193   8.793 -0.2267  0.1731  0.2482
  389loPI   C5A 6219  15.131  16.442   8.374  0.0586 -0.0367 -0.1950
  389loPI   C6A 6220  15.298  16.661   8.109  0.3287  0.0675 -0.0034
  389loPI   C1B 6221  14.139  15.542   9.492 -0.1726  0.0091 -0.1554
  389loPI   C2B 6222  14.026  15.428   9.014  0.0031 -0.3443  0.0894
  389loPI   C3B 6223  14.010  15.490   8.616 -0.0559  0.3021  0.1397
  389loPI   C4B 6224  13.909  15.659   8.195  0.0669 -0.0729 -0.0808
  390loPI    C1 6225  11.670  11.112  10.438  0.1684 -0.1865  0.0913
  390loPI    C2 6226  11.603  11.306  10.781  0.0599 -0.0773  0.0089
  390loPI    C3 6227  11.961  11.144  10.710  0.0297 -0.2532  0.2490
  390loPI   PO4 6228  11.557  11.292  10.219  0.4434 -0.0217  0.1924
  390loPI   GL1 6229  11.245  11.430   9.821 -0.2446 -0.1082 -0.3155
  390loPI   GL2 6230  11.341  11.783   9.988 -0.0343 -0.1007 -0.1306
  390loPI   C1A 6231  11.234  11.607   9.490 -0.1824  0.4087  0.2084
  390loPI   C2A 6232  11.167  11.631   9.041  0.1102 -0.1615 -0.0764
  390loPI   C3A 6233  11.294  11.470   8.599 -0.2501 -0.2118  0.0972
  390loPI   C4A 6234  11.502  11.300   8.291 -0.2070  0.0178  0.4128
  390loPI   C5A 6235  11.500  10.866   8.114 -0.0578  0.0610 -0.0061
  390loPI   C6A 6236  11.261  10.740   7.763  0.0478 -0.2825  0.1082
  390loPI   C1B 6237  11.460  12.075   9.707  0.1012  0.2095  0.0544
  390loPI   C2B 6238  11.480  12.063   9.237  0.1887  0.1170 -0.1445
  390loPI   C3B 6239  11.664  12.290   8.981 -0.1105  0.0502  0.1946
  390loPI   C4B 6240  11.566  12.706   8.839 -0.0251 -0.0157 -0.1627
  391loPI    C1 6241  17.185   5.908  11.196  0.0400  0.0128  0.0330
  391loPI    C2 6242  17.514   6.087  11.339 -0.0271  0.1577  0.0084
  391loPI    C3 6243  17.360   5.769  11.528  0.1614  0.0518 -0.0144
  391loPI   PO4 6244  17.039   6.135  11.167  0.0151  0.0674 -0.0880
  391loPI   GL1 6245  17.001   6.067  10.791 -0.2279 -0.1446 -0.0848
  391loPI   GL2 6246  16.806   6.281  10.514 -0.0651 -0.0431 -0.1724
  391loPI   C1A 6247  17.231   6.060  10.373 -0.4075 -0.1386  0.1523
  391loPI   C2A 6248  17.239   6.009   9.989  0.1643  0.2940 -0.1614
  391loPI   C3A 6249  17.581   5.846   9.820 -0.0344  0.1313  0.0388
  391loPI   C4A 6250  17.643   5.652   9.459  0.2059  0.0021 -0.1785
  391loPI   C5A 6251  17.492   5.422   9.157  0.2740 -0.1884  0.2545
  391loPI   C6A 6252  17.494   5.249   8.694 -0.1193  0.1000  0.1365
  391loPI   C1B 6253  16.763   6.121  10.075  0.2596 -0.1534 -0.0720
  391loPI   C2B 6254  16.958   6.341   9.767  0.0219  0.2585  0.2630
  391loPI   C3B 6255  17.123   5.964   9.498  0.3220  0.2065 -0.0752
  391loPI   C4B 6256  17.206   5.895   9.124  0.0208  0.2750  0.0207
  392loPI    C1 6257  17.419   4.097  11.280 -0.0755 -0.0476  0.3015
  392loPI    C2 6258  17.145   4.322  11.464 -0.0769 -0.0324  0.2811
  392loPI    C3 6259  17.239   3.962  11.610  0.0138  0.0322  0.3838
  392loPI   PO4 6260  17.456   4.205  11.108 -0.3683  0.0927 -0.0695
  392loPI   GL1 6261  17.095   4.493  10.801  0.3281 -0.1043  0.0164
  392loPI   GL2 6262  17.381   4.351  10.677 -0.0647 -0.2436  0.1216
  392loPI   C1A 6263  17.232   4.792  10.570  0.0924  0.0958 -0.2046
  392loPI   C2A 6264  17.321   4.980  10.175 -0.1019  0.0501 -0.0870
  392loPI   C3A 6265  17.413   4.949   9.780  0.2888 -0.2357  0.4243
  392loPI   C4A 6266  17.297   4.891   9.307 -0.1267 -0.1478  0.0549
  392loPI   C5A 6267  17.256   4.807   8.858  0.0853 -0.2336  0.0016
  392loPI   C6A 6268  16.890   4.661   8.644  0.1341 -0.0329 -0.0861
  392loPI   C1B 6269  17.053   4.384  10.344  0.2541  0.1288 -0.0013
  392loPI   C2B 6270  17.029   4.165   9.962  0.0028 -0.0885 -0.0190
  392loPI   C3B 6271  16.974   4.075   9.460 -0.2992 -0.1766 -0.0149
  392loPI   C4B 6272  16.877   3.916   9.013  0.3080 -0.0902  0.4660
  393loPI    C1 6273   1.244  18.193  10.672 -0.0017 -0.0352 -0.0865
  393loPI    C2 6274   1.080  18.489  10.885  0.1126  0.0642 -0.1357
  393loPI    C3 6275   1.215  18.161  11.069 -0.1891 -0.0429 -0.0997
  393loPI   PO4 6276   1.176  18.334  10.396  0.3424  0.0590  0.3189
  393loPI   GL1 6277   1.222  18.375  10.052  0.0786 -0.0208 -0.1880
  393loPI   GL2 6278   1.291  18.690  10.032  0.0073  0.1113  0.0255
  393loPI   C1A 6279   0.833  18.475   9.754 -0.0444  0.1885 -0.1195
  393loPI   C2A 6280   0.869  18.575   9.284 -0.2301 -0.0573  0.0879
  393loPI   C3A 6281   0.786  18.707   8.839  0.1087 -0.1017 -0.0637
  393loPI   C4A 6282   0.832  18.444   8.546  0.3591 -0.0732 -0.3915
  393loPI   C5A 6283   1.081  18.431   8.194 -0.1825  0.1209  0.1044
  393loPI   C6A 6284   1.454  18.719   8.200  0.1043  0.0878 -0.0675
  393loPI   C1B 6285   1.270  18.633   9.578 -0.1907 -0.0925  0.1828
  393loPI   C2B 6286   1.382  18.716   9.120  0.4944 -0.2093 -0.3812
  393loPI   C3B 6287   1.363  18.489   8.673 -0.0894  0.2352  0.3195
  393loPI   C4B 6288   1.146  18.032   8.434 -0.0593 -0.1163 -0.0370
  394loPI    C1 6289   7.467  13.473  10.671  0.0006 -0.1378  0.0624
  394loPI    C2 6290   7.151  13.229  10.690 -0.1032 -0.0144 -0.0538
  394loPI    C3 6291   7.494  13.126  10.869 -0.1998 -0.1618  0.0497
  394loPI   PO4 6292   7.462  13.573  10.393 -0.0002  0.1057  0.2751
  394loPI   GL1 6293   7.287  13.676  10.009 -0.1985 -0.0782 -0.3088
  394loPI   GL2 6294   7.011  13.815   9.908  0.1588 -0.0391  0.1289
  394loPI   C1A 6295   7.318  13.776   9.466  0.2173 -0.0158  0.0705
  394loPI   C2A 6296   7.163  13.795   9.076  0.0825 -0.1902  0.1801
  394loPI   C3A 6297   7.133  13.815   8.650 -0.1097  0.0549  0.1952
  394loPI   C4A 6298   7.030  13.785   8.270 -0.2813  0.2741 -0.0843
  394loPI   C5A 6299   6.834  13.670   7.827  0.2334  0.2762  0.3589
  394loPI   C6A 6300   6.908  13.400   7.573 -0.2708 -0.2445  0.0205
  394loPI   C1B 6301   6.821  13.893   9.572  0.1752  0.0141  0.1561
  394loPI   C2B 6302   6.705  13.708   9.215 -0.2115  0.0963 -0.1097
  394loPI   C3B 6303   6.641  13.626   8.690 -0.0247  0.0075 -0.0436
  394loPI   C4B 6304   6.524  13.751   8.319  0.0472 -0.1714  0.1729
  395loPI    C1 6305  14.084   0.287  11.014  0.0234  0.0546 -0.2334
  395loPI    C2 6306  14.063   0.625  11.227 -0.0712  0.1101 -0.3302
  395loPI    C3 6307  14.371   0.375  11.279 -0.1617  0.0564 -0.0307
  395loPI   PO4 6308  14.079   0.368  10.797 -0.2694  0.1099 -0.0505
  395loPI   GL1 6309  14.068   0.487  10.341  0.0258 -0.0906  0.2269
  395loPI   GL2 6310  13.711   0.513  10.484 -0.0574 -0.1080  0.1745
  395loPI   C1A 6311  14.362   0.330  10.063  0.1942 -0.1809  0.0846
  395loPI   C2A 6312  14.488   0.386   9.563 -0.1788 -0.0586 -0.2469
  395loPI   C3A 6313  14.384   0.353   9.180 -0.1437 -0.0535 -0.2897
  395loPI   C4A 6314  14.417   0.421   8.856 -0.4889 -0.0982 -0.1118
  395loPI   C5A 6315  14.719   0.698   8.419  0.0192  0.1488 -0.0009
  395loPI   C6A 6316  15.044   0.657   8.024  0.2719  0.5222  0.0957
  395loPI   C1B 6317  13.687   0.572  10.086  0.0721 -0.0050  0.2510
  395loPI   C2B 6318  13.933   0.556   9.692 -0.0729 -0.0982 -0.0495
  395loPI   C3B 6319  14.003   0.586   9.326  0.1945 -0.2129 -0.1684
  395loPI   C4B 6320  13.959   0.605   8.931 -0.0942 -0.2160  0.1358
  396loPI    C1 6321  12.435   1.045  10.758  0.2038 -0.0269 -0.0152
  396loPI    C2 6322  12.130   1.264  10.896  0.0579 -0.1127 -0.1972
  396loPI    C3 6323  12.411   1.130  11.148 -0.1021 -0.1079 -0.0144
  396loPI   PO4 6324  12.651   1.243  10.568  0.0219  0.1764  0.0723
  396loPI   GL1 6325  12.698   1.399  10.188  0.0864 -0.3668 -0.0859
  396loPI   GL2 6326  12.873   1.110  10.083 -0.2196 -0.0606 -0.2227
  396loPI   C1A 6327  12.467   1.452   9.757  0.0952 -0.0255 -0.1574
  396loPI   C2A 6328  12.575   1.502   9.354 -0.2141  0.0451 -0.0989
  396loPI   C3A 6329  12.611   1.457   8.894  0.0266  0.0693 -0.2579
  396loPI   C4A 6330  12.850   1.386   8.573  0.0757 -0.2385 -0.2235
  396loPI   C5A 6331  12.920   1.527   8.171 -0.2379 -0.0598  0.0631
  396loPI   C6A 6332  13.160   1.530   7.750  0.0713 -0.5840  0.1519
  396loPI   C1B 6333  12.952   1.236   9.700  0.1474 -0.0424 -0.2390
  396loPI   C2B 6334  13.082   1.188   9.212 -0.1435  0.0667 -0.2623
  396loPI   C3B 6335  13.163   1.097   8.755 -0.2417  0.1693 -0.1268
  396loPI   C4B 6336  13.070   1.007   8.362  0.1077 -0.0271 -0.0255
  397loPI    C1 6337  14.893   3.685  10.746 -0.2347 -0.0491 -0.0120
  397loPI    C2 6338  14.900   4.059  10.888 -0.4286 -0.0470 -0.0051
  397loPI    C3 6339  14.577   3.831  10.944 -0.1376 -0.3748  0.3978
  397loPI   PO4 6340  15.045   3.632  10.578 -0.0207  0.3418 -0.0230
  397loPI   GL1 6341  15.170   3.366  10.274 -0.0624  0.0096  0.3326
  397loPI   GL2 6342  15.128   2.964  10.280  0.0476 -0.0211 -0.0340
  397loPI   C1A 6343  15.109   3.640   9.847 -0.2413  0.0424  0.0393
  397loPI   C2A 6344  15.154   3.680   9.484 -0.1716  0.2301  0.3169
  397loPI   C3A 6345  15.143   3.872   9.086 -0.2347 -0.1331 -0.3125
  397loPI   C4A 6346  15.068   3.967   8.658  0.2706  0.0416 -0.4084
  397loPI   C5A 6347  15.123   4.219   8.305 -0.2880  0.0271 -0.0947
  397loPI   C6A 6348  15.048   4.245   7.903 -0.2751  0.0966 -0.0074
  397loPI   C1B 6349  15.209   3.119   9.838  0.0941 -0.0198  0.0397
  397loPI   C2B 6350  15.278   3.111   9.451  0.1697  0.0651 -0.1128
  397loPI   C3B 6351  15.236   3.284   9.142  0.0283 -0.4539  0.2917
  397loPI   C4B 6352  15.051   3.474   8.825  0.1324  0.0494  0.1634
  398loPI    C1 6353   2.809  10.922  10.662  0.0397  0.0474 -0.0093
  398loPI    C2 6354   3.042  11.240  10.592 -0.0021  0.0940  0.0622
  398loPI    C3 6355   2.834  11.216  10.933 -0.1927  0.1077 -0.0517
  398loPI   PO4 6356   2.630  10.794  10.470 -0.2538  0.2073 -0.1718
  398loPI   GL1 6357   2.395  10.605  10.145  0.0958  0.1443 -0.2203
  398loPI   GL2 6358   2.533  10.249  10.095 -0.0806 -0.1419 -0.3501
  398loPI   C1A 6359   2.117  10.596   9.994  0.0078 -0.1597  0.3323
  398loPI   C2A 6360   1.739  10.338   9.695  0.1433  0.1797  0.0741
  398loPI   C3A 6361   1.727  10.460   9.279 -0.0259 -0.1040  0.0611
  398loPI   C4A 6362   1.726  10.352   8.854 -0.0679 -0.0602 -0.0426
  398loPI   C5A 6363   1.992  10.463   8.489 -0.1419  0.1420 -0.0621
  398loPI   C6A 6364   2.008  10.828   8.264  0.0680  0.1971  0.3526
  398loPI   C1B 6365   2.483  10.345   9.648 -0.2322 -0.1947  0.0440
  398loPI   C2B 6366   2.263  10.439   9.258  0.1827 -0.0988  0.2819
  398loPI   C3B 6367   2.136  10.694   8.976  0.4239  0.0837  0.1519
  398loPI   C4B 6368   2.358  11.028   8.607 -0.1510 -0.0364  0.0221
  399loPI    C1 6369   5.862  17.867  10.888  0.0749 -0.0518 -0.0114
  399loPI    C2 6370   5.934  18.143  11.169  0.2320 -0.1464  0.0428
  399loPI    C3 6371   5.970  17.755  11.256 -0.0415 -0.1878 -0.0179
  399loPI   PO4 6372   5.978  17.940  10.680 -0.0028  0.1707  0.0785
  399loPI   GL1 6373   5.871  17.947  10.230  0.0786  0.1621 -0.0496
  399loPI   GL2 6374   5.721  17.671  10.160  0.1425 -0.1429  0.0676
  399loPI   C1A 6375   5.703  18.115   9.966  0.3603  0.2279  0.3347
  399loPI   C2A 6376   5.414  18.150   9.599 -0.1528  0.1169 -0.1504
  399loPI   C3A 6377   5.428  17.956   9.151  0.3477 -0.0984  0.1163
  399loPI   C4A 6378   5.205  17.964   8.727 -0.3222  0.1875 -0.0954
  399loPI   C5A 6379   5.149  18.047   8.236  0.2789  0.1218  0.1704
  399loPI   C6A 6380   5.215  17.732   7.904 -0.1309  0.2250  0.1100
  399loPI   C1B 6381   5.687  17.680   9.753 -0.1731  0.0069 -0.2795
  399loPI   C2B 6382   5.661  17.574   9.279  0.1497  0.2457  0.2039
  399loPI   C3B 6383   5.623  17.626   8.828  0.1324  0.0558  0.1530
  399loPI   C4B 6384   5.685  17.950   8.414 -0.0449 -0.1426 -0.1162
  400loPI    C1 6385   4.343  15.259  10.568 -0.1805 -0.0576  0.0167
  400loPI    C2 6386   4.260  15.533  10.847  0.0436 -0.0300  0.0578
  400loPI    C3 6387   4.502  15.227  10.934  0.2088  0.0424 -0.1393
  400loPI   PO4 6388   4.418  15.389  10.399 -0.1962 -0.1169 -0.1188
  400loPI   GL1 6389   4.325  15.284  10.041 -0.2073 -0.2344 -0.0921
  400loPI   GL2 6390   4.236  15.547   9.945 -0.0937 -0.2108 -0.0882
  400loPI   C1A 6391   4.554  15.215   9.622  0.4450 -0.0345  0.0449
  400loPI   C2A 6392   4.711  15.133   9.299 -0.2097  0.2112 -0.3327
  400loPI   C3A 6393   4.741  15.106   9.013 -0.2117 -0.2693 -0.0549
  400loPI   C4A 6394   4.478  15.114   8.591 -0.0941  0.0169  0.2135
  400loPI   C5A 6395   4.400  15.469   8.245  0.3576 -0.0385  0.3211
  400loPI   C6A 6396   4.278  15.592   7.846 -0.1539 -0.2151 -0.1557
  400loPI   C1B 6397   4.039  15.438   9.637 -0.0054  0.0604  0.2882
  400loPI   C2B 6398   3.789  15.595   9.315  0.2746  0.2314  0.1569
  400loPI   C3B 6399   3.821  15.626   8.882 -0.0108  0.1983 -0.2232
  400loPI   C4B 6400   4.097  15.728   8.556 -0.1213  0.0954 -0.1300
  401loPI    C1 6401   1.107  17.033  10.471  0.0887 -0.2263 -0.1753
  401loPI    C2 6402   0.818  16.761  10.523  0.0175 -0.0801  0.2266
  401loPI    C3 6403   1.160  16.731  10.728  0.0414  0.0868  0.2129
  401loPI   PO4 6404   1.065  17.057  10.181 -0.2368 -0.1205 -0.2767
  401loPI   GL1 6405   0.898  17.383   9.928 -0.0007 -0.0909  0.4433
  401loPI   GL2 6406   1.267  17.362   9.804 -0.0173 -0.1353 -0.2397
  401loPI   C1A 6407   0.617  17.279   9.622 -0.4303 -0.0322 -0.1239
  401loPI   C2A 6408   0.468  17.372   9.284 -0.2030  0.1098 -0.1260
  401loPI   C3A 6409   0.319  17.469   8.960 -0.1303  0.1698 -0.1956
  401loPI   C4A 6410   0.272  17.573   8.590 -0.2872 -0.0448 -0.1457
  401loPI   C5A 6411   0.353  17.429   8.266  0.2609 -0.2889 -0.0945
  401loPI   C6A 6412   0.741  17.504   7.994  0.0159 -0.0862  0.4347
  401loPI   C1B 6413   1.516  17.237   9.405  0.0231  0.2133 -0.1673
  401loPI   C2B 6414   1.389  17.044   9.021  0.0915 -0.0536  0.0856
  401loPI   C3B 6415   1.125  17.114   8.683 -0.1203 -0.2618 -0.0675
  401loPI   C4B 6416   1.039  17.428   8.352  0.1999 -0.1141  0.1441
  402loPI    C1 6417   1.734   8.796  11.129 -0.0840  0.3154  0.0506
  402loPI    C2 6418   2.071   8.584  11.170 -0.2712 -0.0444 -0.2210
  402loPI    C3 6419   2.021   8.922  11.378  0.0549 -0.2359  0.1827
  402loPI   PO4 6420   1.768   8.795  10.825 -0.0157  0.2796 -0.4120
  402loPI   GL1 6421   1.521   8.862  10.504  0.2564 -0.0881  0.1968
  402loPI   GL2 6422   1.502   8.527  10.481 -0.4291 -0.0152  0.0894
  402loPI   C1A 6423   1.166   8.832  10.229  0.0204 -0.1328  0.1383
  402loPI   C2A 6424   1.080   8.906   9.713  0.2936  0.1280 -0.1022
  402loPI   C3A 6425   1.346   8.985   9.309 -0.2281  0.0721  0.4250
  402loPI   C4A 6426   1.366   9.048   8.844  0.0811  0.0042  0.0359
  402loPI   C5A 6427   1.305   9.190   8.398 -0.0469 -0.2898 -0.1628
  402loPI   C6A 6428   1.523   9.175   7.986  0.1922  0.1796 -0.1903
  402loPI   C1B 6429   1.286   8.335  10.171 -0.0659 -0.1038  0.1615
  402loPI   C2B 6430   1.357   8.259   9.735  0.2731  0.1042  0.2012
  402loPI   C3B 6431   1.197   8.464   9.355 -0.0337 -0.0068  0.3202
  402loPI   C4B 6432   1.138   8.578   8.955  0.2609  0.2271 -0.3329
  403loPI    C1 6433  17.081   2.005  10.902 -0.2652  0.1716 -0.2204
  403loPI    C2 6434  17.005   2.022  11.295  0.0959  0.1571 -0.1460
  403loPI    C3 6435  16.856   1.723  11.075  0.0475  0.0605  0.0163
  403loPI   PO4 6436  17.281   2.146  10.907 -0.0408  0.3788  0.1726
  403loPI   GL1 6437  17.713   2.051  10.539  0.2992 -0.1349 -0.0059
  403loPI   GL2 6438  17.568   1.847  10.337  0.0213 -0.0451  0.1979
  403loPI   C1A 6439  17.481   2.339  10.334 -0.0142 -0.0837  0.3227
  403loPI   C2A 6440  17.292   2.233   9.974  0.3373  0.0830 -0.2088
  403loPI   C3A 6441  17.202   2.228   9.455  0.1019 -0.3062 -0.1632
  403loPI   C4A 6442  17.187   2.236   9.015  0.0391 -0.3799 -0.0118
  403loPI   C5A 6443  17.208   1.896   8.801  0.2335 -0.1431 -0.0025
  403loPI   C6A 6444  17.227   1.857   8.279 -0.1186 -0.1535 -0.0834
  403loPI   C1B 6445  17.574   1.853   9.916 -0.0133  0.0101 -0.1730
  403loPI   C2B 6446  17.604   1.861   9.495  0.1365  0.0966 -0.2026
  403loPI   C3B 6447  17.633   1.888   9.089 -0.2418  0.0080  0.1079
  403loPI   C4B 6448  17.667   1.850   8.597 -0.0053 -0.0556 -0.0674
  404loPI    C1 6449   2.300   8.185  10.548 -0.1011 -0.0266 -0.0284
  404loPI    C2 6450   2.680   8.168  10.672 -0.0917  0.0166 -0.0508
  404loPI    C3 6451   2.394   8.297  10.920 -0.0875  0.0112 -0.0432
  404loPI   PO4 6452   2.319   8.175  10.324  0.0486 -0.0636  0.0686
  404loPI   GL1 6453   2.140   8.110   9.957 -0.2623 -0.0126  0.1258
  404loPI   GL2 6454   2.372   7.854  10.003 -0.0628  0.1024  0.3816
  404loPI   C1A 6455   1.901   8.127   9.615 -0.2271  0.0195 -0.1422
  404loPI   C2A 6456   1.602   8.092   9.378 -0.4189  0.1391 -0.1634
  404loPI   C3A 6457   1.323   8.043   9.025 -0.3589  0.4134 -0.6687
  404loPI   C4A 6458   0.949   7.858   8.792  0.2754 -0.3530  0.0755
  404loPI   C5A 6459   0.823   7.562   8.808 -0.1234 -0.0051 -0.0680
  404loPI   C6A 6460   0.989   7.281   8.599  0.4001  0.1621 -0.0634
  404loPI   C1B 6461   2.515   7.731   9.584 -0.0276  0.3035 -0.1052
  404loPI   C2B 6462   2.465   7.603   9.214  0.0331  0.0847 -0.1195
  404loPI   C3B 6463   2.377   7.545   8.793 -0.3454 -0.0328 -0.0431
  404loPI   C4B 6464   2.357   7.583   8.388 -0.0635  0.0538  0.0232
  405loPI    C1 6465   8.860   5.616  10.285  0.0133  0.1472  0.1879
  405loPI    C2 6466   9.014   5.282  10.442 -0.0270  0.0399  0.0037
  405loPI    C3 6467   8.618   5.319  10.402 -0.0087 -0.0073 -0.2318
  405loPI   PO4 6468   8.952   5.549  10.028  0.2159 -0.5583 -0.0901
  405loPI   GL1 6469   8.867   5.580   9.648 -0.0304 -0.0850  0.1966
  405loPI   GL2 6470   8.936   5.308   9.541  0.1463  0.2562  0.0197
  405loPI   C1A 6471   8.946   5.853   9.288  0.0189 -0.1835  0.0670
  405loPI   C2A 6472   9.080   5.787   8.903 -0.1004  0.1519 -0.2027
  405loPI   C3A 6473   9.172   5.868   8.422 -0.0136  0.1374  0.0295
  405loPI   C4A 6474   9.263   6.022   8.001  0.2174  0.1338  0.0986
  405loPI   C5A 6475   9.347   6.303   7.757 -0.0656 -0.2139  0.0171
  405loPI   C6A 6476   9.418   6.631   7.739 -0.0614  0.0571  0.0231
  405loPI   C1B 6477   8.883   5.371   9.138 -0.1814 -0.0874  0.2722
  405loPI   C2B 6478   8.682   5.179   8.783 -0.3485  0.1868 -0.1692
  405loPI   C3B 6479   8.555   4.747   8.611 -0.0262 -0.0239  0.1952
  405loPI   C4B 6480   8.469   4.413   8.974  0.0953 -0.4023  0.3415
  406POPI    C1 6481   1.940  10.175  10.790 -0.1919  0.1771 -0.1300
  406POPI    C2 6482   2.219  10.368  10.580  0.1661 -0.3287 -0.1381
  406POPI    C3 6483   2.248  10.346  10.978 -0.0655 -0.0742 -0.1039
  406POPI   PO4 6484   1.975   9.895  10.681 -0.0219  0.0397 -0.0291
  406POPI   GL1 6485   2.048   9.847  10.280  0.1685  0.0592  0.0921
  406POPI   GL2 6486   1.877   9.610  10.281 -0.2027 -0.2865 -0.2833
  406POPI   C1A 6487   2.107   9.995   9.835  0.2958  0.1337 -0.0738
  406POPI   D2A 6488   2.391   9.919   9.472 -0.1719 -0.2487  0.1081
  406POPI   C3A 6489   2.666  10.157   9.146  0.0770 -0.0059  0.1091
  406POPI   C4A 6490   2.978  10.021   8.687  0.0789 -0.1465 -0.1700
  406POPI   C1B 6491   1.873   9.551   9.882 -0.0415 -0.0077  0.3238
  406POPI   C2B 6492   2.097   9.504   9.479  0.0263 -0.0302  0.0278
  406POPI   C3B 6493   2.164   9.568   9.058  0.2206 -0.0083 -0.1873
  406POPI   C4B 6494   2.224   9.419   8.675 -0.0322  0.3680  0.0177
  407POPI    C1 6495  13.223  10.242  11.051 -0.1810  0.0640 -0.1244
  407POPI    C2 6496  13.179  10.639  11.057 -0.4424  0.0370 -0.1474
  407POPI    C3 6497  13.240  10.439  11.398 -0.0538  0.1217 -0.1628
  407POPI   PO4 6498  13.346  10.166  10.796  0.2211  0.2416 -0.2776
  407POPI   GL1 6499  13.457  10.029  10.394 -0.1270 -0.1127  0.0494
  407POPI   GL2 6500  13.330   9.717  10.160  0.0792 -0.1028  0.3042
  407POPI   C1A 6501  13.310  10.203  10.013 -0.1618 -0.0252  0.1217
  407POPI   D2A 6502  13.239  10.460   9.742 -0.0224  0.0582 -0.1614
  407POPI   C3A 6503  12.925  10.610   9.503 -0.0115  0.2159 -0.4228
  407POPI   C4A 6504  12.973  11.043   9.338  0.2264  0.2173  0.2304
  407POPI   C1B 6505  13.556   9.364   9.882 -0.1040 -0.1763  0.0232
  407POPI   C2B 6506  13.941   9.268   9.520  0.1261 -0.0517  0.1235
  407POPI   C3B 6507  14.000   9.275   9.012 -0.0686  0.3383 -0.2238
  407POPI   C4B 6508  14.131   9.203   8.602 -0.1216  0.1961  0.1455
  408POPI    C1 6509  12.791   6.031  10.884 -0.1197  0.0239 -0.0605
  408POPI    C2 6510  12.533   6.226  10.648 -0.1438  0.1067  0.0335
  408POPI    C3 6511  12.398   6.004  10.953 -0.1255 -0.1888 -0.1693
  408POPI   PO4 6512  12.987   5.943  10.740  0.0354 -0.1115 -0.2348
  408POPI   GL1 6513  13.257   6.258  10.580 -0.0782  0.0213  0.1948
  408POPI   GL2 6514  12.935   6.441  10.570 -0.0244  0.0798  0.1503
  408POPI   C1A 6515  13.391   6.386  10.231 -0.0899 -0.1256  0.1558
  408POPI   D2A 6516  13.561   6.627   9.933  0.2416  0.1459 -0.3850
  408POPI   C3A 6517  13.601   6.555   9.613 -0.0287 -0.0109 -0.1632
  408POPI   C4A 6518  13.776   6.749   9.222  0.1997  0.0682 -0.0190
  408POPI   C1B 6519  12.913   6.404  10.192  0.1842 -0.0000  0.0511
  408POPI   C2B 6520  12.831   6.167   9.900 -0.1491 -0.2179  0.1151
  408POPI   C3B 6521  12.815   5.974   9.509  0.4520 -0.3522  0.1072
  408POPI   C4B 6522  12.741   6.178   9.113  0.1262  0.0450 -0.0271
  409POPI    C1 6523   7.184   7.349  10.446  0.1558 -0.0641  0.2038
  409POPI    C2 6524   7.322   7.052  10.675  0.1632 -0.0355  0.2364
  409POPI    C3 6525   6.930   7.083  10.602  0.1601 -0.0402  0.2513
  409POPI   PO4 6526   7.399   7.309  10.194  0.1639 -0.0944 -0.0798
  409POPI   GL1 6527   7.245   7.261   9.789 -0.2111 -0.3598  0.1426
  409POPI   GL2 6528   7.495   7.039   9.748  0.1441  0.1467  0.3335
  409POPI   C1A 6529   7.198   7.249   9.385  0.0997 -0.2590 -0.1502
  409POPI   D2A 6530   6.986   7.404   9.100 -0.0945  0.3135  0.0733
  409POPI   C3A 6531   6.856   7.305   8.670 -0.3108  0.0297 -0.2583
  409POPI   C4A 6532   6.710   6.911   8.370 -0.2874  0.1076  0.2939
  409POPI   C1B 6533   7.189   6.795   9.497 -0.0644  0.1083  0.1989
  409POPI   C2B 6534   7.011   6.413   9.305 -0.1926 -0.1353  0.2896
  409POPI   C3B 6535   7.024   6.412   8.872  0.0398 -0.1145  0.2537
  409POPI   C4B 6536   6.976   6.465   8.438  0.0740 -0.1861 -0.0075
  410POPI    C1 6537  13.956  15.052  10.542 -0.0731  0.1067  0.3436
  410POPI    C2 6538  13.619  15.266  10.539 -0.1312  0.0163  0.0330
  410POPI    C3 6539  13.962  15.432  10.417 -0.1829 -0.0731 -0.2419
  410POPI   PO4 6540  13.874  14.817  10.321 -0.0163 -0.1944  0.3221
  410POPI   GL1 6541  13.706  14.608   9.955 -0.0398 -0.0043  0.2439
  410POPI   GL2 6542  13.845  14.263   9.735 -0.2644 -0.3520  0.1111
  410POPI   C1A 6543  13.670  14.665   9.586  0.2631 -0.0882  0.0053
  410POPI   D2A 6544  13.773  15.034   9.342 -0.1451 -0.1737 -0.1458
  410POPI   C3A 6545  13.647  15.004   8.885  0.1151 -0.1129  0.0885
  410POPI   C4A 6546  13.716  15.132   8.479  0.1689  0.2187  0.1965
  410POPI   C1B 6547  13.835  14.161   9.297 -0.1727 -0.0936 -0.1130
  410POPI   C2B 6548  13.782  14.295   8.859  0.3238  0.0637  0.0674
  410POPI   C3B 6549  13.923  14.447   8.550  0.1567  0.2011  0.0839
  410POPI   C4B 6550  14.351  14.587   8.396  0.1583 -0.0148  0.4575
  411POPI    C1 6551   5.870   4.696  10.654 -0.1272 -0.0173 -0.1076
  411POPI    C2 6552   6.180   4.876  10.833 -0.0964 -0.0445 -0.1332
  411POPI    C3 6553   5.817   5.044  10.843 -0.0682  0.0179 -0.1555
  411POPI   PO4 6554   5.843   4.627  10.392 -0.1284 -0.2575 -0.1620
  411POPI   GL1 6555   5.646   4.398  10.059  0.3651  0.0512  0.0554
  411POPI   GL2 6556   5.344   4.184   9.916  0.0514  0.0332  0.0982
  411POPI   C1A 6557   5.663   4.360   9.602 -0.1495 -0.0210 -0.0599
  411POPI   D2A 6558   5.298   4.203   9.264  0.0374  0.4393  0.2850
  411POPI   C3A 6559   5.423   4.371   8.797  0.1548 -0.0721  0.0133
  411POPI   C4A 6560   5.449   4.750   8.591  0.3499 -0.2534 -0.0040
  411POPI   C1B 6561   5.414   3.868   9.663 -0.1858  0.0937  0.3187
  411POPI   C2B 6562   5.373   3.667   9.232 -0.0723  0.2560 -0.0744
  411POPI   C3B 6563   5.369   3.593   8.753 -0.1039  0.2381  0.1633
  411POPI   C4B 6564   5.570   3.878   8.488 -0.1143 -0.1098  0.0688
  412POPI    C1 6565   6.526  11.839  10.431  0.0826 -0.0500 -0.1045
  412POPI    C2 6566   6.181  11.942  10.258  0.1855  0.2449 -0.1411
  412POPI    C3 6567   6.180  11.748  10.608 -0.0185 -0.0026 -0.2759
  412POPI   PO4 6568   6.728  11.746  10.245 -0.0959 -0.1876 -0.0830
  412POPI   GL1 6569   6.879  11.588   9.846  0.1553 -0.1348 -0.0120
  412POPI   GL2 6570   6.688  11.362   9.661 -0.1289 -0.0370 -0.2965
  412POPI   C1A 6571   7.098  11.605   9.456 -0.1439  0.2533 -0.0894
  412POPI   D2A 6572   7.199  11.457   9.020  0.0862 -0.0066 -0.4394
  412POPI   C3A 6573   6.892  11.486   8.748 -0.1034 -0.1057  0.2921
  412POPI   C4A 6574   6.813  11.479   8.315  0.0380 -0.0267  0.0134
  412POPI   C1B 6575   6.429  11.016   9.401 -0.2700 -0.0963  0.2752
  412POPI   C2B 6576   6.402  10.831   9.025  0.1074  0.3684  0.0161
  412POPI   C3B 6577   6.499  10.588   8.653 -0.1507  0.0098 -0.3403
  412POPI   C4B 6578   6.651  10.510   8.215  0.4299  0.0189  0.1331
  413POPI    C1 6579  14.983  15.803  10.953  0.1862 -0.3685  0.1507
  413POPI    C2 6580  14.813  15.822  11.314  0.0466  0.1333  0.0654
  413POPI    C3 6581  14.721  15.522  11.066  0.0059 -0.1150  0.3740
  413POPI   PO4 6582  14.960  16.053  10.863  0.1154 -0.0073  0.0100
  413POPI   GL1 6583  15.192  16.119  10.405 -0.1513 -0.1722 -0.1776
  413POPI   GL2 6584  15.190  15.856  10.224 -0.0119  0.0808 -0.0042
  413POPI   C1A 6585  15.173  16.415  10.070  0.2049  0.0623 -0.1137
  413POPI   D2A 6586  15.351  16.673   9.844  0.1725  0.0346  0.3408
  413POPI   C3A 6587  15.340  16.743   9.481  0.0502 -0.0924 -0.3499
  413POPI   C4A 6588  15.482  16.455   9.110 -0.2012 -0.1042 -0.2492
  413POPI   C1B 6589  15.098  15.739   9.759  0.1678  0.0711  0.0108
  413POPI   C2B 6590  15.039  15.606   9.336 -0.0415  0.4624  0.1309
  413POPI   C3B 6591  14.882  15.746   8.871 -0.2869  0.1173  0.1588
  413POPI   C4B 6592  14.924  15.746   8.459 -0.0709  0.2103  0.2504
  414POPI    C1 6593   5.834   6.143  10.463 -0.1126 -0.1432 -0.0918
  414POPI    C2 6594   5.528   6.283  10.678 -0.0451 -0.0204 -0.0745
  414POPI    C3 6595   5.796   6.039  10.847 -0.2234 -0.2614 -0.1342
  414POPI   PO4 6596   5.748   6.019  10.235  0.1614 -0.1366  0.1199
  414POPI   GL1 6597   5.670   5.937   9.882 -0.3363  0.0972 -0.3060
  414POPI   GL2 6598   5.427   6.026   9.735 -0.2869 -0.0889 -0.1970
  414POPI   C1A 6599   5.890   6.002   9.497  0.0423 -0.0591 -0.3017
  414POPI   D2A 6600   6.007   6.198   9.035  0.0842 -0.2682 -0.2600
  414POPI   C3A 6601   6.134   6.633   9.070  0.1148  0.2500  0.1918
  414POPI   C4A 6602   6.292   6.909   9.387  0.3085  0.2148  0.1178
  414POPI   C1B 6603   5.434   6.083   9.284 -0.1334 -0.2573 -0.0347
  414POPI   C2B 6604   5.601   6.013   8.887 -0.1163 -0.1371 -0.0042
  414POPI   C3B 6605   5.566   6.024   8.391 -0.0307  0.1151 -0.0088
  414POPI   C4B 6606   5.541   5.940   7.963  0.4165 -0.1909  0.3370
  415POPI    C1 6607   9.316  11.790  10.465 -0.1463  0.1871 -0.0988
  415POPI    C2 6608   8.969  11.620  10.364  0.0104 -0.1527 -0.0791
  415POPI    C3 6609   9.302  11.531  10.161  0.1403 -0.0558  0.0889
  415POPI   PO4 6610   9.260  12.031  10.427  0.2107  0.0968 -0.3498
  415POPI   GL1 6611   9.412  12.245  10.139 -0.1441  0.0910  0.2413
  415POPI   GL2 6612   9.666  12.007  10.076  0.2537  0.2418  0.1184
  415POPI   C1A 6613   9.521  12.353   9.706 -0.1080  0.0227  0.4425
  415POPI   D2A 6614   9.440  12.629   9.331  0.3362 -0.3799 -0.1105
  415POPI   C3A 6615   9.435  12.482   8.891 -0.0135 -0.0185  0.1596
  415POPI   C4A 6616   9.616  12.371   8.469 -0.0160 -0.1479  0.0899
  415POPI   C1B 6617   9.863  11.962   9.802 -0.1228 -0.0909  0.0590
  415POPI   C2B 6618   9.991  12.157   9.412  0.0910 -0.3086  0.3298
  415POPI   C3B 6619   9.944  12.537   9.151  0.1785  0.0136  0.1494
  415POPI   C4B 6620   9.819  12.731   8.765 -0.1286 -0.1554 -0.3237
  416POPI    C1 6621  10.031   2.799  10.659  0.1337 -0.0028  0.0226
  416POPI    C2 6622   9.933   2.533  10.941 -0.0528 -0.1178 -0.1473
  416POPI    C3 6623   9.943   2.923  11.029  0.2141 -0.1770  0.1014
  416POPI   PO4 6624   9.912   2.602  10.442  0.0795 -0.1584 -0.1970
  416POPI   GL1 6625   9.761   2.604  10.079 -0.3353  0.0292 -0.0286
  416POPI   GL2 6626   9.934   2.816   9.969 -0.0168 -0.0792  0.0503
  416POPI   C1A 6627   9.635   2.465   9.666 -0.1488  0.0155 -0.1221
  416POPI   D2A 6628   9.476   2.542   9.292 -0.1694  0.1591 -0.2974
  416POPI   C3A 6629   9.671   2.393   8.998  0.0341  0.0567 -0.2564
  416POPI   C4A 6630   9.906   1.988   8.939 -0.0554  0.0296 -0.3368
  416POPI   C1B 6631   9.989   2.786   9.436 -0.1798  0.2690 -0.1297
  416POPI   C2B 6632   9.975   2.731   8.931 -0.0569 -0.1531 -0.0067
  416POPI   C3B 6633   9.973   2.560   8.574 -0.0896  0.3240  0.1292
  416POPI   C4B 6634   9.668   2.376   8.351 -0.0705  0.3710  0.0526
  417POPI    C1 6635   5.843   9.717   9.994  0.1060  0.3276 -0.1048
  417POPI    C2 6636   5.855   9.985  10.290  0.1146 -0.0514  0.2477
  417POPI    C3 6637   6.181   9.770  10.203  0.0576 -0.0725  0.0845
  417POPI   PO4 6638   5.704   9.515  10.036  0.0547  0.1064  0.1237
  417POPI   GL1 6639   5.554   9.239   9.818  0.0490 -0.1455  0.2594
  417POPI   GL2 6640   5.255   9.283   9.958  0.0686 -0.0733  0.2393
  417POPI   C1A 6641   5.637   9.014   9.341 -0.0955  0.0868 -0.1529
  417POPI   D2A 6642   5.673   8.814   8.958  0.0172  0.2665  0.1368
  417POPI   C3A 6643   5.915   9.031   8.702  0.0707  0.0859  0.2000
  417POPI   C4A 6644   5.947   9.195   8.256 -0.1124 -0.0576  0.2609
  417POPI   C1B 6645   4.974   9.398   9.542 -0.1537  0.1670 -0.3118
  417POPI   C2B 6646   4.898   9.599   9.242  0.0383 -0.0615 -0.3483
  417POPI   C3B 6647   5.134   9.346   8.907 -0.0773  0.0998 -0.0263
  417POPI   C4B 6648   5.488   9.268   8.832 -0.2989 -0.3302 -0.2891
  418POPI    C1 6649   5.452   9.932  10.562  0.0929  0.0561  0.0817
  418POPI    C2 6650   5.334   9.600  10.751 -0.1620  0.0902 -0.0140
  418POPI    C3 6651   5.568   9.864  10.938  0.0439 -0.1431  0.0620
  418POPI   PO4 6652   5.337   9.850  10.270  0.0750  0.1181  0.0393
  418POPI   GL1 6653   5.137   9.829   9.832 -0.1177  0.0028 -0.0073
  418POPI   GL2 6654   5.390   9.756   9.761 -0.1854 -0.4105 -0.1537
  418POPI   C1A 6655   5.069  10.067   9.386  0.2514 -0.2814 -0.0721
  418POPI   D2A 6656   5.457  10.253   9.006  0.1515 -0.1851 -0.1022
  418POPI   C3A 6657   5.442  10.213   8.521 -0.2464 -0.3616 -0.4277
  418POPI   C4A 6658   5.315  10.148   8.046 -0.2807  0.2357 -0.1055
  418POPI   C1B 6659   5.441   9.540   9.348 -0.1137  0.0771 -0.0023
  418POPI   C2B 6660   5.467   9.777   8.889 -0.1868 -0.1033 -0.0761
  418POPI   C3B 6661   5.501   9.728   8.475 -0.0995  0.0226  0.0062
  418POPI   C4B 6662   5.616   9.663   8.062  0.1087 -0.3371  0.0993
  419POPI    C1 6663   8.267  12.289  10.489  0.1941 -0.1514  0.0759
  419POPI    C2 6664   8.323  11.900  10.562 -0.0606 -0.2014  0.0137
  419POPI    C3 6665   8.359  12.167  10.858 -0.1646 -0.3031  0.1189
  419POPI   PO4 6666   8.246  12.238  10.201 -0.1001  0.0297  0.3294
  419POPI   GL1 6667   8.080  12.418   9.820 -0.0047 -0.0052 -0.0405
  419POPI   GL2 6668   7.867  12.626   9.733 -0.0188 -0.1054 -0.3277
  419POPI   C1A 6669   8.175  12.168   9.491 -0.0469  0.1076 -0.1360
  419POPI   D2A 6670   8.050  12.318   8.997 -0.0007  0.0656 -0.1518
  419POPI   C3A 6671   8.022  12.300   8.575  0.0967 -0.0236 -0.0237
  419POPI   C4A 6672   8.246  12.534   8.325  0.0137 -0.1594  0.2228
  419POPI   C1B 6673   7.942  12.738   9.292 -0.1345 -0.0693  0.1454
  419POPI   C2B 6674   7.933  12.730   8.817  0.1713 -0.1016  0.4033
  419POPI   C3B 6675   7.780  12.711   8.423  0.3044 -0.2534  0.0992
  419POPI   C4B 6676   7.710  12.495   8.019  0.1220 -0.2350  0.0738
  420POPI    C1 6677   3.519  15.685  10.601 -0.2136  0.1073 -0.0020
  420POPI    C2 6678   3.446  15.398  10.871  0.0568  0.0001 -0.0398
  420POPI    C3 6679   3.327  15.773  10.941  0.1323 -0.0248  0.2347
  420POPI   PO4 6680   3.461  15.593  10.410 -0.2034 -0.2360  0.4792
  420POPI   GL1 6681   3.662  15.625   9.975 -0.3062 -0.1228 -0.1011
  420POPI   GL2 6682   3.775  15.872   9.890 -0.2456 -0.0071  0.2191
  420POPI   C1A 6683   3.544  15.356   9.760 -0.0380 -0.0363  0.2386
  420POPI   D2A 6684   3.690  15.110   9.388 -0.2360 -0.0434 -0.2710
  420POPI   C3A 6685   3.705  15.123   8.979 -0.2495  0.0037 -0.2178
  420POPI   C4A 6686   4.009  15.225   8.619  0.0251 -0.2334  0.0050
  420POPI   C1B 6687   4.131  15.942   9.665  0.1723 -0.1129  0.0897
  420POPI   C2B 6688   4.436  15.749   9.401  0.1943 -0.6545 -0.3074
  420POPI   C3B 6689   4.276  15.306   9.155 -0.0253  0.0591  0.0133
  420POPI   C4B 6690   4.227  14.876   8.967  0.1325 -0.1331 -0.0357
  421POPI    C1 6691   6.521  15.301  10.567  0.1762  0.1438 -0.0391
  421POPI    C2 6692   6.760  15.260  10.885  0.1484  0.2195 -0.0081
  421POPI    C3 6693   6.474  15.539  10.884 -0.0149  0.0547  0.0009
  421POPI   PO4 6694   6.484  14.971  10.436 -0.0753  0.0556 -0.0918
  421POPI   GL1 6695   6.331  15.134  10.064  0.1621 -0.0920  0.0967
  421POPI   GL2 6696   6.390  15.011   9.738  0.2096  0.2333 -0.0718
  421POPI   C1A 6697   6.492  15.517   9.882 -0.0693 -0.0710 -0.1888
  421POPI   D2A 6698   6.826  15.695   9.655 -0.1431  0.2958  0.0411
  421POPI   C3A 6699   7.053  15.534   9.368  0.1349 -0.1194  0.0773
  421POPI   C4A 6700   6.993  15.191   9.084  0.0219  0.0416 -0.1173
  421POPI   C1B 6701   6.448  15.339   9.425 -0.0231  0.0627 -0.0068
  421POPI   C2B 6702   6.407  15.235   9.019 -0.0161  0.0767  0.0397
  421POPI   C3B 6703   6.708  15.153   8.627  0.0980  0.1791  0.0873
  421POPI   C4B 6704   6.666  15.261   8.207 -0.2989 -0.2178 -0.0125
  422POPI    C1 6705   1.448   7.105  10.808  0.0635  0.0043  0.0426
  422POPI    C2 6706   1.341   7.020  11.184  0.0129 -0.0979  0.0054
  422POPI    C3 6707   1.436   6.725  10.932 -0.0704 -0.0378 -0.0971
  422POPI   PO4 6708   1.223   7.223  10.755 -0.1475 -0.2225 -0.3703
  422POPI   GL1 6709   1.166   7.440  10.390 -0.0370  0.1299 -0.1937
  422POPI   GL2 6710   1.539   7.490  10.392 -0.2203  0.0559  0.2117
  422POPI   C1A 6711   1.184   7.489  10.005 -0.0199  0.0665 -0.2854
  422POPI   D2A 6712   1.006   7.501   9.577 -0.0300  0.0151  0.1469
  422POPI   C3A 6713   1.149   7.490   9.197 -0.0406  0.0529  0.0184
  422POPI   C4A 6714   1.368   7.604   8.807  0.2949 -0.0032 -0.3522
  422POPI   C1B 6715   1.632   7.219  10.147 -0.3329  0.2563  0.3156
  422POPI   C2B 6716   1.506   7.147   9.675 -0.2983  0.0784  0.3068
  422POPI   C3B 6717   1.191   6.973   9.351  0.0781  0.1245 -0.0692
  422POPI   C4B 6718   0.961   6.868   8.951  0.2877  0.1490 -0.2149
  423POPI    C1 6719  15.832   4.311  11.125 -0.0383 -0.0549 -0.0721
  423POPI    C2 6720  16.113   4.594  11.094 -0.0985 -0.0177 -0.2934
  423POPI    C3 6721  15.929   4.533  11.444 -0.1310  0.2610 -0.2597
  423POPI   PO4 6722  15.724   4.317  10.957  0.0097  0.3634 -0.0079
  423POPI   GL1 6723  15.607   4.545  10.617 -0.1294  0.4664  0.1823
  423POPI   GL2 6724  15.344   4.372  10.390 -0.2296  0.0098  0.2827
  423POPI   C1A 6725  15.752   4.784  10.343  0.1630  0.0702 -0.1702
  423POPI   D2A 6726  15.768   4.869   9.969  0.3631 -0.0518 -0.0891
  423POPI   C3A 6727  15.823   5.235   9.880  0.0382 -0.1452 -0.3008
  423POPI   C4A 6728  15.549   5.481  10.024 -0.0910  0.2846  0.1760
  423POPI   C1B 6729  15.473   4.476  10.061  0.0579  0.0790  0.1798
  423POPI   C2B 6730  15.515   4.597   9.606 -0.0582  0.2491 -0.1181
  423POPI   C3B 6731  15.519   4.660   9.179  0.0245 -0.2565  0.2574
  423POPI   C4B 6732  15.466   5.008   8.896  0.0712  0.1925 -0.0293
  424POPI    C1 6733  11.174  14.334  10.404  0.2874 -0.0981  0.0368
  424POPI    C2 6734  11.166  14.329  10.804  0.2469  0.1264  0.0403
  424POPI    C3 6735  10.960  14.056  10.596  0.1441  0.1027  0.1721
  424POPI   PO4 6736  11.584  14.389  10.350  0.1036 -0.1493 -0.2788
  424POPI   GL1 6737  11.576  14.500  10.048  0.2515 -0.2344 -0.0056
  424POPI   GL2 6738  11.684  14.738  10.007  0.1210  0.1438 -0.1944
  424POPI   C1A 6739  11.573  14.379   9.630 -0.0834 -0.0429  0.2277
  424POPI   D2A 6740  11.441  14.104   9.219  0.0404  0.1115 -0.0445
  424POPI   C3A 6741  11.781  14.164   8.907  0.1607  0.1773 -0.1015
  424POPI   C4A 6742  12.232  14.143   8.888  0.0390  0.0449  0.2233
  424POPI   C1B 6743  12.120  14.945   9.921  0.0620 -0.0022  0.2519
  424POPI   C2B 6744  12.196  15.263   9.719  0.0979 -0.2340  0.2518
  424POPI   C3B 6745  11.979  15.566   9.456  0.0858 -0.3962  0.0169
  424POPI   C4B 6746  11.858  15.950   9.126 -0.2525 -0.1057  0.1381
  425POPI    C1 6747   9.527  12.475  10.681  0.0083 -0.2842  0.0006
  425POPI    C2 6748   9.261  12.752  10.795 -0.0822 -0.3273 -0.1049
  425POPI    C3 6749   9.501  12.582  11.066 -0.0063 -0.1255 -0.0437
  425POPI   PO4 6750   9.639  12.556  10.515  0.0263 -0.0469 -0.1782
  425POPI   GL1 6751   9.607  12.865  10.074  0.3145 -0.0180 -0.2194
  425POPI   GL2 6752   9.777  12.834   9.687  0.4905 -0.0891  0.0264
  425POPI   C1A 6753   9.221  12.802   9.807 -0.0799  0.0222 -0.0019
  425POPI   D2A 6754   8.894  12.732   9.441  0.1411  0.1624 -0.0384
  425POPI   C3A 6755   8.972  12.554   9.028 -0.0800 -0.1857 -0.1523
  425POPI   C4A 6756   9.002  12.155   8.866  0.1657 -0.0842 -0.0965
  425POPI   C1B 6757   9.792  13.008   9.238 -0.1681 -0.2253  0.1683
  425POPI   C2B 6758   9.549  13.083   8.905 -0.1369 -0.0945 -0.0213
  425POPI   C3B 6759   9.339  12.882   8.581  0.2794  0.0292  0.2018
  425POPI   C4B 6760   8.941  12.614   8.514 -0.0338  0.0699 -0.1364
  426POPI    C1 6761   0.397   0.631  10.481 -0.2779  0.0016 -0.0565
  426POPI    C2 6762   0.112   0.747  10.736 -0.1948  0.0128  0.0316
  426POPI    C3 6763   0.384   0.477  10.849 -0.1642  0.0096 -0.0488
  426POPI   PO4 6764   0.464   0.855  10.376  0.4407 -0.1079 -0.0603
  426POPI   GL1 6765   0.432   0.974   9.981 -0.1604 -0.1755  0.1173
  426POPI   GL2 6766   0.091   1.076  10.142  0.1996  0.2541 -0.2641
  426POPI   C1A 6767   0.538   1.170   9.483 -0.1067 -0.1625 -0.0334
  426POPI   D2A 6768   0.485   1.528   9.257  0.1438 -0.0692 -0.1297
  426POPI   C3A 6769   0.217   1.431   8.939  0.1774 -0.0548 -0.1698
  426POPI   C4A 6770   0.132   1.199   8.625  0.1747  0.2300 -0.0651
  426POPI   C1B 6771  -0.015   0.812   9.692 -0.1196  0.2062 -0.4961
  426POPI   C2B 6772   0.079   1.087   9.406 -0.0824 -0.0907  0.2769
  426POPI   C3B 6773   0.008   0.909   9.040  0.2094 -0.1516 -0.0702
  426POPI   C4B 6774   0.222   0.669   8.574 -0.1315 -0.1455 -0.1927
  427POPI    C1 6775  15.977  11.830  10.763  0.0986 -0.0211  0.1339
  427POPI    C2 6776  15.932  12.026  11.108 -0.0802  0.0111  0.0937
  427POPI    C3 6777  15.648  11.775  10.983  0.1036 -0.2024  0.0979
  427POPI   PO4 6778  16.011  12.008  10.582  0.2115  0.0165 -0.2097
  427POPI   GL1 6779  16.058  12.051  10.122  0.0257  0.1037 -0.2389
  427POPI   GL2 6780  16.320  12.250  10.216 -0.2160 -0.0698  0.1348
  427POPI   C1A 6781  15.735  11.988   9.714 -0.2677  0.1414  0.1862
  427POPI   D2A 6782  15.821  12.012   9.256 -0.1882 -0.1519  0.0452
  427POPI   C3A 6783  15.915  11.758   8.898 -0.0666 -0.0990 -0.0457
  427POPI   C4A 6784  15.772  11.384   8.795 -0.0250 -0.4374  0.1106
  427POPI   C1B 6785  16.260  12.201   9.659 -0.0260 -0.0751  0.1569
  427POPI   C2B 6786  16.284  11.913   9.231 -0.1182  0.0448 -0.1317
  427POPI   C3B 6787  16.380  11.808   8.851  0.0744 -0.2417 -0.1294
  427POPI   C4B 6788  16.251  11.618   8.505  0.1850 -0.1983  0.0477
  428POPI    C1 6789  15.244  10.229  11.039 -0.1164 -0.2517  0.0074
  428POPI    C2 6790  15.303  10.502  11.326 -0.1197  0.0871 -0.3074
  428POPI    C3 6791  15.026  10.218  11.374 -0.1623  0.1773 -0.0024
  428POPI   PO4 6792  15.189  10.435  10.849  0.1300 -0.0988  0.0091
  428POPI   GL1 6793  15.278  10.744  10.488  0.0814  0.1602 -0.0091
  428POPI   GL2 6794  15.034  10.545  10.382 -0.5028  0.0277 -0.0175
  428POPI   C1A 6795  15.372  10.958  10.197 -0.0239  0.0626  0.2074
  428POPI   D2A 6796  15.316  11.203   9.899  0.0073 -0.0314 -0.1454
  428POPI   C3A 6797  15.499  11.051   9.496 -0.0550 -0.0973 -0.0826
  428POPI   C4A 6798  15.566  11.075   9.114 -0.1094  0.0073 -0.1718
  428POPI   C1B 6799  15.022  10.666   9.971 -0.1258 -0.0410  0.2392
  428POPI   C2B 6800  14.997  10.906   9.613  0.0135 -0.1118 -0.0958
  428POPI   C3B 6801  15.074  11.326   9.256  0.0954  0.3446  0.2277
  428POPI   C4B 6802  14.846  11.513   8.913  0.0304  0.2879  0.0326
  429POPI    C1 6803  10.344  12.783  10.772  0.0202  0.1434  0.1383
  429POPI    C2 6804  10.129  12.471  10.641  0.0460  0.0786  0.2489
  429POPI    C3 6805  10.394  12.422  10.937  0.0133  0.2165  0.3020
  429POPI   PO4 6806  10.475  12.888  10.532  0.4128 -0.1828 -0.1009
  429POPI   GL1 6807  10.412  12.961  10.027  0.0620  0.1330  0.1270
  429POPI   GL2 6808  10.391  12.619  10.034  0.0208  0.0045  0.0713
  429POPI   C1A 6809  10.725  12.925   9.645 -0.0561 -0.1771  0.3024
  429POPI   D2A 6810  10.860  12.991   9.245 -0.0007 -0.2415 -0.0297
  429POPI   C3A 6811  10.625  13.213   8.984 -0.0731 -0.2748  0.3653
  429POPI   C4A 6812  10.571  13.348   8.632 -0.0164 -0.2830 -0.4016
  429POPI   C1B 6813  10.336  12.631   9.560 -0.2225  0.1219  0.0258
  429POPI   C2B 6814  10.365  12.818   9.135 -0.3643  0.0824 -0.0503
  429POPI   C3B 6815  10.306  12.821   8.697 -0.1343 -0.3584  0.0682
  429POPI   C4B 6816  10.335  13.110   8.292 -0.0448  0.0985 -0.0217
  430POPI    C1 6817  13.358  11.005  10.673 -0.1894 -0.1506 -0.0783
  430POPI    C2 6818  13.717  11.023  10.496 -0.2175  0.0080 -0.1209
  430POPI    C3 6819  13.691  10.994  10.894 -0.1564 -0.1524 -0.1279
  430POPI   PO4 6820  13.231  10.890  10.422 -0.2991 -0.0684  0.2887
  430POPI   GL1 6821  13.383  10.847  10.070 -0.2374 -0.0255  0.3214
  430POPI   GL2 6822  13.629  10.625   9.991 -0.0951  0.2071 -0.0129
  430POPI   C1A 6823  12.947  11.030   9.851  0.1907  0.0250  0.0146
  430POPI   D2A 6824  12.923  11.479   9.719  0.1513 -0.0990 -0.1595
  430POPI   C3A 6825  12.657  11.432   9.455  0.1030 -0.3026  0.0303
  430POPI   C4A 6826  12.552  11.749   9.105  0.0825 -0.3597 -0.0024
  430POPI   C1B 6827  13.718  10.342   9.729  0.0131  0.2606  0.0757
  430POPI   C2B 6828  13.789  10.113   9.366 -0.2224  0.0252  0.4393
  430POPI   C3B 6829  13.742   9.699   9.180 -0.1191  0.0134  0.1510
  430POPI   C4B 6830  13.487   9.311   8.936 -0.3479  0.0293 -0.1157
  431POPI    C1 6831  12.634  14.625  10.446  0.0643 -0.2839  0.2003
  431POPI    C2 6832  12.700  14.935  10.691  0.0337 -0.0647 -0.0639
  431POPI    C3 6833  12.788  14.564  10.810  0.0210  0.0382  0.2764
  431POPI   PO4 6834  12.773  14.732  10.119  0.1618  0.1794 -0.1874
  431POPI   GL1 6835  12.605  14.795   9.817 -0.1175  0.1970  0.1132
  431POPI   GL2 6836  12.723  14.546   9.565 -0.1286 -0.2953  0.2966
  431POPI   C1A 6837  12.292  14.835   9.462  0.2207 -0.0351 -0.1481
  431POPI   D2A 6838  12.248  15.295   9.181 -0.1163 -0.0869 -0.0070
  431POPI   C3A 6839  12.064  15.439   8.838 -0.3335 -0.3286 -0.0026
  431POPI   C4A 6840  11.900  15.604   8.471 -0.1038 -0.0203  0.4190
  431POPI   C1B 6841  13.005  14.479   9.301 -0.1441  0.1307  0.1447
  431POPI   C2B 6842  13.314  14.582   9.013  0.1539 -0.0399 -0.0113
  431POPI   C3B 6843  13.360  14.626   8.572 -0.1044  0.0714 -0.1553
  431POPI   C4B 6844  13.403  14.836   8.146 -0.0338 -0.0094  0.0015
  432POPI    C1 6845   5.667  14.049   9.966 -0.1077  0.1388 -0.1593
  432POPI    C2 6846   5.731  13.786  10.260 -0.1288  0.1490 -0.1456
  432POPI    C3 6847   5.857  13.705   9.889  0.0307  0.2022 -0.1041
  432POPI   PO4 6848   5.447  14.121   9.937 -0.2841 -0.0528  0.1157
  432POPI   GL1 6849   5.354  14.319   9.600 -0.0428 -0.0574 -0.1028
  432POPI   GL2 6850   5.548  14.499   9.573 -0.1183  0.0514 -0.0394
  432POPI   C1A 6851   5.027  14.140   9.266 -0.3005 -0.2169  0.2694
  432POPI   D2A 6852   4.882  14.115   8.858  0.1173  0.0544 -0.0263
  432POPI   C3A 6853   4.960  14.367   8.509 -0.2907  0.1244  0.0507
  432POPI   C4A 6854   5.002  14.277   8.064 -0.1723 -0.3800 -0.1464
  432POPI   C1B 6855   5.468  14.381   9.121  0.2648 -0.3295 -0.0176
  432POPI   C2B 6856   5.795  14.451   8.750 -0.0103 -0.2098 -0.3341
  432POPI   C3B 6857   5.879  14.469   8.251  0.0020 -0.1094  0.1168
  432POPI   C4B 6858   5.912  14.461   7.815  0.0099  0.1795  0.0696
  433POPI    C1 6859   0.887   1.026  10.462  0.0183 -0.0384  0.2719
  433POPI    C2 6860   0.919   0.636  10.378 -0.0746 -0.0049  0.0733
  433POPI    C3 6861   0.944   0.763  10.757  0.0616 -0.1917  0.1281
  433POPI   PO4 6862   1.086   1.122  10.326 -0.1507  0.0171  0.1171
  433POPI   GL1 6863   1.441   0.989   9.998  0.0734 -0.2552 -0.0789
  433POPI   GL2 6864   1.589   0.812   9.788  0.0913 -0.1185  0.0805
  433POPI   C1A 6865   1.449   1.343   9.661 -0.0907 -0.0283 -0.1890
  433POPI   D2A 6866   1.408   1.453   9.218  0.4078 -0.0953  0.5349
  433POPI   C3A 6867   1.445   1.365   8.902 -0.1520  0.0918  0.1184
  433POPI   C4A 6868   1.290   1.335   8.518 -0.0155 -0.2259  0.3257
  433POPI   C1B 6869   1.671   0.812   9.393  0.1094  0.0859 -0.1443
  433POPI   C2B 6870   1.697   0.903   9.038 -0.1324 -0.2957  0.0158
  433POPI   C3B 6871   1.762   1.092   8.704 -0.0443 -0.0095 -0.0898
  433POPI   C4B 6872   1.902   1.430   8.489 -0.1147 -0.1778  0.3060
  434POPI    C1 6873  12.729  15.363  10.380 -0.2104  0.3108 -0.3168
  434POPI    C2 6874  12.463  15.100  10.238 -0.0713 -0.0481  0.0679
  434POPI    C3 6875  12.376  15.316  10.563 -0.0591  0.1524 -0.0603
  434POPI   PO4 6876  12.767  15.503  10.174 -0.0446  0.2318  0.0052
  434POPI   GL1 6877  12.646  15.311   9.763  0.0339  0.1243 -0.0709
  434POPI   GL2 6878  12.581  15.765   9.777 -0.0943  0.1991  0.0128
  434POPI   C1A 6879  12.677  15.140   9.405 -0.1699  0.2098  0.0658
  434POPI   D2A 6880  12.734  15.013   9.054  0.1816  0.0843  0.2059
  434POPI   C3A 6881  12.891  14.697   8.784  0.0406 -0.0167 -0.2200
  434POPI   C4A 6882  12.952  14.502   8.283 -0.0724  0.2737 -0.1131
  434POPI   C1B 6883  12.647  15.789   9.350  0.1294  0.0037  0.0202
  434POPI   C2B 6884  12.705  15.532   9.018  0.0073 -0.0828 -0.0273
  434POPI   C3B 6885  12.587  15.370   8.593 -0.0262  0.1272 -0.1859
  434POPI   C4B 6886  12.360  15.561   8.233  0.0165  0.0780 -0.1381
  435POPI    C1 6887   1.266   8.556  11.426 -0.0043 -0.0728 -0.1261
  435POPI    C2 6888   1.307   8.643  11.814 -0.1671 -0.2457 -0.0688
  435POPI    C3 6889   1.487   8.869  11.538 -0.1082 -0.0798  0.1040
  435POPI   PO4 6890   0.972   8.439  11.314 -0.3661  0.1861 -0.1015
  435POPI   GL1 6891   0.886   8.526  10.829 -0.0970 -0.2614 -0.0632
  435POPI   GL2 6892   1.051   8.351  10.614 -0.0214  0.0700 -0.0599
  435POPI   C1A 6893   0.727   8.499  10.307  0.0479  0.3258  0.0456
  435POPI   D2A 6894   0.746   8.752  10.049  0.0900  0.0650 -0.0859
  435POPI   C3A 6895   0.747   9.137  10.071  0.2815  0.2394 -0.1870
  435POPI   C4A 6896   0.846   9.515  10.071 -0.0925 -0.2789 -0.1876
  435POPI   C1B 6897   0.948   7.995  10.333  0.1901  0.0820 -0.2279
  435POPI   C2B 6898   0.994   7.931   9.883 -0.2111 -0.0488  0.1904
  435POPI   C3B 6899   0.967   8.000   9.415  0.1092 -0.2508  0.1279
  435POPI   C4B 6900   0.720   8.248   9.219  0.0621 -0.1001  0.1409
  436POPI    C1 6901   4.771   8.281  10.290 -0.1244  0.0713 -0.1000
  436POPI    C2 6902   4.845   8.146  10.659  0.0831  0.1055 -0.1277
  436POPI    C3 6903   4.469   8.226  10.546 -0.0293 -0.3119 -0.0651
  436POPI   PO4 6904   4.939   8.443  10.158 -0.1595 -0.0357  0.0299
  436POPI   GL1 6905   5.018   8.578   9.779  0.1687  0.2240  0.0186
  436POPI   GL2 6906   5.184   8.864   9.656 -0.1149 -0.0498 -0.1710
  436POPI   C1A 6907   4.855   8.535   9.357 -0.0952 -0.3197 -0.1004
  436POPI   D2A 6908   4.747   8.624   8.935  0.1359  0.2148  0.1294
  436POPI   C3A 6909   4.752   9.006   8.728  0.0099 -0.2198 -0.1363
  436POPI   C4A 6910   4.951   9.285   8.406  0.1047  0.1415  0.1566
  436POPI   C1B 6911   5.159   8.930   9.192  0.0830  0.1235 -0.1899
  436POPI   C2B 6912   5.218   8.839   8.680  0.1036 -0.1342  0.0801
  436POPI   C3B 6913   4.948   8.508   8.344  0.0664  0.3846 -0.3635
  436POPI   C4B 6914   4.536   8.324   8.120 -0.1406  0.1059  0.0844
  437POPI    C1 6915  12.447  16.921  10.494 -0.1479 -0.2933  0.0466
  437POPI    C2 6916  12.761  17.047  10.708 -0.1833  0.3156 -0.2370
  437POPI    C3 6917  12.405  17.000  10.884 -0.0669  0.1783 -0.0337
  437POPI   PO4 6918  12.556  16.993  10.222 -0.0163  0.0163 -0.0238
  437POPI   GL1 6919  12.769  16.884   9.848 -0.2006  0.2813 -0.1013
  437POPI   GL2 6920  12.806  16.659   9.741  0.3597 -0.0604  0.3484
  437POPI   C1A 6921  13.018  17.129   9.542 -0.0124 -0.3466  0.0966
  437POPI   D2A 6922  12.998  17.201   9.097  0.1543 -0.0423 -0.1086
  437POPI   C3A 6923  12.859  16.972   8.688 -0.0594  0.0906  0.0309
  437POPI   C4A 6924  12.506  16.796   8.458  0.0934 -0.1167  0.0901
  437POPI   C1B 6925  12.957  16.673   9.293 -0.0772 -0.1919  0.2665
  437POPI   C2B 6926  13.001  16.516   8.829  0.1634  0.5111  0.1125
  437POPI   C3B 6927  12.829  16.393   8.509  0.0949  0.0549  0.3569
  437POPI   C4B 6928  12.783  16.089   8.169 -0.1183  0.1847  0.0973
  438POPI    C1 6929  15.001  15.379  10.712  0.0628  0.0436  0.0759
  438POPI    C2 6930  14.917  15.019  10.558 -0.1145  0.0868  0.0687
  438POPI    C3 6931  14.887  15.080  10.952  0.0301  0.0625  0.0841
  438POPI   PO4 6932  15.160  15.450  10.505  0.0840 -0.0027  0.0243
  438POPI   GL1 6933  15.337  15.381  10.111  0.1072  0.2028 -0.1222
  438POPI   GL2 6934  15.257  15.012  10.127  0.0267 -0.0703 -0.0920
  438POPI   C1A 6935  15.480  15.426   9.762 -0.2710  0.0656 -0.0830
  438POPI   D2A 6936  15.657  15.691   9.443 -0.2721 -0.1583  0.0220
  438POPI   C3A 6937  15.476  15.897   9.109 -0.2166 -0.1837  0.2365
  438POPI   C4A 6938  15.445  15.765   8.712  0.2521 -0.2013  0.2862
  438POPI   C1B 6939  14.920  15.100   9.982 -0.0946 -0.1837  0.1517
  438POPI   C2B 6940  14.651  15.318   9.680 -0.1712  0.2168  0.0444
  438POPI   C3B 6941  14.550  15.455   9.199 -0.0415  0.1891  0.1413
  438POPI   C4B 6942  14.450  15.345   8.799  0.1689 -0.2347  0.2305
  439POPI    C1 6943  14.438   5.889  11.028  0.0058  0.0356 -0.0324
  439POPI    C2 6944  14.161   5.994  10.759  0.0102 -0.0473 -0.0695
  439POPI    C3 6945  14.208   6.210  11.093 -0.2332 -0.1460  0.0307
  439POPI   PO4 6946  14.696   5.904  10.896 -0.0129 -0.2207  0.2107
  439POPI   GL1 6947  14.573   5.877  10.457  0.1589  0.1430  0.4290
  439POPI   GL2 6948  14.680   6.085  10.283 -0.1312 -0.1645  0.0223
  439POPI   C1A 6949  14.612   5.493  10.266  0.2250  0.2934  0.0783
  439POPI   D2A 6950  14.702   5.290   9.784  0.0093 -0.0714 -0.2674
  439POPI   C3A 6951  14.745   5.454   9.408  0.0525 -0.2933 -0.0984
  439POPI   C4A 6952  14.646   5.269   9.009  0.4288 -0.1240 -0.1432
  439POPI   C1B 6953  14.733   5.960   9.883 -0.4005 -0.0006  0.0915
  439POPI   C2B 6954  14.825   5.941   9.449 -0.0919  0.0295 -0.0185
  439POPI   C3B 6955  14.797   5.786   8.980  0.1348 -0.0129 -0.0470
  439POPI   C4B 6956  14.887   5.632   8.499  0.0159 -0.3323  0.1722
  440POPI    C1 6957  13.777   4.131  10.785 -0.0928 -0.4332  0.0368
  440POPI    C2 6958  13.802   4.337  11.127 -0.3638 -0.0011 -0.1940
  440POPI    C3 6959  14.134   4.203  10.950 -0.1950  0.0915  0.0468
  440POPI   PO4 6960  13.847   4.220  10.576 -0.1123 -0.2594 -0.3149
  440POPI   GL1 6961  14.085   4.238  10.251 -0.0435 -0.0340 -0.1388
  440POPI   GL2 6962  14.122   4.035  10.120  0.0582 -0.1674  0.1220
  440POPI   C1A 6963  14.492   4.357  10.056 -0.0432 -0.0963 -0.1356
  440POPI   D2A 6964  14.646   4.437   9.626 -0.0896  0.2473  0.2364
  440POPI   C3A 6965  15.083   4.753   9.472 -0.4769 -0.1212  0.0206
  440POPI   C4A 6966  15.057   5.107   9.171 -0.0275  0.3507  0.0920
  440POPI   C1B 6967  14.171   4.247   9.701 -0.1684 -0.0014 -0.1110
  440POPI   C2B 6968  14.259   4.421   9.235 -0.0501  0.2353 -0.1819
  440POPI   C3B 6969  14.305   4.511   8.838  0.0845  0.0841  0.1574
  440POPI   C4B 6970  14.615   4.342   8.538 -0.2738 -0.1132  0.1506
  441POPI    C1 6971   4.807  16.160  10.527 -0.0435 -0.1237  0.1240
  441POPI    C2 6972   4.623  16.230  10.875  0.0953 -0.2673  0.2280
  441POPI    C3 6973   4.975  16.402  10.798 -0.1067  0.0567  0.0036
  441POPI   PO4 6974   4.675  16.297  10.304 -0.1367  0.0378 -0.0289
  441POPI   GL1 6975   4.344  16.539  10.100 -0.1417  0.0314  0.3597
  441POPI   GL2 6976   4.071  16.649  10.090 -0.3298 -0.2290  0.0196
  441POPI   C1A 6977   4.448  16.848   9.858  0.0895 -0.0160  0.0533
  441POPI   D2A 6978   4.711  16.929   9.561  0.1541 -0.0534 -0.1722
  441POPI   C3A 6979   4.672  16.904   9.068  0.4320 -0.0270  0.2027
  441POPI   C4A 6980   4.654  16.657   8.714 -0.0168 -0.2304  0.1081
  441POPI   C1B 6981   4.030  16.385   9.738 -0.1251  0.0898  0.2881
  441POPI   C2B 6982   3.731  16.337   9.369  0.0163  0.1593  0.1281
  441POPI   C3B 6983   3.891  16.348   8.941  0.1228 -0.0211 -0.0979
  441POPI   C4B 6984   4.118  16.245   8.573 -0.1298  0.2276 -0.0947
  442POPI    C1 6985   2.945   2.148  10.495  0.0028  0.0975 -0.0641
  442POPI    C2 6986   3.166   2.059  10.817 -0.0265  0.0352 -0.0612
  442POPI    C3 6987   3.198   2.419  10.646  0.0702  0.0296 -0.0548
  442POPI   PO4 6988   2.902   1.985  10.348 -0.2743  0.0375  0.1256
  442POPI   GL1 6989   3.052   1.775   9.947 -0.0125  0.1293  0.3215
  442POPI   GL2 6990   3.322   1.902   9.887  0.2235 -0.0412 -0.0373
  442POPI   C1A 6991   3.041   1.720   9.458  0.0989 -0.2505 -0.1025
  442POPI   D2A 6992   3.102   1.903   9.111  0.0875 -0.2993 -0.0511
  442POPI   C3A 6993   3.499   2.194   9.029  0.2013  0.0941  0.1757
  442POPI   C4A 6994   3.852   2.393   8.982  0.0998 -0.2454 -0.0144
  442POPI   C1B 6995   3.308   2.199   9.485  0.0529  0.1791 -0.1586
  442POPI   C2B 6996   3.020   2.379   9.079 -0.4003  0.0701  0.2659
  442POPI   C3B 6997   3.009   2.556   8.522  0.0646  0.0680 -0.2514
  442POPI   C4B 6998   2.910   2.371   8.108  0.0666 -0.0173  0.1021
  443POPI    C1 6999   0.051  15.302  10.634 -0.1262  0.1448 -0.0513
  443POPI    C2 7000  -0.245  15.219  10.890 -0.0994 -0.0948 -0.0949
  443POPI    C3 7001  -0.278  15.529  10.639 -0.2284 -0.0037  0.0327
  443POPI   PO4 7002   0.101  15.121  10.436 -0.2047 -0.0727  0.0067
  443POPI   GL1 7003   0.108  14.990  10.084 -0.2141  0.0871 -0.1991
  443POPI   GL2 7004  -0.167  14.925  10.015  0.1890 -0.0572  0.1130
  443POPI   C1A 7005   0.435  14.944   9.763 -0.2831  0.0828  0.0766
  443POPI   D2A 7006   0.576  14.606   9.575  0.3371  0.0197 -0.1542
  443POPI   C3A 7007   0.693  14.586   9.215  0.0829  0.0472  0.0583
  443POPI   C4A 7008   0.774  14.656   8.851 -0.1537  0.1130  0.2568
  443POPI   C1B 7009  -0.040  15.080   9.643 -0.1133  0.2094  0.2451
  443POPI   C2B 7010  -0.173  15.196   9.182 -0.1465  0.0483  0.0011
  443POPI   C3B 7011  -0.438  15.189   8.797  0.0908  0.2437 -0.3158
  443POPI   C4B 7012  -0.828  15.126   8.569 -0.3722 -0.2157 -0.5115
  444POPI    C1 7013   8.998   7.087  10.467 -0.1457 -0.0064 -0.0326
  444POPI    C2 7014   9.089   6.759  10.677 -0.0831 -0.0248 -0.0881
  444POPI    C3 7015   8.726   6.925  10.712 -0.0024  0.0971  0.1976
  444POPI   PO4 7016   9.129   6.968  10.221  0.3152 -0.0583 -0.2174
  444POPI   GL1 7017   9.019   6.817   9.888 -0.1299 -0.1105  0.0341
  444POPI   GL2 7018   8.767   6.679   9.807  0.1065 -0.2214 -0.1294
  444POPI   C1A 7019   9.288   6.892   9.560 -0.2157  0.2675 -0.0102
  444POPI   D2A 7020   9.521   7.190   9.537  0.1296  0.1185 -0.1277
  444POPI   C3A 7021   9.608   7.334   9.108  0.1032  0.0409  0.1747
  444POPI   C4A 7022   9.904   7.309   8.864 -0.0740  0.1873 -0.1436
  444POPI   C1B 7023   8.757   6.760   9.422 -0.3573 -0.0574  0.0121
  444POPI   C2B 7024   8.873   6.746   8.966  0.4324  0.1757  0.2391
  444POPI   C3B 7025   9.103   6.774   8.616  0.0096 -0.0067  0.4264
  444POPI   C4B 7026   9.194   6.870   8.155  0.1147 -0.0403  0.0101
  445POPI    C1 7027   0.056  10.242  10.828  0.0817 -0.2228  0.3333
  445POPI    C2 7028   0.438  10.206  10.714 -0.0115 -0.0464 -0.0506
  445POPI    C3 7029   0.206   9.881  10.742  0.1762 -0.1601  0.2333
  445POPI   PO4 7030  -0.042  10.467  10.588  0.2507 -0.1229  0.0242
  445POPI   GL1 7031   0.172  10.416  10.372  0.0552  0.2381 -0.0826
  445POPI   GL2 7032   0.265  10.786  10.344 -0.1634 -0.0290 -0.1994
  445POPI   C1A 7033   0.262  10.295   9.917  0.0559  0.2213 -0.0610
  445POPI   D2A 7034   0.267  10.240   9.395 -0.1728  0.1627 -0.2670
  445POPI   C3A 7035   0.289  10.361   9.000 -0.0708 -0.1091 -0.2108
  445POPI   C4A 7036   0.525  10.315   8.591  0.3187  0.3687  0.0424
  445POPI   C1B 7037   0.158  10.781   9.856 -0.1781 -0.1915 -0.1540
  445POPI   C2B 7038   0.340  10.782   9.344 -0.2157 -0.0503  0.0887
  445POPI   C3B 7039   0.331  10.894   8.920 -0.0872 -0.1984  0.1091
  445POPI   C4B 7040   0.311  10.829   8.512 -0.0530 -0.1788 -0.3106
  446POPI    C1 7041   4.015   4.178  10.729  0.0695  0.2010  0.0776
  446POPI    C2 7042   3.875   4.538  10.833 -0.1029  0.1507  0.0233
  446POPI    C3 7043   4.037   4.300  11.110 -0.1731  0.1887  0.0978
  446POPI   PO4 7044   3.928   4.127  10.426 -0.1881  0.2516 -0.3682
  446POPI   GL1 7045   3.621   3.961  10.077  0.2598  0.0302 -0.0554
  446POPI   GL2 7046   3.574   4.242  10.082 -0.3256 -0.0537  0.1465
  446POPI   C1A 7047   3.462   3.877   9.720 -0.3370 -0.0844  0.2120
  446POPI   D2A 7048   3.214   4.119   9.281 -0.1044  0.1498 -0.1035
  446POPI   C3A 7049   2.824   4.112   9.090 -0.1759 -0.0392 -0.0598
  446POPI   C4A 7050   2.606   3.887   8.728  0.1025  0.3926  0.2319
  446POPI   C1B 7051   3.724   4.591   9.806 -0.2212  0.1065 -0.1476
  446POPI   C2B 7052   3.932   4.614   9.262 -0.2046 -0.1441 -0.0701
  446POPI   C3B 7053   4.029   4.505   8.909 -0.0511 -0.0046  0.0474
  446POPI   C4B 7054   4.046   4.299   8.482  0.3406 -0.0600 -0.2180
  447POPI    C1 7055   6.607  10.420   9.890  0.3137 -0.0363 -0.1173
  447POPI    C2 7056   6.961  10.385  10.073  0.2076 -0.0897  0.0809
  447POPI    C3 7057   6.676  10.112  10.136  0.1050 -0.0069 -0.0203
  447POPI   PO4 7058   6.636  10.434   9.671 -0.0196 -0.3670  0.0129
  447POPI   GL1 7059   6.656  10.300   9.294 -0.0279  0.0080 -0.1203
  447POPI   GL2 7060   6.333  10.207   9.277  0.1629  0.4021  0.2350
  447POPI   C1A 7061   6.945  10.667   9.031  0.0651  0.0311 -0.1628
  447POPI   D2A 7062   6.946  10.623   8.605 -0.3729  0.1161 -0.0134
  447POPI   C3A 7063   7.399  10.671   8.414 -0.1547 -0.1738 -0.3222
  447POPI   C4A 7064   7.780  10.773   8.214  0.0527 -0.0712 -0.0567
  447POPI   C1B 7065   6.359  10.123   8.859  0.0033 -0.3221 -0.0365
  447POPI   C2B 7066   6.319  10.182   8.370  0.2327 -0.1089  0.1173
  447POPI   C3B 7067   6.158  10.570   8.113  0.2469 -0.1424 -0.1970
  447POPI   C4B 7068   5.767  10.601   7.743  0.1109 -0.0501  0.1031
  448POPI    C1 7069  12.778   4.540  10.529  0.1463  0.0410 -0.0209
  448POPI    C2 7070  12.980   4.521  10.874  0.0061  0.1095  0.0659
  448POPI    C3 7071  12.629   4.713  10.858  0.0951  0.2585 -0.1562
  448POPI   PO4 7072  12.871   4.290  10.393  0.1300  0.4816 -0.1268
  448POPI   GL1 7073  13.086   4.141  10.023  0.0858 -0.2376 -0.3008
  448POPI   GL2 7074  13.084   4.370   9.723  0.5330  0.0266  0.2481
  448POPI   C1A 7075  13.123   3.808   9.660  0.1656 -0.0870  0.2119
  448POPI   D2A 7076  13.162   3.900   9.211  0.0243 -0.0979 -0.0348
  448POPI   C3A 7077  13.393   3.922   8.868  0.1411 -0.0992 -0.1082
  448POPI   C4A 7078  13.819   3.697   8.726  0.1106 -0.2098  0.1591
  448POPI   C1B 7079  13.139   4.426   9.359  0.3607  0.1174  0.0300
  448POPI   C2B 7080  13.171   4.359   9.061  0.1696  0.0032  0.0128
  448POPI   C3B 7081  13.341   4.457   8.659 -0.1948 -0.0497  0.1208
  448POPI   C4B 7082  13.656   4.802   8.433 -0.3182  0.0832 -0.0087
  449POPI    C1 7083   4.790   9.011  10.372 -0.0810  0.0365 -0.1386
  449POPI    C2 7084   4.815   8.683  10.599 -0.0019  0.1597  0.0326
  449POPI    C3 7085   4.647   9.015  10.745  0.0604  0.2435 -0.0851
  449POPI   PO4 7086   4.843   8.939  10.095  0.2360  0.0057 -0.3679
  449POPI   GL1 7087   4.584   9.040   9.781 -0.3311 -0.0043 -0.0702
  449POPI   GL2 7088   4.485   8.804   9.575 -0.0021 -0.2555  0.3372
  449POPI   C1A 7089   4.452   9.351   9.582 -0.2869 -0.3069  0.2254
  449POPI   D2A 7090   4.354   9.513   9.113  0.0205  0.3067  0.0638
  449POPI   C3A 7091   4.666   9.481   8.819 -0.0354  0.0584  0.2136
  449POPI   C4A 7092   5.020   9.782   8.664  0.2801  0.3164  0.0230
  449POPI   C1B 7093   4.584   9.042   9.239 -0.2142 -0.0298  0.0374
  449POPI   C2B 7094   4.282   9.029   8.842  0.1220 -0.0288 -0.1971
  449POPI   C3B 7095   3.947   8.965   8.523 -0.0806  0.3931 -0.0898
  449POPI   C4B 7096   3.790   9.210   8.224 -0.2085  0.0871  0.2323
  450POPI    C1 7097   4.495  13.086  10.116 -0.0007  0.1923  0.2018
  450POPI    C2 7098   4.141  12.965  10.259  0.0737 -0.0696  0.1707
  450POPI    C3 7099   4.165  13.125   9.893 -0.0227  0.0186  0.2024
  450POPI   PO4 7100   4.627  12.864  10.186  0.0201  0.1584  0.1554
  450POPI   GL1 7101   4.842  12.644   9.812 -0.0594 -0.1123 -0.2110
  450POPI   GL2 7102   4.872  13.041   9.779  0.0254 -0.1842  0.3387
  450POPI   C1A 7103   4.484  12.749   9.590 -0.1560  0.0260  0.0772
  450POPI   D2A 7104   4.213  12.910   9.375 -0.1443  0.2479 -0.2524
  450POPI   C3A 7105   4.252  12.962   8.964 -0.1060 -0.3706  0.2135
  450POPI   C4A 7106   4.309  12.919   8.527 -0.1586  0.0163  0.1359
  450POPI   C1B 7107   4.791  13.171   9.365 -0.0228  0.1417  0.0379
  450POPI   C2B 7108   4.727  13.256   8.855 -0.3565 -0.0014 -0.0869
  450POPI   C3B 7109   4.742  13.241   8.364 -0.1113  0.3162  0.0526
  450POPI   C4B 7110   4.477  13.192   8.025  0.1300  0.3237 -0.3929
  451POPI    C1 7111  17.983  14.632  10.555 -0.1453  0.0044 -0.3743
  451POPI    C2 7112  17.801  14.984  10.501 -0.1442  0.0724  0.0341
  451POPI    C3 7113  17.726  14.769  10.830  0.0498 -0.1897 -0.0900
  451POPI   PO4 7114  18.202  14.631  10.435  0.1816  0.0722 -0.0725
  451POPI   GL1 7115  18.482  14.563  10.160  0.2147  0.2075  0.0360
  451POPI   GL2 7116  18.707  14.367  10.172 -0.1655  0.2385  0.0151
  451POPI   C1A 7117  18.281  14.600   9.742  0.0396  0.0738 -0.0945
  451POPI   D2A 7118  18.026  14.640   9.438 -0.3765  0.1723 -0.1730
  451POPI   C3A 7119  18.083  14.740   8.994  0.2463 -0.2559  0.1470
  451POPI   C4A 7120  18.543  14.792   8.847 -0.0035  0.1026 -0.3625
  451POPI   C1B 7121  18.743  14.119   9.883 -0.0123 -0.4013  0.0110
  451POPI   C2B 7122  18.634  14.066   9.430 -0.2258 -0.1965  0.4616
  451POPI   C3B 7123  18.424  14.394   9.148 -0.2679  0.0826 -0.1279
  451POPI   C4B 7124  18.476  14.915   9.289  0.0894  0.2817 -0.2170
  452POPI    C1 7125   9.863  16.571  10.811  0.1488 -0.1254  0.1883
  452POPI    C2 7126  10.123  16.875  10.819 -0.0525  0.0510  0.1159
  452POPI    C3 7127   9.748  16.928  10.948 -0.1147 -0.1426  0.0206
  452POPI   PO4 7128   9.854  16.405  10.639  0.0310 -0.2423  0.0725
  452POPI   GL1 7129   9.584  16.403  10.304 -0.3530 -0.0254 -0.0747
  452POPI   GL2 7130   9.855  16.476  10.112 -0.1614 -0.1284  0.1414
  452POPI   C1A 7131   9.446  16.405   9.871 -0.0114  0.3763  0.0087
  452POPI   D2A 7132   9.397  16.180   9.543 -0.2117 -0.1307  0.3610
  452POPI   C3A 7133   9.520  16.362   9.170  0.3789 -0.0281  0.4064
  452POPI   C4A 7134   9.290  16.573   8.882 -0.0137 -0.1679 -0.0503
  452POPI   C1B 7135   9.904  16.370   9.605  0.2716 -0.1044 -0.1665
  452POPI   C2B 7136  10.031  16.375   9.250  0.1555  0.3682  0.3237
  452POPI   C3B 7137   9.853  16.234   8.809 -0.3715 -0.0919  0.0892
  452POPI   C4B 7138  10.036  16.165   8.341 -0.1333 -0.1096  0.0989
  453POPI    C1 7139  13.069  13.700  10.382  0.2041  0.0927  0.0404
  453POPI    C2 7140  13.244  13.586  10.724 -0.2043  0.2425  0.3080
  453POPI    C3 7141  13.085  13.312  10.479 -0.1472  0.1537  0.3697
  453POPI   PO4 7142  13.235  13.868  10.303  0.3115 -0.2035  0.0643
  453POPI   GL1 7143  13.308  13.919   9.891  0.1385  0.0975 -0.0252
  453POPI   GL2 7144  12.933  13.917   9.786  0.1846 -0.2125  0.0739
  453POPI   C1A 7145  13.685  13.809   9.743 -0.3288 -0.0928 -0.1825
  453POPI   D2A 7146  14.140  13.824   9.621  0.1020 -0.1494  0.2289
  453POPI   C3A 7147  14.344  14.035   9.256  0.2130  0.1006  0.1286
  453POPI   C4A 7148  14.369  14.383   8.931 -0.1886  0.1637  0.0484
  453POPI   C1B 7149  12.853  14.061   9.408  0.0851 -0.1003  0.1840
  453POPI   C2B 7150  12.777  14.225   8.952  0.1818 -0.4190  0.1274
  453POPI   C3B 7151  12.652  14.238   8.552 -0.3519  0.1193 -0.2359
  453POPI   C4B 7152  12.457  14.323   8.104  0.0251  0.1800  0.2442
  454POPI    C1 7153   4.021  12.438  10.298 -0.2404 -0.0504 -0.3647
  454POPI    C2 7154   4.182  12.541   9.947 -0.0514 -0.1515 -0.3094
  454POPI    C3 7155   4.413  12.390  10.236 -0.1623  0.1571 -0.0533
  454POPI   PO4 7156   3.808  12.322  10.218  0.1581  0.0029 -0.1074
  454POPI   GL1 7157   3.751  12.235   9.862  0.1963  0.0561  0.0530
  454POPI   GL2 7158   3.456  12.101   9.886  0.0296  0.0355  0.2313
  454POPI   C1A 7159   3.998  12.421   9.473  0.0209 -0.2781  0.1057
  454POPI   D2A 7160   4.229  12.393   9.017  0.3529 -0.2948  0.0771
  454POPI   C3A 7161   4.653  12.231   8.863 -0.3346  0.1933 -0.0682
  454POPI   C4A 7162   4.809  12.091   8.490 -0.0468  0.0059 -0.3708
  454POPI   C1B 7163   3.139  12.085   9.573 -0.1405 -0.3294 -0.0693
  454POPI   C2B 7164   3.079  12.050   9.132 -0.0234  0.3562 -0.0858
  454POPI   C3B 7165   3.072  12.061   8.656 -0.2823  0.1437 -0.4552
  454POPI   C4B 7166   3.011  12.145   8.289  0.0457 -0.2524  0.2088
  455POPI    C1 7167  11.484   4.743  10.232  0.2102 -0.1810  0.1627
  455POPI    C2 7168  11.268   4.687  10.564 -0.1669 -0.2374 -0.0861
  455POPI    C3 7169  11.581   4.935  10.570 -0.2367 -0.1512  0.2811
  455POPI   PO4 7170  11.460   4.510  10.163 -0.0142  0.1997 -0.1333
  455POPI   GL1 7171  11.732   4.344   9.948  0.0888 -0.1870  0.0487
  455POPI   GL2 7172  11.965   4.321  10.180  0.2046  0.0153  0.1784
  455POPI   C1A 7173  11.794   4.218   9.573 -0.0241  0.2648  0.0011
  455POPI   D2A 7174  11.781   4.185   9.088  0.0124  0.1576 -0.1271
  455POPI   C3A 7175  11.937   4.065   8.729  0.1089  0.1134  0.1741
  455POPI   C4A 7176  12.149   3.891   8.346  0.5680  0.0706  0.0710
  455POPI   C1B 7177  12.176   4.454   9.775  0.1598 -0.1179 -0.3814
  455POPI   C2B 7178  12.170   4.425   9.354  0.0309 -0.4631 -0.0624
  455POPI   C3B 7179  12.314   4.309   8.918  0.0218  0.1051  0.2285
  455POPI   C4B 7180  12.282   4.342   8.471 -0.3161 -0.0379 -0.1520
  456POPI    C1 7181   8.837   4.756  10.376  0.0222 -0.0769 -0.0339
  456POPI    C2 7182   8.529   4.929  10.188 -0.0159  0.0403  0.1344
  456POPI    C3 7183   8.474   4.753  10.543  0.0743 -0.1008  0.0795
  456POPI   PO4 7184   8.894   4.588  10.160  0.0872 -0.0710  0.2932
  456POPI   GL1 7185   8.893   4.727   9.661 -0.1296  0.0546 -0.1991
  456POPI   GL2 7186   8.650   4.752   9.743  0.0364 -0.2200  0.0819
  456POPI   C1A 7187   8.718   4.335   9.449  0.3343 -0.1158  0.3099
  456POPI   D2A 7188   8.634   3.928   9.511  0.2016  0.0086  0.0848
  456POPI   C3A 7189   8.746   3.823   9.165  0.0001  0.2195 -0.4585
  456POPI   C4A 7190   8.926   3.798   8.760  0.1140 -0.0706 -0.2156
  456POPI   C1B 7191   8.534   4.880   9.334 -0.3059  0.2646  0.0885
  456POPI   C2B 7192   8.791   4.867   9.066 -0.0767  0.1291  0.1138
  456POPI   C3B 7193   9.117   4.864   8.734 -0.1078  0.2770  0.1441
  456POPI   C4B 7194   9.476   4.986   8.668 -0.0190 -0.2758 -0.0372
  457POPI    C1 7195  17.622   3.302  11.537 -0.2144 -0.2505 -0.0180
  457POPI    C2 7196  17.842   3.048  11.754  0.0125  0.0058  0.0574
  457POPI    C3 7197  17.554   3.264  11.929  0.1047  0.1124  0.0783
  457POPI   PO4 7198  17.482   3.109  11.282  0.0188 -0.1823  0.1012
  457POPI   GL1 7199  17.488   3.065  10.845  0.0226  0.2091  0.1798
  457POPI   GL2 7200  17.417   3.359  10.729  0.2521 -0.0013 -0.2108
  457POPI   C1A 7201  17.400   2.856  10.452  0.3749  0.0423 -0.5243
  457POPI   D2A 7202  17.429   2.750   9.989 -0.0733  0.1686  0.1124
  457POPI   C3A 7203  17.352   2.670   9.645 -0.0293 -0.0349 -0.1879
  457POPI   C4A 7204  17.427   2.693   9.167 -0.1773 -0.1892  0.0585
  457POPI   C1B 7205  17.548   3.311  10.371  0.1840  0.0481  0.0192
  457POPI   C2B 7206  17.578   3.196   9.909 -0.0478 -0.2803 -0.0241
  457POPI   C3B 7207  17.542   3.119   9.581  0.1060  0.1842  0.0368
  457POPI   C4B 7208  17.636   3.182   9.223  0.1177  0.0561  0.2790
  458POPI    C1 7209  12.476  13.222   9.999 -0.0728 -0.0920  0.1705
  458POPI    C2 7210  12.225  13.510  10.118 -0.1591 -0.1994  0.2493
  458POPI    C3 7211  12.609  13.521  10.229 -0.1460 -0.0769  0.1932
  458POPI   PO4 7212  12.328  12.924  10.037  0.3220  0.2102  0.0174
  458POPI   GL1 7213  12.073  12.623   9.647  0.0383  0.0344 -0.3924
  458POPI   GL2 7214  12.140  12.918   9.552 -0.0574  0.0438  0.1953
  458POPI   C1A 7215  11.673  12.570   9.551 -0.3353  0.2532 -0.2359
  458POPI   D2A 7216  11.292  12.619   9.294 -0.0574  0.0896  0.4985
  458POPI   C3A 7217  11.162  12.440   8.965 -0.0725  0.2945  0.0444
  458POPI   C4A 7218  11.284  12.076   8.681  0.1199  0.0764  0.0723
  458POPI   C1B 7219  11.962  12.678   9.167 -0.3315 -0.0842  0.0512
  458POPI   C2B 7220  11.976  12.639   8.643 -0.2132 -0.0132  0.2358
  458POPI   C3B 7221  12.335  12.536   8.356 -0.2583  0.1864  0.1003
  458POPI   C4B 7222  12.583  12.436   8.081 -0.0107  0.2460 -0.0519
  459POPI    C1 7223  11.515   7.360  10.862  0.0141  0.0333 -0.0434
  459POPI    C2 7224  11.903   7.267  10.884 -0.0501 -0.1805  0.2565
  459POPI    C3 7225  11.783   7.641  10.956  0.1405 -0.0070 -0.2767
  459POPI   PO4 7226  11.429   7.283  10.577  0.4128 -0.4905 -0.1423
  459POPI   GL1 7227  11.265   7.352  10.219 -0.2343 -0.1374  0.0737
  459POPI   GL2 7228  11.261   7.184   9.950  0.1484  0.1137  0.0216
  459POPI   C1A 7229  11.492   7.646  10.007 -0.1679  0.0990 -0.0681
  459POPI   D2A 7230  11.631   7.754   9.635 -0.0010  0.4006  0.0214
  459POPI   C3A 7231  11.672   7.767   9.196 -0.1356  0.0934 -0.1048
  459POPI   C4A 7232  11.898   7.846   8.742 -0.3434  0.0578  0.3347
  459POPI   C1B 7233  11.275   7.368   9.479 -0.1508  0.0008 -0.0079
  459POPI   C2B 7234  11.231   7.555   9.091 -0.1298 -0.2036 -0.1502
  459POPI   C3B 7235  11.132   7.428   8.669  0.1173 -0.0161 -0.1603
  459POPI   C4B 7236  11.225   7.009   8.376  0.0771 -0.1814  0.2628
  460POPI    C1 7237  10.148   8.984  10.858 -0.2124  0.1040  0.0226
  460POPI    C2 7238  10.182   8.660  11.089 -0.0732 -0.1875 -0.3951
  460POPI    C3 7239  10.256   9.022  11.241  0.0398 -0.3734  0.0066
  460POPI   PO4 7240  10.203   8.788  10.614 -0.0791  0.2542  0.0635
  460POPI   GL1 7241  10.356   8.832  10.170  0.0020  0.1986 -0.2559
  460POPI   GL2 7242  10.638   8.866  10.012  0.0448  0.0199 -0.1027
  460POPI   C1A 7243  10.297   9.030   9.646  0.2467  0.1612 -0.3531
  460POPI   D2A 7244  10.524   9.210   9.202 -0.1760 -0.0714 -0.1163
  460POPI   C3A 7245  10.293   9.149   8.726  0.1191  0.0657 -0.0555
  460POPI   C4A 7246  10.281   9.035   8.379 -0.1456 -0.4302  0.2191
  460POPI   C1B 7247  10.783   9.066   9.643  0.2046  0.1328 -0.2402
  460POPI   C2B 7248  11.304   9.164   9.604  0.0274 -0.1917  0.1727
  460POPI   C3B 7249  11.387   9.196   9.158 -0.0350  0.0617  0.0096
  460POPI   C4B 7250  11.254   9.464   8.883 -0.1834  0.1711  0.1068
  461POPI    C1 7251  18.099  13.011  10.670 -0.1283  0.0430 -0.1097
  461POPI    C2 7252  18.007  13.271  10.961 -0.0457  0.0834 -0.1192
  461POPI    C3 7253  18.117  12.898  11.053  0.1240  0.1396 -0.0910
  461POPI   PO4 7254  17.955  13.131  10.418  0.0785 -0.2312 -0.0192
  461POPI   GL1 7255  17.958  13.125  10.048 -0.1221 -0.1713 -0.0086
  461POPI   GL2 7256  17.703  13.393  10.076 -0.2073  0.1532  0.0997
  461POPI   C1A 7257  17.947  12.891   9.643  0.1302 -0.0655 -0.0771
  461POPI   D2A 7258  18.076  12.776   9.174 -0.1918  0.1129  0.1504
  461POPI   C3A 7259  18.299  13.008   8.776  0.0543 -0.1077 -0.0962
  461POPI   C4A 7260  18.451  13.111   8.380  0.2855 -0.0400 -0.0095
  461POPI   C1B 7261  17.648  13.292   9.624 -0.1042  0.0304  0.1296
  461POPI   C2B 7262  17.673  13.145   9.249  0.0172  0.0534 -0.2087
  461POPI   C3B 7263  17.766  12.973   8.852 -0.1672 -0.0771 -0.3292
  461POPI   C4B 7264  17.478  12.947   8.448 -0.1612  0.2048  0.0213
  462POPI    C1 7265   6.558   0.204  10.726  0.0728  0.1113 -0.2378
  462POPI    C2 7266   6.686  -0.170  10.661 -0.0160  0.0388 -0.0074
  462POPI    C3 7267   6.404  -0.100  10.936  0.0771  0.2894  0.0275
  462POPI   PO4 7268   6.695   0.309  10.448 -0.0562 -0.2712  0.2250
  462POPI   GL1 7269   6.888   0.512  10.071  0.1710  0.3159  0.1215
  462POPI   GL2 7270   6.941   0.262   9.894 -0.0738  0.3107 -0.2276
  462POPI   C1A 7271   6.667   0.644   9.648 -0.1831 -0.1712  0.1783
  462POPI   D2A 7272   6.516   0.539   9.232  0.1207  0.4481 -0.1516
  462POPI   C3A 7273   6.369   0.817   9.032  0.2962  0.0803 -0.1541
  462POPI   C4A 7274   6.508   1.049   8.653  0.0583 -0.1554  0.2101
  462POPI   C1B 7275   6.902   0.238   9.426  0.1824  0.0304  0.0280
  462POPI   C2B 7276   6.849   0.147   8.972 -0.1387 -0.1725  0.1394
  462POPI   C3B 7277   6.808   0.134   8.536 -0.2488  0.0924  0.0493
  462POPI   C4B 7278   7.038   0.243   8.075  0.1566 -0.1393 -0.3139
  463POPI    C1 7279   8.598   9.737  10.496 -0.0322  0.0204 -0.0390
  463POPI    C2 7280   8.728   9.581  10.841 -0.3140 -0.3111 -0.0786
  463POPI    C3 7281   8.421   9.838  10.841 -0.1428 -0.1040 -0.0591
  463POPI   PO4 7282   8.749   9.581  10.345 -0.1855 -0.0085  0.1754
  463POPI   GL1 7283   8.914   9.547   9.984 -0.0034 -0.1903 -0.2383
  463POPI   GL2 7284   9.067   9.761  10.004 -0.2175 -0.2052  0.0643
  463POPI   C1A 7285   8.962   9.603   9.538  0.1847 -0.0248  0.2751
  463POPI   D2A 7286   8.847   9.883   9.181  0.3811 -0.0223 -0.2714
  463POPI   C3A 7287   8.636   9.956   8.816  0.2115 -0.0621  0.0406
  463POPI   C4A 7288   8.246  10.073   8.638 -0.2002 -0.1469 -0.2792
  463POPI   C1B 7289   8.951  10.143   9.692  0.1966  0.0949  0.2056
  463POPI   C2B 7290   8.730  10.406   9.362 -0.1564 -0.0578 -0.2429
  463POPI   C3B 7291   8.622  10.433   8.992 -0.3682 -0.2690  0.2370
  463POPI   C4B 7292   8.396  10.525   8.657 -0.4198 -0.2355 -0.2181
  464POPI    C1 7293  11.242   2.229  10.605 -0.0032 -0.1333  0.0267
  464POPI    C2 7294  11.143   2.606  10.697 -0.0646 -0.1370 -0.0238
  464POPI    C3 7295  11.498   2.460  10.808 -0.0742 -0.0907  0.0684
  464POPI   PO4 7296  11.189   2.119  10.254  0.1028 -0.0204 -0.2485
  464POPI   GL1 7297  11.410   1.929   9.840 -0.0509  0.0480 -0.0176
  464POPI   GL2 7298  11.245   1.728   9.667 -0.2331  0.1266  0.0879
  464POPI   C1A 7299  11.678   2.070   9.550 -0.0042  0.1755 -0.1494
  464POPI   D2A 7300  11.758   2.082   9.122  0.0044 -0.0570 -0.0840
  464POPI   C3A 7301  11.833   1.898   8.727  0.4588  0.0828  0.0052
  464POPI   C4A 7302  11.832   1.793   8.332 -0.4416  0.1006 -0.1179
  464POPI   C1B 7303  11.292   1.879   9.340 -0.0222  0.1881  0.1812
  464POPI   C2B 7304  11.371   1.795   8.896  0.0410 -0.1765  0.4210
  464POPI   C3B 7305  11.256   1.827   8.477 -0.2372  0.3521 -0.0597
  464POPI   C4B 7306  11.049   1.880   8.123 -0.1148  0.0851 -0.0068
  465POPI    C1 7307  16.884  10.038  10.757  0.0729 -0.1500  0.0176
  465POPI    C2 7308  17.028   9.959  11.121  0.3035  0.0125 -0.0364
  465POPI    C3 7309  17.008   9.669  10.847  0.1474 -0.1058  0.0984
  465POPI   PO4 7310  16.641  10.160  10.737 -0.0797  0.0193  0.0035
  465POPI   GL1 7311  16.480  10.142  10.352 -0.0555 -0.2553 -0.0536
  465POPI   GL2 7312  16.168  10.423  10.349 -0.0876  0.0391 -0.2163
  465POPI   C1A 7313  16.472  10.337   9.975  0.4146 -0.0020 -0.0650
  465POPI   D2A 7314  16.597  10.251   9.466  0.0089  0.0449  0.0252
  465POPI   C3A 7315  16.511  10.373   8.989 -0.0421 -0.1458  0.0373
  465POPI   C4A 7316  16.329  10.515   8.635 -0.0115  0.1706  0.1673
  465POPI   C1B 7317  15.832  10.557  10.052  0.1723 -0.2599  0.0682
  465POPI   C2B 7318  15.556  10.598   9.697 -0.4333 -0.0624 -0.0060
  465POPI   C3B 7319  15.637  10.549   9.242 -0.1092  0.2100 -0.2635
  465POPI   C4B 7320  15.628  10.255   8.888 -0.1258 -0.2964 -0.1678
  466POPI    C1 7321   9.161   4.054  10.161 -0.0382 -0.1625  0.0776
  466POPI    C2 7322   8.859   4.115   9.906  0.1419 -0.1282 -0.1312
  466POPI    C3 7323   9.202   4.316   9.861  0.1111  0.0195  0.2542
  466POPI   PO4 7324   9.186   3.849  10.182 -0.0492  0.1878 -0.3124
  466POPI   GL1 7325   9.085   3.624   9.877 -0.1784  0.0911 -0.1587
  466POPI   GL2 7326   9.359   3.467   9.734 -0.1282  0.3633 -0.0587
  466POPI   C1A 7327   8.801   3.510   9.553 -0.0511  0.0565  0.4086
  466POPI   D2A 7328   8.623   3.320   9.156  0.2648 -0.0826 -0.3412
  466POPI   C3A 7329   8.729   3.329   8.666  0.1869  0.1273 -0.3619
  466POPI   C4A 7330   8.836   3.477   8.321 -0.2665 -0.1083 -0.0691
  466POPI   C1B 7331   9.265   3.479   9.362  0.0711  0.1886 -0.1512
  466POPI   C2B 7332   9.274   3.548   9.006 -0.2668 -0.3399 -0.3804
  466POPI   C3B 7333   9.321   3.490   8.592  0.0973  0.2854  0.0414
  466POPI   C4B 7334   9.331   3.292   8.157  0.3240 -0.3017 -0.1037
  467POPI    C1 7335  11.123  17.743  10.619  0.0237 -0.0269  0.0024
  467POPI    C2 7336  10.865  17.582  10.879  0.0231  0.0343  0.0397
  467POPI    C3 7337  10.843  17.972  10.791  0.0224  0.0133 -0.0529
  467POPI   PO4 7338  11.238  17.481  10.451 -0.0018 -0.0624  0.3071
  467POPI   GL1 7339  11.152  17.191  10.109 -0.0078 -0.0001  0.1291
  467POPI   GL2 7340  11.165  16.900  10.187  0.2869  0.1049 -0.0894
  467POPI   C1A 7341  11.103  17.402   9.790 -0.3997  0.1177 -0.0856
  467POPI   D2A 7342  11.018  17.669   9.549 -0.1744 -0.3847 -0.0347
  467POPI   C3A 7343  11.022  17.625   9.112  0.0562  0.0925 -0.0592
  467POPI   C4A 7344  10.985  17.733   8.667 -0.1862 -0.2770 -0.2036
  467POPI   C1B 7345  11.061  16.911   9.690  0.0560  0.0313  0.1521
  467POPI   C2B 7346  11.033  17.167   9.332  0.0227  0.1989 -0.2976
  467POPI   C3B 7347  11.019  17.265   8.798 -0.1399  0.1045  0.2940
  467POPI   C4B 7348  10.984  17.309   8.318  0.3417  0.0782 -0.0059
  468POPI    C1 7349   8.347  16.977  10.731 -0.2532 -0.2456 -0.1706
  468POPI    C2 7350   8.515  16.635  10.856  0.0306  0.0246  0.2102
  468POPI    C3 7351   8.401  16.912  11.122 -0.2712  0.1963 -0.0896
  468POPI   PO4 7352   8.369  16.907  10.463  0.1753 -0.2858  0.1201
  468POPI   GL1 7353   8.335  16.740  10.026  0.3720 -0.0115 -0.0082
  468POPI   GL2 7354   8.554  16.777   9.720  0.1002 -0.0819  0.3027
  468POPI   C1A 7355   8.098  16.700   9.588 -0.1223  0.0664  0.2336
  468POPI   D2A 7356   8.033  16.859   9.273 -0.1956 -0.3291  0.1077
  468POPI   C3A 7357   7.892  16.692   8.866 -0.1850  0.0250 -0.1373
  468POPI   C4A 7358   7.633  16.600   8.496 -0.0351  0.2221  0.2753
  468POPI   C1B 7359   8.595  16.871   9.337  0.0963 -0.2562  0.1481
  468POPI   C2B 7360   8.399  16.919   8.906  0.1082  0.2738 -0.0919
  468POPI   C3B 7361   8.210  16.947   8.514  0.0096 -0.0355  0.0004
  468POPI   C4B 7362   8.535  16.823   8.076 -0.0422  0.1152  0.0351
  469POPI    C1 7363  15.116   8.698  10.802  0.0563  0.1134  0.0794
  469POPI    C2 7364  14.797   8.695  11.043  0.1167 -0.2439  0.1610
  469POPI    C3 7365  15.104   8.941  11.119 -0.0657 -0.0176  0.1761
  469POPI   PO4 7366  15.127   8.496  10.611 -0.0012 -0.0761 -0.0094
  469POPI   GL1 7367  15.214   8.542  10.180 -0.1379 -0.0686  0.0351
  469POPI   GL2 7368  15.364   8.856  10.357 -0.0249  0.2938  0.0392
  469POPI   C1A 7369  15.037   8.499   9.684  0.1882  0.3003 -0.1529
  469POPI   D2A 7370  14.987   8.445   9.264 -0.1254 -0.2906 -0.1198
  469POPI   C3A 7371  15.181   8.599   8.867  0.2812 -0.2036 -0.1760
  469POPI   C4A 7372  15.046   8.804   8.465 -0.1302 -0.3694  0.0869
  469POPI   C1B 7373  15.431   9.037  10.041  0.0566 -0.1398 -0.1246
  469POPI   C2B 7374  15.311   8.939   9.691 -0.1200  0.1287  0.0003
  469POPI   C3B 7375  15.168   9.071   9.200  0.1570  0.1270 -0.0885
  469POPI   C4B 7376  15.233   9.093   8.824  0.4660 -0.0336  0.1624
  470POPI    C1 7377   9.313   4.881  10.409 -0.0606  0.1118  0.1631
  470POPI    C2 7378   9.237   4.498  10.494 -0.0843  0.0735 -0.0283
  470POPI    C3 7379   9.548   4.682  10.664 -0.0370 -0.0484  0.0179
  470POPI   PO4 7380   9.403   4.906  10.116 -0.1274 -0.2666 -0.3391
  470POPI   GL1 7381   9.384   4.957   9.729 -0.0126  0.1492  0.2860
  470POPI   GL2 7382   9.547   4.680   9.653  0.1482 -0.1502  0.5685
  470POPI   C1A 7383   9.244   4.813   9.274  0.1327  0.1204  0.0426
  470POPI   D2A 7384   9.450   4.490   8.918  0.0423  0.2479 -0.1173
  470POPI   C3A 7385   9.326   4.401   8.576 -0.0556 -0.4147 -0.0414
  470POPI   C4A 7386   9.284   4.287   8.188 -0.3248 -0.1523 -0.3273
  470POPI   C1B 7387   9.682   4.462   9.313  0.3508 -0.1886  0.2125
  470POPI   C2B 7388   9.865   4.230   8.991 -0.0495 -0.0846  0.1216
  470POPI   C3B 7389   9.865   4.297   8.579 -0.3091 -0.1899 -0.0173
  470POPI   C4B 7390   9.867   4.333   8.195  0.4383 -0.0179 -0.0492
  471POPI    C1 7391  12.015   5.371  10.888 -0.2112  0.0227 -0.0322
  471POPI    C2 7392  11.881   5.350  11.265 -0.0471  0.0535  0.0285
  471POPI    C3 7393  11.630   5.289  10.960 -0.2121  0.1704  0.1394
  471POPI   PO4 7394  12.110   5.598  10.824 -0.1062 -0.2261  0.0575
  471POPI   GL1 7395  12.433   5.716  10.447  0.2734  0.0748  0.2918
  471POPI   GL2 7396  12.226   5.827  10.185 -0.0480  0.1657  0.0280
  471POPI   C1A 7397  12.699   5.756  10.079  0.3286  0.1444  0.1569
  471POPI   D2A 7398  12.801   5.539   9.645 -0.0439  0.0321 -0.0731
  471POPI   C3A 7399  12.715   5.626   9.144  0.1040 -0.3017 -0.0149
  471POPI   C4A 7400  12.977   5.379   8.870 -0.1800 -0.0492  0.0826
  471POPI   C1B 7401  12.345   5.963   9.729  0.1372  0.2362  0.1484
  471POPI   C2B 7402  12.462   6.333   9.468  0.4467  0.2367 -0.2611
  471POPI   C3B 7403  12.361   6.672   9.201  0.0609  0.3298  0.0437
  471POPI   C4B 7404  12.192   6.904   8.862  0.0534 -0.1617  0.0663
  472POPI    C1 7405   3.783  16.559  10.662 -0.0561 -0.1336 -0.0425
  472POPI    C2 7406   3.822  16.161  10.651 -0.1465 -0.1436 -0.0116
  472POPI    C3 7407   3.688  16.339  10.983  0.3658 -0.0445  0.1495
  472POPI   PO4 7408   3.730  16.588  10.428 -0.0857 -0.0334 -0.3411
  472POPI   GL1 7409   3.609  16.652   9.953  0.0080 -0.2819 -0.1676
  472POPI   GL2 7410   3.485  16.449   9.825  0.2872  0.0942  0.0758
  472POPI   C1A 7411   3.334  16.907   9.650  0.0795  0.2808  0.0059
  472POPI   D2A 7412   3.294  16.984   9.190 -0.1899 -0.0398  0.0010
  472POPI   C3A 7413   3.124  16.907   8.728  0.2300 -0.0591  0.0854
  472POPI   C4A 7414   3.297  16.832   8.306  0.0537 -0.1845 -0.1545
  472POPI   C1B 7415   3.291  16.461   9.424 -0.0617 -0.3596  0.0096
  472POPI   C2B 7416   3.315  16.418   8.982 -0.0359  0.1664  0.0411
  472POPI   C3B 7417   3.180  16.387   8.540  0.0601 -0.1885  0.0465
  472POPI   C4B 7418   3.017  16.380   8.105  0.1047 -0.2314  0.1921
  473DPPI    C1 7419   3.784   6.008  10.615 -0.1684 -0.0006 -0.0486
  473DPPI    C2 7420   3.874   5.640  10.744  0.0919  0.1367  0.1709
  473DPPI    C3 7421   3.727   5.911  10.999 -0.0406  0.2041  0.0239
  473DPPI   PO4 7422   3.707   6.051  10.426  0.1288  0.0873  0.0150
  473DPPI   GL1 7423   3.838   5.944  10.056  0.1027  0.1921 -0.1336
  473DPPI   GL2 7424   3.948   5.592  10.242 -0.0184 -0.3225 -0.2200
  473DPPI   C1A 7425   3.884   5.995   9.623 -0.0438  0.0485 -0.1152
  473DPPI   C2A 7426   3.758   5.948   9.236 -0.0825  0.0623  0.0469
  473DPPI   C3A 7427   3.721   5.910   8.785  0.2929 -0.1283  0.0241
  473DPPI   C4A 7428   3.558   6.217   8.497  0.0546  0.3355 -0.0102
  473DPPI   C1B 7429   4.052   5.469   9.880  0.0486 -0.0038  0.0811
  473DPPI   C2B 7430   4.101   5.562   9.476 -0.1304  0.0400  0.0073
  473DPPI   C3B 7431   3.883   5.459   9.064 -0.0593 -0.1210 -0.2681
  473DPPI   C4B 7432   3.731   5.342   8.617 -0.0422  0.2509  0.2256
  474DPPI    C1 7433   0.215  16.651  10.859  0.1085 -0.5080  0.0593
  474DPPI    C2 7434  -0.083  16.623  10.594  0.1824 -0.1705 -0.0650
  474DPPI    C3 7435  -0.147  16.530  10.978 -0.1106 -0.0063 -0.0710
  474DPPI   PO4 7436   0.339  16.918  10.814  0.0782  0.0295  0.0632
  474DPPI   GL1 7437   0.333  16.954  10.416 -0.0031 -0.1737 -0.5116
  474DPPI   GL2 7438   0.531  17.042  10.311 -0.1490 -0.0453 -0.4162
  474DPPI   C1A 7439   0.193  17.108   9.925  0.2179  0.0027  0.0047
  474DPPI   C2A 7440   0.084  17.165   9.574  0.1347 -0.3752 -0.0872
  474DPPI   C3A 7441   0.117  17.003   9.102 -0.2542  0.3474  0.2226
  474DPPI   C4A 7442   0.148  17.076   8.682  0.1895 -0.2626 -0.1320
  474DPPI   C1B 7443   0.549  16.807   9.910 -0.3485  0.0179 -0.0006
  474DPPI   C2B 7444   0.457  16.843   9.434 -0.1018 -0.0613 -0.1798
  474DPPI   C3B 7445   0.620  16.972   9.061  0.0920 -0.3231  0.0270
  474DPPI   C4B 7446   0.624  17.177   8.658 -0.1207 -0.2746 -0.1972
  475DPPI    C1 7447   6.693  12.941  10.584 -0.0092 -0.1064  0.2078
  475DPPI    C2 7448   7.035  12.823  10.413 -0.0214  0.2351 -0.0612
  475DPPI    C3 7449   6.986  12.785  10.808  0.0797 -0.3925 -0.0993
  475DPPI   PO4 7450   6.542  13.148  10.353 -0.0024 -0.0655 -0.4088
  475DPPI   GL1 7451   6.605  13.175   9.867  0.2955 -0.2670  0.0416
  475DPPI   GL2 7452   6.543  13.416   9.811  0.1353 -0.0040  0.0927
  475DPPI   C1A 7453   6.876  12.907   9.583  0.2982  0.0092  0.1713
  475DPPI   C2A 7454   7.008  12.880   9.101 -0.0732  0.1776  0.0222
  475DPPI   C3A 7455   6.788  12.908   8.765 -0.0441 -0.0893  0.0697
  475DPPI   C4A 7456   6.733  12.816   8.241 -0.2733  0.1849  0.0797
  475DPPI   C1B 7457   6.584  13.216   9.351  0.1955  0.0009  0.1446
  475DPPI   C2B 7458   6.471  13.209   8.989 -0.1376 -0.0788  0.0432
  475DPPI   C3B 7459   6.448  13.191   8.463  0.1027 -0.0495 -0.0166
  475DPPI   C4B 7460   6.543  13.317   8.088  0.1697  0.0527 -0.0279
  476DPPI    C1 7461   0.971   6.771  10.854  0.0197  0.0029  0.2283
  476DPPI    C2 7462   0.718   6.461  10.879 -0.1511  0.1229  0.0260
  476DPPI    C3 7463   0.971   6.538  11.180 -0.3669  0.0113  0.2399
  476DPPI   PO4 7464   1.033   6.743  10.647  0.1298  0.0202 -0.1210
  476DPPI   GL1 7465   1.019   6.972  10.275  0.1084 -0.2516 -0.0113
  476DPPI   GL2 7466   0.909   6.638  10.205 -0.1978  0.0141 -0.3326
  476DPPI   C1A 7467   1.054   7.005   9.926 -0.0785 -0.2188 -0.0313
  476DPPI   C2A 7468   0.836   6.730   9.675  0.2289  0.1012 -0.0045
  476DPPI   C3A 7469   0.667   6.584   9.346 -0.0673 -0.3456 -0.1406
  476DPPI   C4A 7470   0.576   6.550   8.852 -0.1719  0.1464  0.0637
  476DPPI   C1B 7471   0.516   6.572  10.015 -0.2949 -0.1593  0.0309
  476DPPI   C2B 7472   0.300   6.379   9.557 -0.1048  0.1149  0.1185
  476DPPI   C3B 7473   0.137   6.441   9.107 -0.1088 -0.2822 -0.2009
  476DPPI   C4B 7474  -0.174   6.408   8.803  0.1278 -0.0802  0.2358
  477DPPI    C1 7475   9.230  14.833  10.681 -0.0557  0.0295 -0.1829
  477DPPI    C2 7476   9.298  14.567  10.391  0.1626  0.0423 -0.1455
  477DPPI    C3 7477   9.115  14.452  10.727  0.0702 -0.0129 -0.2140
  477DPPI   PO4 7478   9.150  15.026  10.496 -0.0644 -0.1820  0.2612
  477DPPI   GL1 7479   9.147  14.984  10.133  0.3114 -0.0794  0.0046
  477DPPI   GL2 7480   9.370  15.310  10.037 -0.0513 -0.0976  0.0189
  477DPPI   C1A 7481   9.183  15.018   9.664  0.0438  0.3610  0.3326
  477DPPI   C2A 7482   9.159  15.001   9.224 -0.1326  0.1488  0.1113
  477DPPI   C3A 7483   9.080  14.922   8.788  0.1063  0.2305  0.3483
  477DPPI   C4A 7484   8.932  14.859   8.346  0.1661 -0.0892  0.1608
  477DPPI   C1B 7485   9.544  15.340   9.634 -0.3921 -0.2939 -0.1456
  477DPPI   C2B 7486   9.435  15.413   9.136 -0.3651  0.2147 -0.1800
  477DPPI   C3B 7487   9.325  15.306   8.835  0.1083  0.0691 -0.0209
  477DPPI   C4B 7488   9.322  15.245   8.340 -0.3135 -0.1458 -0.0706
  478DPPI    C1 7489   9.494   3.046  10.502  0.2176 -0.3653 -0.0860
  478DPPI    C2 7490   9.184   3.149  10.733  0.3371  0.1549 -0.1451
  478DPPI    C3 7491   9.439   2.867  10.856  0.1898  0.1616  0.1875
  478DPPI   PO4 7492   9.456   3.011  10.296  0.0841  0.0783 -0.1163
  478DPPI   GL1 7493   9.304   2.855   9.934  0.2886  0.2208 -0.2906
  478DPPI   GL2 7494   9.011   3.007   9.898  0.0841  0.0519  0.1778
  478DPPI   C1A 7495   9.407   2.965   9.595 -0.1762 -0.0000  0.1193
  478DPPI   C2A 7496   9.567   3.046   9.202 -0.0196 -0.0969  0.0694
  478DPPI   C3A 7497   9.510   2.824   8.756  0.5621  0.1289 -0.0360
  478DPPI   C4A 7498   9.556   2.884   8.306 -0.1129  0.1293 -0.2888
  478DPPI   C1B 7499   8.885   3.051   9.471 -0.1747  0.2550 -0.1574
  478DPPI   C2B 7500   9.033   3.054   8.982 -0.0955  0.1040 -0.2042
  478DPPI   C3B 7501   9.039   2.985   8.524 -0.2806  0.1457 -0.1540
  478DPPI   C4B 7502   8.996   2.939   8.035 -0.0219  0.0499 -0.3497
  479DPPI    C1 7503  10.624   9.717  10.575 -0.0527 -0.1051  0.2232
  479DPPI    C2 7504  10.926   9.460  10.526 -0.0933 -0.0662 -0.2906
  479DPPI    C3 7505  10.999   9.834  10.648  0.0198 -0.1702 -0.0330
  479DPPI   PO4 7506  10.507   9.740  10.344  0.0350  0.0331 -0.1214
  479DPPI   GL1 7507  10.592   9.381   9.993  0.1522 -0.2386  0.1338
  479DPPI   GL2 7508  10.860   9.558  10.000 -0.0498 -0.1871 -0.3369
  479DPPI   C1A 7509  10.462   9.445   9.595  0.1099  0.0513  0.1623
  479DPPI   C2A 7510  10.274   9.646   9.179 -0.0226 -0.0178 -0.3409
  479DPPI   C3A 7511  10.303   9.774   8.883 -0.2702  0.2870  0.1519
  479DPPI   C4A 7512  10.477  10.088   8.601  0.2243 -0.1799  0.2420
  479DPPI   C1B 7513  10.984   9.585   9.511 -0.2522 -0.2557 -0.2001
  479DPPI   C2B 7514  10.840   9.716   9.122 -0.3128 -0.1112 -0.0198
  479DPPI   C3B 7515  10.843   9.832   8.776 -0.0621  0.2508 -0.0844
  479DPPI   C4B 7516  11.065   9.707   8.442 -0.0507 -0.1789  0.0266
  480DPPI    C1 7517   5.723   2.154  10.487 -0.0014 -0.0133  0.1171
  480DPPI    C2 7518   5.706   2.322  10.849  0.0371 -0.0864  0.1530
  480DPPI    C3 7519   5.503   1.986  10.775  0.2123 -0.1986  0.1750
  480DPPI   PO4 7520   5.973   2.144  10.377  0.0060  0.0718 -0.1924
  480DPPI   GL1 7521   6.168   2.060  10.019 -0.2832  0.0030  0.0910
  480DPPI   GL2 7522   6.443   2.057  10.032 -0.1295 -0.1769 -0.2871
  480DPPI   C1A 7523   6.253   2.133   9.567 -0.2457 -0.0207 -0.1002
  480DPPI   C2A 7524   6.343   1.885   9.195 -0.0819  0.1040  0.1659
  480DPPI   C3A 7525   6.744   1.930   8.871 -0.1315 -0.0209 -0.0392
  480DPPI   C4A 7526   7.044   1.852   8.678 -0.2005 -0.0995  0.0191
  480DPPI   C1B 7527   6.752   2.111   9.718  0.2182  0.1746 -0.2137
  480DPPI   C2B 7528   6.702   2.206   9.363  0.0602 -0.0014  0.1176
  480DPPI   C3B 7529   6.740   2.382   9.039 -0.3212 -0.2096 -0.1040
  480DPPI   C4B 7530   6.791   2.296   8.608  0.1176 -0.1030 -0.0407
  481DPPI    C1 7531  15.637   5.227  11.372 -0.0286  0.0282  0.2150
  481DPPI    C2 7532  15.547   5.277  11.758 -0.1223 -0.0699  0.2062
  481DPPI    C3 7533  15.700   4.930  11.632 -0.0442 -0.0203  0.1636
  481DPPI   PO4 7534  15.385   5.267  11.191 -0.0015 -0.2081  0.1208
  481DPPI   GL1 7535  15.132   5.574  10.900 -0.0527 -0.2729  0.0502
  481DPPI   GL2 7536  14.895   5.509  10.622 -0.1032 -0.1279 -0.1594
  481DPPI   C1A 7537  15.388   5.455  10.540 -0.0866 -0.0128 -0.0215
  481DPPI   C2A 7538  15.702   5.237  10.448  0.0015  0.3284 -0.3915
  481DPPI   C3A 7539  16.080   5.253  10.306  0.2009 -0.3211  0.1870
  481DPPI   C4A 7540  16.497   5.207  10.279 -0.0312  0.0069 -0.2728
  481DPPI   C1B 7541  15.057   5.642  10.137  0.2384  0.0098  0.2930
  481DPPI   C2B 7542  15.084   5.593   9.688 -0.1662 -0.1454 -0.2113
  481DPPI   C3B 7543  15.210   5.615   9.239  0.1206 -0.1161 -0.0008
  481DPPI   C4B 7544  15.181   5.453   8.843  0.2213 -0.0507 -0.0985
  482DPPI    C1 7545   2.465   3.858  10.779 -0.0331  0.1439 -0.1313
  482DPPI    C2 7546   2.182   3.759  11.044 -0.1353  0.1786 -0.2271
  482DPPI    C3 7547   2.548   3.602  11.075 -0.1413  0.1974 -0.0539
  482DPPI   PO4 7548   2.321   3.852  10.541 -0.1084 -0.0552 -0.0503
  482DPPI   GL1 7549   2.233   4.021  10.148  0.3679  0.0592  0.2068
  482DPPI   GL2 7550   2.324   4.264   9.995  0.0838 -0.1523  0.1563
  482DPPI   C1A 7551   2.265   3.798   9.779  0.1491 -0.2073  0.4292
  482DPPI   C2A 7552   2.146   3.786   9.344  0.0406 -0.0664 -0.1456
  482DPPI   C3A 7553   1.979   3.793   9.000  0.2669  0.0825 -0.0412
  482DPPI   C4A 7554   2.061   3.888   8.631  0.1384  0.1214 -0.0911
  482DPPI   C1B 7555   2.395   4.210   9.554  0.1737 -0.1139  0.1075
  482DPPI   C2B 7556   2.317   4.185   9.112 -0.0927  0.1479  0.0314
  482DPPI   C3B 7557   2.247   4.345   8.716 -0.1229 -0.2279 -0.3819
  482DPPI   C4B 7558   2.362   4.770   8.531  0.2056  0.2324 -0.0179
  483DPPI    C1 7559  14.509  13.012  10.785 -0.0480  0.0364  0.1480
  483DPPI    C2 7560  14.454  13.386  10.915 -0.3760  0.0386  0.0121
  483DPPI    C3 7561  14.422  13.080  11.170  0.1666  0.1153  0.1836
  483DPPI   PO4 7562  14.590  13.098  10.498  0.1539 -0.1132  0.0687
  483DPPI   GL1 7563  14.498  12.979  10.166  0.3796 -0.0972  0.0940
  483DPPI   GL2 7564  14.666  12.759  10.064  0.0241  0.0988 -0.1340
  483DPPI   C1A 7565  14.376  13.045   9.728  0.0284  0.2102  0.1235
  483DPPI   C2A 7566  14.506  13.018   9.394 -0.0199 -0.0539  0.0335
  483DPPI   C3A 7567  14.672  12.906   9.006 -0.0009 -0.1179  0.0975
  483DPPI   C4A 7568  14.774  12.887   8.597 -0.3830  0.0649 -0.0681
  483DPPI   C1B 7569  14.768  12.662   9.585  0.1046  0.0985  0.0126
  483DPPI   C2B 7570  14.811  12.488   9.238  0.3497  0.2610 -0.1292
  483DPPI   C3B 7571  14.954  12.378   8.851  0.0683  0.0376 -0.2208
  483DPPI   C4B 7572  15.116  12.286   8.407 -0.0942  0.0149  0.1204
  484DPPI    C1 7573  15.055  16.990  11.075  0.0710  0.2057  0.2170
  484DPPI    C2 7574  14.728  17.159  11.233  0.0670  0.2139  0.1997
  484DPPI    C3 7575  14.880  16.826  11.395 -0.2080 -0.0424 -0.0569
  484DPPI   PO4 7576  15.066  17.134  10.850 -0.1567 -0.1096  0.0316
  484DPPI   GL1 7577  15.364  17.275  10.636 -0.2381  0.2059 -0.1459
  484DPPI   GL2 7578  15.610  17.310  10.655 -0.0733  0.1250  0.0903
  484DPPI   C1A 7579  15.500  17.003  10.221 -0.2071  0.0698  0.3319
  484DPPI   C2A 7580  15.615  17.068   9.883  0.2104  0.0502 -0.0423
  484DPPI   C3A 7581  15.623  17.141   9.408  0.2539  0.2590  0.0162
  484DPPI   C4A 7582  15.480  16.941   9.071 -0.0808  0.0015  0.0425
  484DPPI   C1B 7583  15.905  17.329  10.294  0.1398 -0.1615  0.0406
  484DPPI   C2B 7584  16.101  17.280   9.947  0.0232  0.2692  0.2254
  484DPPI   C3B 7585  16.093  17.133   9.488 -0.2147  0.0850 -0.2136
  484DPPI   C4B 7586  16.037  17.196   9.012  0.1189 -0.0486  0.1300
  485DPPI    C1 7587   8.764  12.900  10.769 -0.0441  0.0544 -0.0029
  485DPPI    C2 7588   8.622  12.667  10.477 -0.0774  0.1705 -0.0804
  485DPPI    C3 7589   8.372  12.823  10.748 -0.0524  0.0992 -0.0157
  485DPPI   PO4 7590   8.886  13.105  10.622 -0.0015 -0.2215  0.1076
  485DPPI   GL1 7591   8.867  13.207  10.176  0.0562  0.2488 -0.1402
  485DPPI   GL2 7592   9.164  13.225  10.059 -0.2945  0.0567 -0.1428
  485DPPI   C1A 7593   8.865  13.160   9.756  0.0075 -0.1732 -0.0090
  485DPPI   C2A 7594   8.631  13.303   9.366 -0.2075  0.1665 -0.1087
  485DPPI   C3A 7595   8.462  13.382   8.977  0.1934 -0.0473 -0.1846
  485DPPI   C4A 7596   8.490  13.466   8.578  0.0182  0.0816 -0.0951
  485DPPI   C1B 7597   9.359  13.274   9.726 -0.0110 -0.0040  0.2629
  485DPPI   C2B 7598   9.237  13.104   9.366 -0.2469 -0.1032 -0.0295
  485DPPI   C3B 7599   9.071  13.147   9.067 -0.2714  0.0914  0.3465
  485DPPI   C4B 7600   8.824  13.131   8.713 -0.2291 -0.0327 -0.1091
  486DPPI    C1 7601   8.312   7.337  10.612  0.0521 -0.0690  0.1214
  486DPPI    C2 7602   8.464   7.233  10.967 -0.0011 -0.2539  0.0912
  486DPPI    C3 7603   8.125   7.065  10.838 -0.1243  0.0065  0.0681
  486DPPI   PO4 7604   8.463   7.305  10.414 -0.0288 -0.1531  0.3074
  486DPPI   GL1 7605   8.522   7.318  10.001 -0.2026  0.1676  0.0520
  486DPPI   GL2 7606   8.820   7.414  10.119 -0.0467 -0.2666 -0.3124
  486DPPI   C1A 7607   8.507   7.308   9.592  0.1458  0.2046 -0.2098
  486DPPI   C2A 7608   8.615   7.140   9.126 -0.0880  0.2208 -0.0165
  486DPPI   C3A 7609   8.690   7.131   8.681  0.1345 -0.0145  0.0688
  486DPPI   C4A 7610   8.868   7.290   8.309  0.0371  0.0473  0.2146
  486DPPI   C1B 7611   8.951   7.401   9.785  0.0006  0.1420 -0.0516
  486DPPI   C2B 7612   9.029   7.309   9.405  0.0977  0.0144 -0.1614
  486DPPI   C3B 7613   9.159   7.229   8.970  0.1305 -0.2312 -0.3504
  486DPPI   C4B 7614   9.503   7.184   8.590 -0.1643 -0.0037 -0.2533
  487DPPI    C1 7615   6.538  17.560  10.533 -0.0996 -0.1534 -0.0374
  487DPPI    C2 7616   6.876  17.639  10.335 -0.0883  0.0375  0.0556
  487DPPI    C3 7617   6.803  17.268  10.466 -0.1561 -0.1228 -0.4148
  487DPPI   PO4 7618   6.302  17.720  10.345 -0.0207  0.0679  0.2044
  487DPPI   GL1 7619   6.259  17.813   9.914 -0.0684 -0.2804  0.1701
  487DPPI   GL2 7620   6.094  17.401   9.966 -0.0225 -0.0229 -0.0672
  487DPPI   C1A 7621   6.218  17.885   9.385  0.0125  0.2667  0.0782
  487DPPI   C2A 7622   6.089  17.874   9.015  0.3802  0.0381  0.1228
  487DPPI   C3A 7623   6.219  18.030   8.549  0.3654 -0.1069 -0.0560
  487DPPI   C4A 7624   6.101  18.081   8.159  0.1631  0.1784 -0.0300
  487DPPI   C1B 7625   6.103  17.371   9.469 -0.0559 -0.0886 -0.2582
  487DPPI   C2B 7626   6.034  17.322   9.029 -0.0305  0.1433 -0.3400
  487DPPI   C3B 7627   6.095  17.572   8.608  0.1222  0.0120 -0.2809
  487DPPI   C4B 7628   6.260  17.543   8.283  0.1028 -0.0985 -0.1237
  488DPPI    C1 7629  18.186   0.227  10.702 -0.1505 -0.2130  0.1573
  488DPPI    C2 7630  18.337  -0.032  10.967  0.1120  0.1074  0.3274
  488DPPI    C3 7631  18.165   0.307  11.093 -0.2133  0.0292  0.1062
  488DPPI   PO4 7632  18.336   0.137  10.466  0.1557  0.1367 -0.0576
  488DPPI   GL1 7633  18.332   0.298   9.946  0.0092  0.1867  0.1158
  488DPPI   GL2 7634  18.613   0.477   9.993 -0.2438  0.2645  0.0301
  488DPPI   C1A 7635  18.268   0.368   9.498 -0.2035  0.3099  0.0176
  488DPPI   C2A 7636  18.463   0.364   9.107 -0.3310 -0.3075 -0.0612
  488DPPI   C3A 7637  18.563   0.137   8.646 -0.3010 -0.0205 -0.1175
  488DPPI   C4A 7638  18.545   0.266   8.233  0.2536 -0.1236 -0.1624
  488DPPI   C1B 7639  18.688   0.668   9.603  0.1297  0.0768 -0.1710
  488DPPI   C2B 7640  18.704   0.845   9.094  0.0409  0.2443 -0.1194
  488DPPI   C3B 7641  18.773   0.999   8.652 -0.1043 -0.0692 -0.1982
  488DPPI   C4B 7642  19.049   1.099   8.375 -0.1761  0.0138 -0.0273
  489DPPI    C1 7643  13.483   4.700  11.067  0.0013  0.0480 -0.1312
  489DPPI    C2 7644  13.195   4.972  11.117  0.1554  0.2065 -0.0981
  489DPPI    C3 7645  13.564   5.043  11.256  0.1651 -0.0747  0.0258
  489DPPI   PO4 7646  13.476   4.597  10.825  0.1049  0.0072 -0.1339
  489DPPI   GL1 7647  13.406   4.632  10.373  0.1934 -0.0370 -0.2952
  489DPPI   GL2 7648  13.788   4.763  10.357  0.1059  0.4871 -0.0703
  489DPPI   C1A 7649  13.469   4.650   9.853  0.2789  0.0588  0.2008
  489DPPI   C2A 7650  13.481   4.754   9.473 -0.0443 -0.1722  0.1951
  489DPPI   C3A 7651  13.606   4.775   9.038 -0.0275  0.0859 -0.1738
  489DPPI   C4A 7652  13.763   5.158   8.776  0.0788 -0.0051  0.2978
  489DPPI   C1B 7653  14.018   4.698  10.000 -0.0887  0.3661  0.1582
  489DPPI   C2B 7654  13.953   4.756   9.527 -0.1867 -0.2743  0.0693
  489DPPI   C3B 7655  14.129   4.879   9.128  0.2037 -0.0725 -0.0853
  489DPPI   C4B 7656  14.122   4.869   8.575 -0.1183 -0.0338  0.0029
  490DPPI    C1 7657   8.604  14.717  10.687 -0.0064 -0.0846 -0.1975
  490DPPI    C2 7658   8.705  15.102  10.730  0.0293 -0.0946 -0.1926
  490DPPI    C3 7659   8.508  14.913  11.023  0.1621 -0.1274 -0.1231
  490DPPI   PO4 7660   8.754  14.706  10.389 -0.0052 -0.1757 -0.1003
  490DPPI   GL1 7661   8.875  14.462  10.085 -0.1254  0.1627  0.0368
  490DPPI   GL2 7662   9.044  14.173  10.257  0.0842 -0.1488 -0.0603
  490DPPI   C1A 7663   8.934  14.567   9.637 -0.1587  0.2922  0.0087
  490DPPI   C2A 7664   8.811  14.564   9.207 -0.2030 -0.0778 -0.0491
  490DPPI   C3A 7665   8.735  14.579   8.750  0.0757 -0.1480  0.1366
  490DPPI   C4A 7666   8.398  14.513   8.488 -0.3214  0.0141 -0.2577
  490DPPI   C1B 7667   9.143  14.106   9.763  0.1264 -0.0223 -0.0340
  490DPPI   C2B 7668   9.110  14.113   9.339  0.1004  0.0197 -0.1636
  490DPPI   C3B 7669   9.197  14.057   8.937 -0.1694  0.0004  0.2813
  490DPPI   C4B 7670   9.185  13.934   8.469  0.0019  0.0518  0.1543
  491DPPI    C1 7671  14.243   3.354  11.001  0.0322 -0.0224 -0.0890
  491DPPI    C2 7672  14.060   3.704  11.061 -0.0255 -0.0684  0.0060
  491DPPI    C3 7673  13.850   3.364  11.077  0.0838 -0.1284  0.2085
  491DPPI   PO4 7674  14.387   3.410  10.730  0.1054  0.0618  0.0352
  491DPPI   GL1 7675  14.703   3.249  10.440  0.0676 -0.4361  0.2229
  491DPPI   GL2 7676  14.374   3.048  10.377  0.1172  0.0672  0.2090
  491DPPI   C1A 7677  14.749   3.246  10.030  0.0834  0.2502 -0.0677
  491DPPI   C2A 7678  14.741   3.373   9.582  0.1420  0.0215  0.2181
  491DPPI   C3A 7679  14.687   3.603   9.137 -0.0728  0.0920 -0.0856
  491DPPI   C4A 7680  14.575   3.541   8.662 -0.0680  0.0561 -0.0678
  491DPPI   C1B 7681  14.376   2.905  10.049 -0.1579 -0.0407 -0.5029
  491DPPI   C2B 7682  14.067   2.768   9.796  0.0273 -0.1556  0.1468
  491DPPI   C3B 7683  13.870   2.517   9.571 -0.2458  0.0027 -0.0729
  491DPPI   C4B 7684  13.542   2.438   9.423  0.0084  0.0857  0.1218
  492DPPI    C1 7685  11.486   2.999  10.759 -0.0409 -0.0714 -0.0680
  492DPPI    C2 7686  11.112   3.086  10.871  0.0062  0.0622 -0.0126
  492DPPI    C3 7687  11.347   2.867  11.110 -0.0148  0.0338 -0.0180
  492DPPI   PO4 7688  11.518   3.118  10.576  0.1515 -0.0880  0.0011
  492DPPI   GL1 7689  11.682   3.093  10.154 -0.0577 -0.1617  0.1136
  492DPPI   GL2 7690  11.387   3.030  10.033 -0.1562 -0.0231  0.1213
  492DPPI   C1A 7691  11.928   2.847   9.907 -0.1651  0.1614 -0.0359
  492DPPI   C2A 7692  12.088   2.852   9.551 -0.2244  0.3326  0.3358
  492DPPI   C3A 7693  12.209   2.828   9.196  0.2188  0.1099  0.0041
  492DPPI   C4A 7694  12.291   2.797   8.779 -0.1049  0.1821  0.1065
  492DPPI   C1B 7695  11.568   3.118   9.676 -0.1728 -0.0853  0.0112
  492DPPI   C2B 7696  11.714   3.248   9.270 -0.0550 -0.1158 -0.1542
  492DPPI   C3B 7697  11.948   3.072   8.865  0.2142  0.2117  0.0851
  492DPPI   C4B 7698  11.889   2.879   8.438  0.0708 -0.1929 -0.1296
  493DPPI    C1 7699  17.201  13.425  10.819 -0.1915  0.3186 -0.0186
  493DPPI    C2 7700  16.893  13.234  10.650  0.1028 -0.0701 -0.1289
  493DPPI    C3 7701  16.875  13.341  11.035 -0.1607 -0.1077 -0.1294
  493DPPI   PO4 7702  17.474  13.263  10.735 -0.1789 -0.4752  0.0684
  493DPPI   GL1 7703  17.435  13.074  10.337  0.3890  0.2967  0.0972
  493DPPI   GL2 7704  17.126  12.906  10.385 -0.5598 -0.2054  0.1730
  493DPPI   C1A 7705  17.425  12.974   9.999 -0.1358  0.0346  0.1471
  493DPPI   C2A 7706  17.320  12.899   9.585 -0.1406 -0.2689 -0.1981
  493DPPI   C3A 7707  17.065  12.654   9.277  0.1941 -0.0326  0.1594
  493DPPI   C4A 7708  17.155  12.558   8.911 -0.2724  0.1255  0.1708
  493DPPI   C1B 7709  16.955  12.869  10.016  0.0889 -0.2444  0.0156
  493DPPI   C2B 7710  16.780  12.949   9.540  0.2597  0.0941 -0.0003
  493DPPI   C3B 7711  16.632  12.987   9.106 -0.0306 -0.0446  0.0629
  493DPPI   C4B 7712  16.676  12.957   8.655 -0.0506  0.0346 -0.0382
  494DPPI    C1 7713   2.018   4.244  10.608  0.0465  0.0160  0.2062
  494DPPI    C2 7714   1.939   4.216  10.999 -0.1381 -0.1302  0.1599
  494DPPI    C3 7715   2.310   4.300  10.875 -0.0977  0.0047  0.3679
  494DPPI   PO4 7716   1.807   4.100  10.468  0.0616  0.0314 -0.1770
  494DPPI   GL1 7717   1.545   4.013  10.128 -0.1053  0.3952 -0.2991
  494DPPI   GL2 7718   1.822   4.019   9.862 -0.1614 -0.0734 -0.2023
  494DPPI   C1A 7719   1.356   4.291   9.702  0.1224 -0.4463  0.0558
  494DPPI   C2A 7720   1.291   4.367   9.296  0.0904 -0.2339 -0.2556
  494DPPI   C3A 7721   1.073   4.525   9.053 -0.0835 -0.3881 -0.1215
  494DPPI   C4A 7722   0.835   4.507   8.733 -0.1062 -0.0544  0.0177
  494DPPI   C1B 7723   1.915   4.234   9.464  0.0710  0.0191  0.0258
  494DPPI   C2B 7724   1.816   4.268   9.023 -0.1486  0.5464 -0.1951
  494DPPI   C3B 7725   1.582   4.334   8.765 -0.0777 -0.2388 -0.2266
  494DPPI   C4B 7726   1.311   4.514   8.618 -0.1774 -0.0066  0.2179
  495DPPI    C1 7727   9.455  10.945  10.358  0.0635  0.0162 -0.0270
  495DPPI    C2 7728   9.564  10.582  10.229 -0.1840 -0.0639 -0.0174
  495DPPI    C3 7729   9.490  10.643  10.617 -0.0368  0.0255 -0.0023
  495DPPI   PO4 7730   9.604  11.146  10.229 -0.2009 -0.0118 -0.2217
  495DPPI   GL1 7731   9.888  11.165   9.909 -0.0388 -0.2273  0.3785
  495DPPI   GL2 7732   9.925  11.459   9.871  0.0482  0.0222  0.1839
  495DPPI   C1A 7733   9.918  11.063   9.456 -0.0326 -0.1314 -0.1257
  495DPPI   C2A 7734   9.778  10.969   9.068  0.0727  0.0274  0.0338
  495DPPI   C3A 7735   9.654  10.925   8.636  0.0912  0.1571 -0.0869
  495DPPI   C4A 7736   9.601  11.027   8.205 -0.1574 -0.2920 -0.0713
  495DPPI   C1B 7737  10.201  11.642   9.568  0.0161 -0.0174 -0.0394
  495DPPI   C2B 7738  10.145  11.714   9.113 -0.0731 -0.4500 -0.0441
  495DPPI   C3B 7739  10.208  11.540   8.753 -0.3010  0.1626 -0.0258
  495DPPI   C4B 7740  10.002  11.374   8.364  0.2888 -0.2557 -0.1901
  496DPPI    C1 7741  13.350  14.755  10.450 -0.0841 -0.0479  0.0277
  496DPPI    C2 7742  13.079  15.048  10.427  0.1650  0.1902  0.0692
  496DPPI    C3 7743  13.185  14.902  10.784 -0.1153 -0.1040  0.0372
  496DPPI   PO4 7744  13.243  14.604  10.270  0.1969 -0.0797 -0.0539
  496DPPI   GL1 7745  13.192  14.651   9.841  0.0145  0.1579  0.3728
  496DPPI   GL2 7746  13.102  14.372   9.834  0.0556  0.1613  0.2782
  496DPPI   C1A 7747  13.200  14.933   9.448 -0.0300 -0.0715 -0.1604
  496DPPI   C2A 7748  13.204  15.181   9.154  0.1269 -0.0364 -0.1234
  496DPPI   C3A 7749  13.127  15.128   8.743 -0.3321  0.2012 -0.1666
  496DPPI   C4A 7750  12.949  15.080   8.258  0.4595 -0.0583 -0.1236
  496DPPI   C1B 7751  13.390  14.248   9.516 -0.0467 -0.0064  0.0458
  496DPPI   C2B 7752  13.249  14.095   9.100 -0.1475  0.0275 -0.1289
  496DPPI   C3B 7753  13.489  13.909   8.911  0.0051  0.3276 -0.1418
  496DPPI   C4B 7754  13.757  13.762   8.605 -0.2769 -0.0783 -0.0975
  497DPPI    C1 7755  10.399  14.036  10.997  0.0482  0.0356 -0.3713
  497DPPI    C2 7756  10.662  13.745  10.919  0.1174 -0.0376  0.1028
  497DPPI    C3 7757  10.784  14.084  11.093 -0.0928 -0.0559  0.2902
  497DPPI   PO4 7758  10.324  14.131  10.786 -0.1703 -0.0181 -0.1956
  497DPPI   GL1 7759  10.418  14.255  10.306  0.2665  0.0071  0.3392
  497DPPI   GL2 7760  10.660  14.479  10.159  0.0227 -0.2225  0.2770
  497DPPI   C1A 7761  10.413  14.082   9.946  0.1336 -0.0584 -0.0361
  497DPPI   C2A 7762  10.741  14.027   9.609 -0.0884  0.0829  0.2759
  497DPPI   C3A 7763  11.100  13.942   9.608 -0.2321 -0.1208  0.1200
  497DPPI   C4A 7764  11.404  13.967   9.897 -0.1748 -0.4859  0.1084
  497DPPI   C1B 7765  10.499  14.443   9.595 -0.0587 -0.1460  0.0516
  497DPPI   C2B 7766  10.425  14.464   9.191 -0.0257  0.2623 -0.0263
  497DPPI   C3B 7767  10.179  14.736   8.889  0.0400 -0.1288  0.0566
  497DPPI   C4B 7768  10.165  14.817   8.469 -0.0489 -0.0288 -0.1739
  498DPPI    C1 7769   8.599  10.816  10.349 -0.0097  0.0099 -0.1927
  498DPPI    C2 7770   8.221  10.946  10.351 -0.0193 -0.0172  0.0055
  498DPPI    C3 7771   8.416  10.896  10.696  0.1788  0.0338 -0.0977
  498DPPI   PO4 7772   8.614  10.657  10.215 -0.2325 -0.0484 -0.1219
  498DPPI   GL1 7773   8.494  10.500   9.830 -0.0755 -0.1839 -0.0571
  498DPPI   GL2 7774   8.303  10.284  10.049  0.0633  0.1634 -0.2156
  498DPPI   C1A 7775   8.369  10.715   9.489  0.1605 -0.0649 -0.1954
  498DPPI   C2A 7776   8.263  10.866   9.039 -0.3693 -0.2800 -0.1053
  498DPPI   C3A 7777   8.221  11.033   8.596  0.2921 -0.0265  0.1814
  498DPPI   C4A 7778   8.396  11.153   8.180 -0.0288 -0.1098 -0.1125
  498DPPI   C1B 7779   8.072  10.252   9.643 -0.0133  0.1645 -0.1484
  498DPPI   C2B 7780   7.874  10.534   9.430  0.2056 -0.1627  0.1201
  498DPPI   C3B 7781   7.713  10.674   9.051 -0.3135 -0.1976  0.0385
  498DPPI   C4B 7782   7.762  10.855   8.724  0.1409  0.2406 -0.1412
  499DPPI    C1 7783   8.391  15.084  10.215  0.0228 -0.1553  0.2785
  499DPPI    C2 7784   8.062  15.302  10.279 -0.0789 -0.2482  0.0798
  499DPPI    C3 7785   8.032  14.932  10.129  0.1128 -0.2790  0.1143
  499DPPI   PO4 7786   8.530  15.366  10.041 -0.0933 -0.0433  0.0067
  499DPPI   GL1 7787   8.890  15.409   9.815 -0.1163 -0.2992  0.1313
  499DPPI   GL2 7788   8.769  15.766  10.010 -0.4189 -0.1067 -0.1433
  499DPPI   C1A 7789   8.940  15.454   9.305 -0.3657 -0.0828 -0.1514
  499DPPI   C2A 7790   8.848  15.347   8.839 -0.0218 -0.0362 -0.2967
  499DPPI   C3A 7791   8.980  15.587   8.512  0.2344  0.0462  0.1864
  499DPPI   C4A 7792   9.182  15.762   8.175  0.2355 -0.0492 -0.1827
  499DPPI   C1B 7793   8.715  15.834   9.503 -0.0446  0.5817 -0.0221
  499DPPI   C2B 7794   8.687  15.836   9.073  0.2947  0.0922  0.0984
  499DPPI   C3B 7795   8.509  15.922   8.698  0.0568 -0.1812 -0.0600
  499DPPI   C4B 7796   8.478  16.122   8.264  0.2959  0.0030 -0.2872
  500DPPI    C1 7797   0.178  13.695  10.796 -0.3081 -0.0407 -0.2955
  500DPPI    C2 7798  -0.104  13.816  11.053 -0.2217 -0.0208 -0.2100
  500DPPI    C3 7799   0.256  13.992  11.052 -0.1242 -0.2169 -0.1438
  500DPPI   PO4 7800   0.089  13.689  10.553 -0.0700  0.3548  0.1502
  500DPPI   GL1 7801  -0.042  13.555  10.150  0.2665  0.2360 -0.0405
  500DPPI   GL2 7802  -0.246  13.779  10.137 -0.3426 -0.2674  0.0761
  500DPPI   C1A 7803   0.022  13.502   9.757  0.4880  0.0148 -0.3816
  500DPPI   C2A 7804  -0.066  13.375   9.403  0.0016  0.2052  0.1768
  500DPPI   C3A 7805  -0.077  13.436   8.880  0.0385  0.2609  0.0784
  500DPPI   C4A 7806  -0.298  13.312   8.460 -0.1189  0.3448 -0.0284
  500DPPI   C1B 7807  -0.413  13.767   9.741 -0.2329  0.0551 -0.1964
  500DPPI   C2B 7808  -0.491  13.696   9.350  0.0824  0.1587  0.0177
  500DPPI   C3B 7809  -0.524  13.864   8.967 -0.0152  0.0620 -0.1398
  500DPPI   C4B 7810  -0.469  13.797   8.533  0.1727  0.1913 -0.0160
  501DPPI    C1 7811   7.755   7.762  10.538 -0.0967  0.0071 -0.1632
  501DPPI    C2 7812   7.491   7.610  10.798  0.0030  0.0771 -0.0196
  501DPPI    C3 7813   7.884   7.574  10.867  0.0289  0.2157 -0.0911
  501DPPI   PO4 7814   7.682   7.694  10.344 -0.0577  0.1179 -0.2447
  501DPPI   GL1 7815   7.660   7.716   9.894  0.3123 -0.1653  0.2166
  501DPPI   GL2 7816   7.897   7.961   9.880  0.0121  0.1681  0.3568
  501DPPI   C1A 7817   7.587   7.526   9.508 -0.1374  0.2374  0.1758
  501DPPI   C2A 7818   7.549   7.394   9.047 -0.2064  0.0836  0.0346
  501DPPI   C3A 7819   7.506   7.451   8.604  0.3330 -0.1294  0.0192
  501DPPI   C4A 7820   7.634   7.141   8.260 -0.0982  0.0340 -0.2075
  501DPPI   C1B 7821   7.843   8.120   9.450  0.2588 -0.0056  0.0952
  501DPPI   C2B 7822   7.773   7.949   8.999  0.0991 -0.2705  0.0198
  501DPPI   C3B 7823   7.638   7.953   8.604  0.1793 -0.5568  0.3386
  501DPPI   C4B 7824   7.698   7.765   8.171  0.0533 -0.0259  0.2724
  502DPPI    C1 7825   1.969   2.348  10.378  0.0636  0.3100  0.4382
  502DPPI    C2 7826   1.706   2.257  10.665 -0.0934 -0.2188  0.1417
  502DPPI    C3 7827   1.642   2.573  10.428 -0.3185 -0.1835  0.2463
  502DPPI   PO4 7828   1.988   2.132  10.228  0.0971  0.2309 -0.1903
  502DPPI   GL1 7829   2.146   2.164   9.880  0.1360  0.2204  0.2282
  502DPPI   GL2 7830   2.523   2.148   9.896  0.2528 -0.2864  0.0187
  502DPPI   C1A 7831   2.286   2.008   9.431 -0.2561  0.3373 -0.1071
  502DPPI   C2A 7832   2.169   2.159   9.110 -0.1512 -0.0900  0.0129
  502DPPI   C3A 7833   1.950   2.254   8.755 -0.0054  0.0621  0.0423
  502DPPI   C4A 7834   1.713   2.417   8.379 -0.0094 -0.0246 -0.0659
  502DPPI   C1B 7835   2.633   1.808   9.699 -0.3143  0.0731 -0.0580
  502DPPI   C2B 7836   2.617   1.644   9.211 -0.3839 -0.3344 -0.1510
  502DPPI   C3B 7837   2.814   1.615   8.799  0.0409 -0.1173 -0.1550
  502DPPI   C4B 7838   3.237   1.704   8.613 -0.1663  0.1611  0.1271
  503DPPI    C1 7839   5.928  11.390  10.343  0.0222 -0.1929  0.1565
  503DPPI    C2 7840   6.060  11.015  10.295  0.2397 -0.1283  0.2356
  503DPPI    C3 7841   6.221  11.249  10.576  0.0621  0.0054  0.2284
  503DPPI   PO4 7842   5.935  11.525  10.069  0.0640  0.2315  0.0571
  503DPPI   GL1 7843   6.189  11.812   9.778 -0.0837 -0.0359  0.0775
  503DPPI   GL2 7844   6.453  11.919   9.866  0.0505 -0.0659  0.0074
  503DPPI   C1A 7845   6.192  11.457   9.494  0.0962  0.1105 -0.3790
  503DPPI   C2A 7846   6.363  11.434   9.171 -0.5935 -0.1481  0.1486
  503DPPI   C3A 7847   6.191  11.327   8.941  0.2014 -0.4002  0.0433
  503DPPI   C4A 7848   6.151  11.110   8.676  0.0223  0.2929 -0.1682
  503DPPI   C1B 7849   6.648  11.827   9.447 -0.1569  0.0018 -0.0863
  503DPPI   C2B 7850   6.742  11.809   9.076  0.0155 -0.0528 -0.0912
  503DPPI   C3B 7851   6.763  11.961   8.633  0.0588 -0.1213  0.2335
  503DPPI   C4B 7852   6.706  11.960   8.212  0.0843  0.2465 -0.0584
  504DPPI    C1 7853  16.167   5.848  11.347 -0.0067 -0.0284  0.3568
  504DPPI    C2 7854  15.807   5.979  11.234  0.0659 -0.1150  0.0134
  504DPPI    C3 7855  15.838   5.657  11.470 -0.0828 -0.0424  0.1343
  504DPPI   PO4 7856  16.314   5.894  11.127  0.0757  0.0304  0.3121
  504DPPI   GL1 7857  16.545   5.788  10.735 -0.2152  0.1009 -0.1539
  504DPPI   GL2 7858  16.404   5.581  10.648  0.1106  0.1857 -0.1135
  504DPPI   C1A 7859  16.870   5.753  10.411  0.2269 -0.1145  0.1336
  504DPPI   C2A 7860  16.825   5.604   9.998 -0.1321 -0.0909  0.2661
  504DPPI   C3A 7861  16.652   5.901   9.686  0.0306  0.1089  0.3046
  504DPPI   C4A 7862  16.539   5.977   9.284 -0.1951  0.0444 -0.1315
  504DPPI   C1B 7863  16.410   5.695  10.245 -0.1319  0.1015  0.0585
  504DPPI   C2B 7864  16.278   5.536   9.870  0.0054 -0.3787 -0.1543
  504DPPI   C3B 7865  16.553   5.385   9.570  0.2051 -0.1265 -0.2941
  504DPPI   C4B 7866  16.455   5.188   9.134 -0.0372 -0.3290 -0.0804
  505DPPI    C1 7867   2.354   7.171  10.363 -0.1232 -0.0087  0.0320
  505DPPI    C2 7868   2.528   6.892  10.136  0.0834  0.1100  0.0419
  505DPPI    C3 7869   2.331   6.786  10.468  0.0242 -0.0376 -0.0394
  505DPPI   PO4 7870   2.359   7.319  10.236  0.0645  0.1671  0.2492
  505DPPI   GL1 7871   2.266   7.318   9.771  0.1904 -0.2854  0.3089
  505DPPI   GL2 7872   2.118   7.099   9.871 -0.0561  0.1916 -0.3868
  505DPPI   C1A 7873   2.174   7.230   9.382  0.0220  0.0871 -0.1420
  505DPPI   C2A 7874   2.052   7.010   9.104  0.0315  0.1762  0.0256
  505DPPI   C3A 7875   1.823   6.746   8.758  0.1077  0.1053  0.2156
  505DPPI   C4A 7876   1.430   6.603   8.702  0.3878 -0.0284 -0.0460
  505DPPI   C1B 7877   2.329   6.695   9.732  0.2556 -0.2524  0.0372
  505DPPI   C2B 7878   2.258   6.522   9.328  0.1044  0.0172 -0.3469
  505DPPI   C3B 7879   2.354   6.508   8.914  0.4189  0.0697  0.0524
  505DPPI   C4B 7880   2.314   6.611   8.565 -0.1924  0.2876 -0.0993
  506DPPI    C1 7881  10.786   1.215  10.236 -0.1682  0.0253  0.0289
  506DPPI    C2 7882  10.667   1.424  10.555 -0.2078  0.0530 -0.0039
  506DPPI    C3 7883  10.845   1.069  10.604 -0.0555  0.1367  0.0555
  506DPPI   PO4 7884  10.565   1.252  10.069 -0.4009 -0.2101  0.0012
  506DPPI   GL1 7885  10.453   1.229   9.647 -0.1742 -0.1454 -0.1851
  506DPPI   GL2 7886  10.216   1.112   9.629  0.1911  0.1432 -0.0970
  506DPPI   C1A 7887  10.520   1.386   9.276  0.2215  0.0829  0.0292
  506DPPI   C2A 7888  10.637   1.313   8.802 -0.1022  0.2002 -0.0235
  506DPPI   C3A 7889  10.813   1.574   8.487 -0.0417  0.1313  0.1035
  506DPPI   C4A 7890  10.915   1.325   8.179 -0.2506  0.2302 -0.0650
  506DPPI   C1B 7891  10.351   0.937   9.165 -0.1887  0.1084  0.2261
  506DPPI   C2B 7892  10.390   0.840   8.712 -0.0982  0.5518 -0.1420
  506DPPI   C3B 7893  10.585   1.003   8.323 -0.1469  0.0706 -0.3349
  506DPPI   C4B 7894  10.408   1.282   7.990  0.0728  0.1736 -0.2063
  507DPPI    C1 7895   3.832   9.141  10.365  0.0391 -0.1825  0.1198
  507DPPI    C2 7896   3.816   9.485  10.568  0.0419 -0.3354  0.3843
  507DPPI    C3 7897   4.066   9.195  10.685  0.2287 -0.3322  0.0093
  507DPPI   PO4 7898   3.756   9.205  10.130  0.1173 -0.1406 -0.1792
  507DPPI   GL1 7899   3.997   9.318   9.769  0.1150  0.0668  0.3769
  507DPPI   GL2 7900   4.029   8.957   9.692  0.2181 -0.0309  0.0479
  507DPPI   C1A 7901   3.983   9.493   9.404 -0.0519 -0.0670 -0.0472
  507DPPI   C2A 7902   3.748   9.813   9.096  0.0374 -0.0631 -0.1155
  507DPPI   C3A 7903   3.508  10.055   8.773 -0.0598  0.0415 -0.0235
  507DPPI   C4A 7904   3.344  10.059   8.338 -0.2928  0.0704 -0.3728
  507DPPI   C1B 7905   4.046   8.858   9.344 -0.2369  0.0953  0.0015
  507DPPI   C2B 7906   3.868   8.645   8.975  0.0734 -0.3885  0.2215
  507DPPI   C3B 7907   3.832   8.507   8.624  0.1945  0.2894 -0.2297
  507DPPI   C4B 7908   4.104   8.433   8.268 -0.0102 -0.0347 -0.3469
  508DPPI    C1 7909   7.192   4.328  10.640 -0.0495 -0.3264  0.0310
  508DPPI    C2 7910   6.891   4.400  10.893 -0.0655  0.4845 -0.1920
  508DPPI    C3 7911   7.265   4.499  10.994  0.0123  0.2552 -0.2509
  508DPPI   PO4 7912   7.117   4.464  10.376 -0.0590  0.0887  0.0004
  508DPPI   GL1 7913   7.161   4.138  10.149  0.0208 -0.0029 -0.1838
  508DPPI   GL2 7914   6.987   3.828  10.043  0.0792  0.1527 -0.1772
  508DPPI   C1A 7915   7.155   4.283   9.740  0.0921 -0.0808 -0.2348
  508DPPI   C2A 7916   7.225   4.102   9.434 -0.2231 -0.3258 -0.1431
  508DPPI   C3A 7917   7.073   4.234   9.096 -0.1796  0.2269  0.1756
  508DPPI   C4A 7918   6.975   4.493   8.789 -0.5153 -0.0610  0.0227
  508DPPI   C1B 7919   6.906   3.804   9.607 -0.0542 -0.4899  0.2280
  508DPPI   C2B 7920   6.987   3.749   9.200 -0.0238 -0.2690 -0.2311
  508DPPI   C3B 7921   7.031   3.739   8.726 -0.0473  0.1253  0.1315
  508DPPI   C4B 7922   6.756   3.692   8.276  0.3391 -0.0905  0.3521
  509DPPI    C1 7923  15.732  17.042  11.141  0.3136 -0.1174  0.1635
  509DPPI    C2 7924  15.505  16.809  10.908  0.0878  0.2812 -0.0266
  509DPPI    C3 7925  15.552  16.719  11.295  0.2169 -0.2168 -0.1502
  509DPPI   PO4 7926  15.948  17.048  10.959  0.0940  0.0411  0.0931
  509DPPI   GL1 7927  16.185  17.414  10.810 -0.0607  0.1854  0.0748
  509DPPI   GL2 7928  16.468  17.593  10.823 -0.1286  0.1174 -0.1631
  509DPPI   C1A 7929  16.432  17.260  10.348 -0.1846  0.0381 -0.0931
  509DPPI   C2A 7930  16.553  17.066   9.908 -0.2262 -0.0354 -0.0701
  509DPPI   C3A 7931  16.584  17.225   9.570 -0.1696 -0.0038  0.0673
  509DPPI   C4A 7932  16.469  17.355   9.203  0.0824  0.1112 -0.0255
  509DPPI   C1B 7933  16.555  17.730  10.370  0.1174 -0.0864 -0.2146
  509DPPI   C2B 7934  16.591  17.658   9.941 -0.3923  0.1167  0.0885
  509DPPI   C3B 7935  16.627  17.796   9.519  0.0856  0.1940 -0.0265
  509DPPI   C4B 7936  16.706  17.806   9.098  0.1919 -0.0282 -0.1680
  510DPPI    C1 7937   6.512   5.475  10.330  0.0605 -0.3363 -0.0717
  510DPPI    C2 7938   6.287   5.450  10.660  0.0381  0.0165 -0.0568
  510DPPI    C3 7939   6.629   5.244  10.635  0.0085 -0.0619  0.1606
  510DPPI   PO4 7940   6.371   5.426  10.176  0.1647  0.1786  0.2810
  510DPPI   GL1 7941   6.208   5.223   9.798  0.1622 -0.1456  0.0897
  510DPPI   GL2 7942   5.997   5.441   9.850  0.1675 -0.2768  0.0520
  510DPPI   C1A 7943   6.252   5.142   9.459  0.0318  0.0281  0.0769
  510DPPI   C2A 7944   6.105   5.131   9.152 -0.3466 -0.4491 -0.2911
  510DPPI   C3A 7945   6.154   5.215   8.687 -0.1038 -0.4354 -0.4099
  510DPPI   C4A 7946   6.265   4.962   8.250  0.1833  0.2187 -0.0360
  510DPPI   C1B 7947   5.888   5.526   9.421  0.0299 -0.2683 -0.0755
  510DPPI   C2B 7948   5.932   5.636   9.018  0.0516 -0.0578 -0.1833
  510DPPI   C3B 7949   5.862   5.664   8.570 -0.1015 -0.4983  0.3343
  510DPPI   C4B 7950   5.971   5.723   8.217  0.3440 -0.0260  0.0770
  511DPPI    C1 7951   5.141   7.712  10.472  0.0253 -0.1435  0.2546
  511DPPI    C2 7952   5.263   7.898  10.805 -0.0692  0.0305  0.1934
  511DPPI    C3 7953   4.933   7.671  10.812 -0.1509  0.1482  0.1855
  511DPPI   PO4 7954   5.054   7.897  10.289  0.0285  0.1756 -0.2829
  511DPPI   GL1 7955   5.199   7.990   9.861 -0.1096  0.1330  0.1276
  511DPPI   GL2 7956   5.455   7.792   9.715  0.1821  0.2589 -0.1429
  511DPPI   C1A 7957   4.981   7.960   9.503 -0.0406  0.0711  0.1704
  511DPPI   C2A 7958   4.879   8.099   9.092  0.0607 -0.0451  0.2305
  511DPPI   C3A 7959   4.874   8.094   8.663 -0.2703  0.0415 -0.2931
  511DPPI   C4A 7960   4.934   8.015   8.249 -0.0471 -0.0184 -0.0292
  511DPPI   C1B 7961   5.568   7.795   9.336 -0.1080  0.2526 -0.1482
  511DPPI   C2B 7962   5.705   7.977   8.946 -0.1636 -0.2972  0.2024
  511DPPI   C3B 7963   5.736   8.002   8.519 -0.3012 -0.1202 -0.0062
  511DPPI   C4B 7964   5.592   7.696   8.085 -0.0301 -0.2275  0.0002
  512DPPI    C1 7965  11.535   6.240  10.705 -0.4189  0.2695 -0.0518
  512DPPI    C2 7966  11.192   6.104  10.860 -0.2211  0.1454  0.2880
  512DPPI    C3 7967  11.478   6.246  11.101  0.1437 -0.1657  0.0493
  512DPPI   PO4 7968  11.535   6.364  10.480 -0.0809  0.0398  0.1139
  512DPPI   GL1 7969  11.392   6.373  10.007 -0.0536 -0.1445 -0.0685
  512DPPI   GL2 7970  11.125   6.597   9.937 -0.0962  0.2962 -0.0749
  512DPPI   C1A 7971  11.459   6.294   9.572  0.1021  0.2776 -0.1029
  512DPPI   C2A 7972  11.440   6.363   9.185 -0.0028 -0.1836 -0.1790
  512DPPI   C3A 7973  11.487   6.197   8.756  0.2053  0.0117  0.1129
  512DPPI   C4A 7974  11.074   6.088   8.497 -0.2659  0.0924 -0.0857
  512DPPI   C1B 7975  11.019   6.539   9.523  0.1251  0.0738 -0.0534
  512DPPI   C2B 7976  10.969   6.447   9.176 -0.0243 -0.1462  0.2620
  512DPPI   C3B 7977  10.750   6.274   8.816  0.0724 -0.2252  0.1505
  512DPPI   C4B 7978  10.567   6.115   8.397 -0.1067  0.0303 -0.0007
  513PYPI    C1 7979   1.053   1.783  10.513 -0.0635 -0.1678  0.0108
  513PYPI    C2 7980   1.359   1.550  10.623 -0.1917 -0.1309  0.4637
  513PYPI    C3 7981   1.345   1.931  10.744  0.0594  0.1529 -0.3393
  513PYPI   PO4 7982   0.980   1.665  10.316  0.1390  0.1809 -0.1269
  513PYPI   GL1 7983   1.007   1.450   9.884 -0.0813  0.2261 -0.1294
  513PYPI   GL2 7984   0.698   1.383   9.914  0.1099 -0.3415  0.0781
  513PYPI   C1A 7985   0.938   1.440   9.443 -0.0821 -0.0015  0.2657
  513PYPI   C2A 7986   0.881   1.546   9.027 -0.0325 -0.3549 -0.0536
  513PYPI   D3A 7987   0.627   1.504   8.674 -0.2310 -0.0225  0.0227
  513PYPI   C4A 7988   0.464   1.836   8.327 -0.0506  0.2261 -0.0441
  513PYPI   C1B 7989   0.236   1.491   9.772 -0.1372  0.3882 -0.3935
  513PYPI   C2B 7990  -0.084   1.501   9.359 -0.1805 -0.0285  0.1595
  513PYPI   C3B 7991  -0.261   1.377   8.968  0.0240 -0.2471  0.1291
  513PYPI   C4B 7992  -0.455   1.168   8.631 -0.1088 -0.3296  0.2127
  514PYPI    C1 7993   3.193  16.514  10.220  0.1397 -0.0716  0.2130
  514PYPI    C2 7994   3.212  16.759  10.535  0.1102  0.0605  0.1128
  514PYPI    C3 7995   3.257  16.905  10.165 -0.1572 -0.0446  0.0368
  514PYPI   PO4 7996   3.010  16.388  10.160  0.0613 -0.1314 -0.1848
  514PYPI   GL1 7997   2.971  16.116   9.771 -0.1103  0.1728 -0.1134
  514PYPI   GL2 7998   3.187  15.980   9.919 -0.1525  0.2643 -0.1659
  514PYPI   C1A 7999   3.011  16.024   9.283  0.2741  0.0702 -0.1413
  514PYPI   C2A 8000   2.956  16.069   8.845  0.0025  0.3366 -0.0934
  514PYPI   D3A 8001   3.139  15.887   8.406  0.1193 -0.3296  0.2300
  514PYPI   C4A 8002   2.822  15.915   8.049 -0.1731  0.3430 -0.3162
  514PYPI   C1B 8003   3.446  16.018   9.559 -0.2226  0.1428 -0.2443
  514PYPI   C2B 8004   3.487  15.946   9.133  0.2411  0.0812 -0.0242
  514PYPI   C3B 8005   3.549  16.015   8.711 -0.3563  0.0140  0.0754
  514PYPI   C4B 8006   3.646  16.047   8.339 -0.2281  0.0842  0.3182
  515PYPI    C1 8007   3.935  14.409  10.718  0.0036  0.1310  0.1861
  515PYPI    C2 8008   3.809  14.057  10.861 -0.1599  0.1259  0.0322
  515PYPI    C3 8009   3.592  14.387  10.922 -0.1432  0.1532 -0.0543
  515PYPI   PO4 8010   4.038  14.395  10.494  0.2017 -0.0688 -0.2118
  515PYPI   GL1 8011   3.861  14.448  10.052  0.1082 -0.2545  0.1499
  515PYPI   GL2 8012   3.659  14.108   9.847 -0.0404 -0.2389  0.0593
  515PYPI   C1A 8013   4.022  14.399   9.576 -0.0464  0.2675 -0.0434
  515PYPI   C2A 8014   4.127  14.379   9.110 -0.0700  0.1103  0.0012
  515PYPI   D3A 8015   4.054  14.342   8.649 -0.0101  0.0477 -0.0416
  515PYPI   C4A 8016   4.219  14.736   8.404 -0.0722 -0.1162  0.1340
  515PYPI   C1B 8017   3.482  14.070   9.448  0.0952 -0.0666 -0.1227
  515PYPI   C2B 8018   3.250  13.942   9.074 -0.1145  0.0838 -0.1017
  515PYPI   C3B 8019   3.059  14.181   8.712 -0.0498  0.0519 -0.0328
  515PYPI   C4B 8020   2.949  14.154   8.303  0.2607 -0.0717  0.0220
  516PYPI    C1 8021   2.192  12.652  10.636  0.2781 -0.1826  0.1078
  516PYPI    C2 8022   1.850  12.447  10.668  0.0162  0.2385  0.0822
  516PYPI    C3 8023   2.195  12.253  10.606 -0.2437 -0.1774 -0.1032
  516PYPI   PO4 8024   2.202  12.797  10.444 -0.0110 -0.1216  0.1228
  516PYPI   GL1 8025   2.081  13.082  10.154  0.1313 -0.1266 -0.2478
  516PYPI   GL2 8026   2.292  12.946   9.913 -0.0303 -0.2591 -0.5337
  516PYPI   C1A 8027   2.041  13.381   9.735 -0.0557  0.1984 -0.3625
  516PYPI   C2A 8028   2.213  12.977   9.445  0.3338  0.1375  0.0305
  516PYPI   D3A 8029   1.997  13.025   9.087 -0.0902  0.0458 -0.2557
  516PYPI   C4A 8030   2.000  12.858   8.590  0.1490 -0.0312 -0.1789
  516PYPI   C1B 8031   2.173  12.529   9.709 -0.0913 -0.1253  0.1333
  516PYPI   C2B 8032   2.132  12.447   9.135  0.0108  0.1650  0.1690
  516PYPI   C3B 8033   2.224  12.415   8.657  0.1513 -0.0845  0.1787
  516PYPI   C4B 8034   2.198  12.422   8.334  0.1680  0.0671  0.3007
  517PYPI    C1 8035   0.138  17.524  10.820  0.1271 -0.1559 -0.0762
  517PYPI    C2 8036   0.358  17.308  11.074  0.1389  0.0925  0.1287
  517PYPI    C3 8037   0.203  17.658  11.191 -0.1386  0.0500 -0.1005
  517PYPI   PO4 8038   0.271  17.380  10.599  0.0741 -0.1670  0.1781
  517PYPI   GL1 8039   0.221  17.539  10.246  0.0290  0.0518  0.0716
  517PYPI   GL2 8040   0.466  17.549  10.108 -0.0071 -0.0394 -0.0916
  517PYPI   C1A 8041   0.044  17.637   9.869 -0.0450 -0.2483  0.2031
  517PYPI   C2A 8042   0.028  17.627   9.382 -0.2241  0.0219 -0.1532
  517PYPI   D3A 8043  -0.264  17.548   8.977  0.0021 -0.4704 -0.0548
  517PYPI   C4A 8044  -0.449  17.176   9.073 -0.2265  0.0425  0.0553
  517PYPI   C1B 8045   0.471  17.707   9.698 -0.0990  0.1050  0.1461
  517PYPI   C2B 8046   0.650  17.793   9.298  0.2077 -0.1167  0.0025
  517PYPI   C3B 8047   0.528  17.933   8.800 -0.1378  0.1582 -0.2285
  517PYPI   C4B 8048   0.715  17.796   8.422  0.1570 -0.2563  0.3499
  518PYPI    C1 8049   4.156   7.125  10.640 -0.3174 -0.1844 -0.0902
  518PYPI    C2 8050   4.213   6.776  10.827  0.4430 -0.0883 -0.1094
  518PYPI    C3 8051   4.185   7.114  11.039  0.3413 -0.0868 -0.1245
  518PYPI   PO4 8052   4.247   6.959  10.390  0.3739 -0.0405  0.0260
  518PYPI   GL1 8053   4.056   6.757  10.014  0.0304  0.2959  0.1882
  518PYPI   GL2 8054   4.270   6.793   9.772  0.2381  0.0992 -0.0986
  518PYPI   C1A 8055   3.800   7.039   9.774 -0.0324 -0.2996 -0.0518
  518PYPI   C2A 8056   3.784   7.110   9.422  0.0936 -0.0135 -0.0870
  518PYPI   D3A 8057   3.874   7.016   9.043  0.1469 -0.3288  0.3252
  518PYPI   C4A 8058   3.998   6.934   8.576  0.0099 -0.1842 -0.0530
  518PYPI   C1B 8059   4.267   6.858   9.378 -0.4958 -0.1635 -0.1386
  518PYPI   C2B 8060   4.336   6.813   9.054  0.0429  0.1285  0.2125
  518PYPI   C3B 8061   4.373   6.618   8.650  0.0696  0.0785 -0.3709
  518PYPI   C4B 8062   4.345   6.704   8.185  0.0869  0.1890 -0.0960
  519PYPI    C1 8063   0.367  15.642  10.867 -0.0220  0.0960  0.0215
  519PYPI    C2 8064   0.021  15.679  11.064 -0.0622  0.0148 -0.0333
  519PYPI    C3 8065   0.257  15.363  11.132 -0.0153  0.0524 -0.0214
  519PYPI   PO4 8066   0.313  15.686  10.666  0.0736 -0.1898 -0.0862
  519PYPI   GL1 8067   0.168  15.665  10.297 -0.3154  0.0248  0.2308
  519PYPI   GL2 8068  -0.061  15.906  10.168 -0.0613 -0.0473  0.2065
  519PYPI   C1A 8069   0.220  15.485   9.901 -0.0361  0.0032 -0.2067
  519PYPI   C2A 8070   0.237  15.430   9.529 -0.1165  0.0625  0.0064
  519PYPI   D3A 8071   0.185  15.556   9.161 -0.1215 -0.0231 -0.0386
  519PYPI   C4A 8072   0.108  15.264   8.808  0.0686  0.0127 -0.1365
  519PYPI   C1B 8073   0.116  15.966   9.852 -0.3766 -0.0692  0.1774
  519PYPI   C2B 8074   0.097  15.901   9.437 -0.1490 -0.2384  0.1103
  519PYPI   C3B 8075   0.166  16.023   8.914  0.2687  0.2803 -0.1709
  519PYPI   C4B 8076   0.020  16.305   8.539  0.1982  0.0367  0.1434
  520PYPI    C1 8077  11.905   6.440  10.929  0.1596  0.0816 -0.1272
  520PYPI    C2 8078  11.916   6.087  11.116 -0.0922  0.1233 -0.0292
  520PYPI    C3 8079  11.982   6.425  11.321 -0.1493  0.1537 -0.0607
  520PYPI   PO4 8080  12.105   6.437  10.786  0.3267 -0.1372  0.1557
  520PYPI   GL1 8081  12.007   6.457  10.280 -0.2799  0.0842  0.2131
  520PYPI   GL2 8082  11.829   6.610  10.189 -0.0222  0.0951 -0.0551
  520PYPI   C1A 8083  12.362   6.285  10.055  0.3802 -0.1401 -0.1009
  520PYPI   C2A 8084  12.600   6.601   9.842  0.1494 -0.1252 -0.0456
  520PYPI   D3A 8085  12.716   6.848   9.491 -0.1070 -0.2027  0.1721
  520PYPI   C4A 8086  12.843   6.821   9.112  0.0650  0.0440  0.1222
  520PYPI   C1B 8087  11.686   6.760   9.789  0.0808 -0.0400 -0.0200
  520PYPI   C2B 8088  11.425   6.848   9.604  0.3530 -0.0060 -0.2094
  520PYPI   C3B 8089  11.373   6.890   9.337 -0.3204  0.3359  0.0762
  520PYPI   C4B 8090  11.327   6.971   8.943  0.0494 -0.0131  0.1145
  521PYPI    C1 8091   4.136   1.350  10.552 -0.0024 -0.0616  0.1447
  521PYPI    C2 8092   4.498   1.517  10.571 -0.0236 -0.0257  0.2361
  521PYPI    C3 8093   4.351   1.323  10.888 -0.0717 -0.0666  0.1888
  521PYPI   PO4 8094   4.171   1.146  10.342  0.1509 -0.3402 -0.1423
  521PYPI   GL1 8095   4.421   1.238  10.026  0.1267  0.1545 -0.0097
  521PYPI   GL2 8096   4.504   0.893  10.027 -0.0600 -0.3250 -0.4409
  521PYPI   C1A 8097   4.344   1.469   9.728  0.0378  0.0207 -0.2393
  521PYPI   C2A 8098   4.327   1.674   9.404 -0.0045 -0.1560 -0.0121
  521PYPI   D3A 8099   4.639   1.834   9.146  0.0585  0.0419  0.1357
  521PYPI   C4A 8100   4.651   1.558   8.844  0.0042 -0.1135 -0.1165
  521PYPI   C1B 8101   4.669   0.961   9.683  0.1827  0.1815 -0.1341
  521PYPI   C2B 8102   4.928   0.723   9.465  0.2503 -0.2037 -0.2283
  521PYPI   C3B 8103   5.055   0.668   9.019 -0.3137 -0.0176 -0.0526
  521PYPI   C4B 8104   5.222   0.672   8.562 -0.1238  0.2181  0.0604
  522PYPI    C1 8105  16.037   6.694  11.020 -0.0406 -0.1404 -0.0292
  522PYPI    C2 8106  15.878   6.790  10.666  0.0608  0.0725 -0.0184
  522PYPI    C3 8107  15.725   6.944  11.002  0.2360  0.2162 -0.0025
  522PYPI   PO4 8108  16.043   6.428  11.068  0.4322  0.0828 -0.0513
  522PYPI   GL1 8109  16.063   6.193  10.724  0.2570 -0.1267 -0.3414
  522PYPI   GL2 8110  15.764   6.248  10.570 -0.0246  0.2672 -0.0180
  522PYPI   C1A 8111  16.268   6.112  10.418  0.4117 -0.4673  0.0411
  522PYPI   C2A 8112  16.259   6.072   9.914 -0.2778  0.0884  0.1897
  522PYPI   D3A 8113  16.155   6.036   9.589 -0.1147  0.1203 -0.0694
  522PYPI   C4A 8114  16.042   5.664   9.412 -0.0616  0.1095  0.3108
  522PYPI   C1B 8115  15.943   6.410  10.165  0.1673  0.0491 -0.0095
  522PYPI   C2B 8116  15.889   6.462   9.823  0.2534  0.2253  0.0469
  522PYPI   C3B 8117  15.919   6.398   9.312 -0.1104 -0.1499 -0.1705
  522PYPI   C4B 8118  16.005   6.057   9.048  0.0685 -0.0085  0.0448
  523PYPI    C1 8119   1.401  13.325  10.724 -0.2705  0.1449 -0.0266
  523PYPI    C2 8120   1.072  13.191  10.909 -0.1419 -0.0028  0.0992
  523PYPI    C3 8121   1.340  12.931  10.765 -0.0342  0.1178  0.0803
  523PYPI   PO4 8122   1.235  13.654  10.632  0.0657 -0.0533  0.0416
  523PYPI   GL1 8123   1.258  13.729  10.185 -0.2223  0.0907  0.0685
  523PYPI   GL2 8124   1.474  13.993  10.112  0.1013  0.2087 -0.0399
  523PYPI   C1A 8125   1.047  13.820   9.824 -0.1843  0.2265 -0.0948
  523PYPI   C2A 8126   0.935  14.196   9.515  0.0588  0.0170 -0.1151
  523PYPI   D3A 8127   1.015  14.172   9.145 -0.1649  0.3843 -0.1160
  523PYPI   C4A 8128   1.353  13.978   8.889  0.1668 -0.0898  0.0998
  523PYPI   C1B 8129   1.473  14.013   9.671 -0.2063  0.0698  0.1969
  523PYPI   C2B 8130   1.700  13.812   9.333  0.0143 -0.0598  0.0401
  523PYPI   C3B 8131   1.755  13.585   8.915 -0.0057  0.1780 -0.1121
  523PYPI   C4B 8132   1.576  13.605   8.550 -0.1570  0.0165  0.2566
  524PYPI    C1 8133  13.905   5.370  11.059  0.3451  0.1658 -0.0739
  524PYPI    C2 8134  14.235   5.485  11.255  0.2978 -0.0811  0.1580
  524PYPI    C3 8135  14.061   5.136  11.344 -0.0291  0.0470  0.0398
  524PYPI   PO4 8136  13.937   5.494  10.793 -0.3542  0.2616  0.0250
  524PYPI   GL1 8137  13.589   5.508  10.380  0.2500  0.0271 -0.1259
  524PYPI   GL2 8138  13.634   5.676  10.074 -0.1927 -0.1898  0.0516
  524PYPI   C1A 8139  13.339   5.121  10.165 -0.5807  0.0384 -0.1709
  524PYPI   C2A 8140  13.532   5.184   9.782  0.0534 -0.0450 -0.1182
  524PYPI   D3A 8141  13.686   5.161   9.316 -0.0224  0.0727 -0.1174
  524PYPI   C4A 8142  13.454   5.337   9.095  0.1215  0.3208 -0.1318
  524PYPI   C1B 8143  13.680   5.685   9.638  0.1511 -0.1621 -0.1225
  524PYPI   C2B 8144  13.773   5.721   9.284 -0.1136 -0.2012  0.2289
  524PYPI   C3B 8145  13.705   5.745   8.868  0.0834 -0.1119  0.2542
  524PYPI   C4B 8146  13.414   5.492   8.640 -0.1140 -0.0679  0.3146
  525PYPI    C1 8147  16.553   6.908  10.989 -0.1351 -0.0583  0.1698
  525PYPI    C2 8148  16.623   7.144  11.305  0.2474  0.0601  0.0019
  525PYPI    C3 8149  16.411   6.808  11.349  0.2150  0.1246  0.3641
  525PYPI   PO4 8150  16.404   7.092  10.828 -0.1289  0.0329  0.1448
  525PYPI   GL1 8151  16.172   7.094  10.435 -0.1730 -0.3566 -0.2494
  525PYPI   GL2 8152  16.494   7.149  10.351  0.1219  0.2642 -0.0741
  525PYPI   C1A 8153  16.013   6.937  10.056 -0.0701 -0.1124 -0.0163
  525PYPI   C2A 8154  15.988   6.856   9.599 -0.2535  0.0206  0.2501
  525PYPI   D3A 8155  15.968   6.855   9.190 -0.0915 -0.3309  0.0293
  525PYPI   C4A 8156  16.059   6.671   8.756  0.1415 -0.1764 -0.0835
  525PYPI   C1B 8157  16.491   7.176   9.949 -0.2668 -0.1677 -0.1214
  525PYPI   C2B 8158  16.479   7.012   9.492  0.1010  0.0138 -0.1656
  525PYPI   C3B 8159  16.511   6.860   9.067 -0.3602 -0.1588  0.0819
  525PYPI   C4B 8160  16.940   6.719   8.809 -0.1024 -0.0123  0.1543
  526PYPI    C1 8161  16.169  16.431  10.999 -0.0994 -0.0997 -0.0777
  526PYPI    C2 8162  16.431  16.141  10.911  0.3340  0.1973  0.1924
  526PYPI    C3 8163  16.205  16.114  11.240  0.0824 -0.0173  0.0061
  526PYPI   PO4 8164  15.975  16.473  10.820 -0.1929  0.1680  0.3309
  526PYPI   GL1 8165  16.207  16.465  10.418 -0.2352 -0.2025 -0.2230
  526PYPI   GL2 8166  15.885  16.308  10.251 -0.0392  0.2112 -0.2560
  526PYPI   C1A 8167  16.164  16.818  10.178 -0.0198 -0.4033  0.0393
  526PYPI   C2A 8168  16.243  16.731   9.656  0.1518  0.2245 -0.1915
  526PYPI   D3A 8169  16.462  16.819   9.307 -0.0221  0.0744  0.0430
  526PYPI   C4A 8170  16.462  17.006   8.817  0.2843 -0.1871 -0.2900
  526PYPI   C1B 8171  15.816  16.558  10.013  0.1354 -0.3133  0.0097
  526PYPI   C2B 8172  15.789  16.630   9.520 -0.0965  0.0814  0.2587
  526PYPI   C3B 8173  16.004  16.713   9.130 -0.0833 -0.1061 -0.0185
  526PYPI   C4B 8174  16.004  16.731   8.724 -0.1899  0.1231 -0.0543
  527PYPI    C1 8175   6.516   6.372  10.349  0.1929 -0.1372 -0.1117
  527PYPI    C2 8176   6.339   6.053  10.513  0.0704 -0.0624 -0.0971
  527PYPI    C3 8177   6.195   6.419  10.583  0.2254 -0.0012 -0.0939
  527PYPI   PO4 8178   6.555   6.254  10.075 -0.1549 -0.2091 -0.0230
  527PYPI   GL1 8179   6.393   6.041   9.693 -0.3287 -0.3520  0.1410
  527PYPI   GL2 8180   6.400   5.718   9.641 -0.0222  0.1852 -0.0950
  527PYPI   C1A 8181   6.110   6.419   9.539 -0.0863  0.0907  0.0374
  527PYPI   C2A 8182   5.749   6.567   9.343  0.1547  0.1122  0.1458
  527PYPI   D3A 8183   5.513   6.550   8.960  0.0660  0.1307 -0.0683
  527PYPI   C4A 8184   5.794   6.469   8.650 -0.0014 -0.1819 -0.1433
  527PYPI   C1B 8185   6.341   5.834   9.241 -0.3459  0.0677 -0.0960
  527PYPI   C2B 8186   6.325   5.823   8.792  0.2670  0.2340  0.4333
  527PYPI   C3B 8187   6.195   6.108   8.478 -0.0726  0.3177  0.1215
  527PYPI   C4B 8188   5.963   6.457   8.200  0.0697  0.3239  0.2424
  528PYPI    C1 8189   0.641  14.261  11.007 -0.0598 -0.3144  0.0777
  528PYPI    C2 8190   0.592  14.226  11.402  0.0212  0.0397  0.1229
  528PYPI    C3 8191   0.361  14.477  11.194  0.0169 -0.1036 -0.0473
  528PYPI   PO4 8192   0.709  13.987  10.889 -0.2127  0.0652  0.0337
  528PYPI   GL1 8193   0.826  13.925  10.427 -0.1164 -0.0840 -0.1525
  528PYPI   GL2 8194   0.586  13.866  10.419 -0.0140  0.1206 -0.1309
  528PYPI   C1A 8195   0.986  14.209  10.143  0.0623 -0.1860 -0.0998
  528PYPI   C2A 8196   1.376  14.437  10.006  0.0143 -0.3572  0.4968
  528PYPI   D3A 8197   1.576  14.761   9.780  0.0780 -0.1493  0.0087
  528PYPI   C4A 8198   1.722  14.735   9.431 -0.0929  0.3072 -0.2060
  528PYPI   C1B 8199   0.553  13.660  10.006 -0.2377  0.0782  0.1865
  528PYPI   C2B 8200   0.415  13.573   9.538 -0.1675 -0.1481  0.1819
  528PYPI   C3B 8201   0.301  13.714   9.072 -0.2240 -0.0250 -0.1005
  528PYPI   C4B 8202   0.444  13.983   8.669 -0.0913  0.1908 -0.2854
  529PYPI    C1 8203  17.337   0.918  11.035  0.1074 -0.0310  0.3150
  529PYPI    C2 8204  17.639   1.178  11.066  0.1517 -0.0593  0.1284
  529PYPI    C3 8205  17.510   0.982  11.390  0.2558  0.0397  0.2306
  529PYPI   PO4 8206  17.399   0.914  10.719 -0.0724 -0.0792  0.0079
  529PYPI   GL1 8207  17.523   0.815  10.324  0.0053  0.2139  0.2870
  529PYPI   GL2 8208  17.382   0.558  10.311  0.0846  0.0360 -0.0116
  529PYPI   C1A 8209  17.757   0.805   9.947  0.2079 -0.3814 -0.0112
  529PYPI   C2A 8210  17.738   0.916   9.549 -0.0992  0.0058  0.2628
  529PYPI   D3A 8211  17.629   0.990   9.098 -0.0541  0.2901 -0.2522
  529PYPI   C4A 8212  17.673   0.707   8.731 -0.0034 -0.1289 -0.0624
  529PYPI   C1B 8213  17.288   0.556   9.909  0.1005 -0.0955 -0.2402
  529PYPI   C2B 8214  17.091   0.657   9.533  0.0940  0.1165 -0.0468
  529PYPI   C3B 8215  16.966   0.616   9.074 -0.2212  0.0544  0.0802
  529PYPI   C4B 8216  16.699   0.432   8.791  0.1725  0.5410 -0.2760
  530PYPI    C1 8217  12.202   0.546  10.558  0.0266  0.1288 -0.5037
  530PYPI    C2 8218  11.863   0.606  10.353 -0.2726  0.1385 -0.0222
  530PYPI    C3 8219  11.981   0.873  10.627 -0.0671 -0.0449  0.0715
  530PYPI   PO4 8220  12.394   0.565  10.401 -0.0813 -0.2468  0.0535
  530PYPI   GL1 8221  12.570   0.585   9.954  0.1416  0.0020 -0.0945
  530PYPI   GL2 8222  12.198   0.669   9.966 -0.0275  0.0250 -0.0040
  530PYPI   C1A 8223  12.500   0.404   9.562 -0.1243 -0.0081  0.4181
  530PYPI   C2A 8224  12.587   0.279   9.146 -0.1069 -0.2271 -0.0372
  530PYPI   D3A 8225  12.546   0.222   8.697 -0.1140  0.0603  0.1135
  530PYPI   C4A 8226  12.632   0.511   8.396  0.0352 -0.0710 -0.1952
  530PYPI   C1B 8227  12.089   0.724   9.496 -0.0302  0.2068  0.1650
  530PYPI   C2B 8228  12.153   0.633   9.046 -0.0201 -0.0225 -0.1536
  530PYPI   C3B 8229  12.214   0.582   8.630  0.0125  0.0514 -0.1720
  530PYPI   C4B 8230  12.236   0.411   8.202  0.0221  0.1826  0.1198
  531PYPI    C1 8231   8.658   2.036  10.338  0.1861 -0.1564 -0.1196
  531PYPI    C2 8232   8.662   2.396  10.511  0.2337 -0.1482 -0.1376
  531PYPI    C3 8233   8.324   2.182  10.503  0.2177 -0.1254 -0.0828
  531PYPI   PO4 8234   8.972   2.059  10.211  0.1054  0.0161  0.1007
  531PYPI   GL1 8235   8.917   2.526  10.045 -0.0832  0.1593 -0.2921
  531PYPI   GL2 8236   8.733   2.302   9.820 -0.0339  0.0631  0.0374
  531PYPI   C1A 8237   9.088   2.601   9.598  0.2329 -0.1677  0.0736
  531PYPI   C2A 8238   8.974   2.593   9.214 -0.1596 -0.2594 -0.0374
  531PYPI   D3A 8239   9.034   2.467   8.861 -0.1714 -0.3673 -0.3099
  531PYPI   C4A 8240   9.212   2.508   8.450 -0.0824  0.2600 -0.0482
  531PYPI   C1B 8241   8.894   2.121   9.399 -0.0606 -0.1078 -0.0554
  531PYPI   C2B 8242   9.282   2.094   9.103 -0.2693 -0.0315  0.1402
  531PYPI   C3B 8243   9.399   2.112   8.734  0.2537  0.0561  0.1806
  531PYPI   C4B 8244   9.724   1.861   8.479  0.3019 -0.1426 -0.0137
  532PYPI    C1 8245   0.565   4.712  11.157 -0.1649 -0.0695 -0.0018
  532PYPI    C2 8246   0.607   4.376  10.945  0.0421 -0.0355 -0.0168
  532PYPI    C3 8247   0.710   4.383  11.331  0.1891  0.0527 -0.0566
  532PYPI   PO4 8248   0.561   4.897  10.926 -0.4748 -0.2110  0.0901
  532PYPI   GL1 8249   0.440   5.075  10.516  0.2408 -0.2574  0.0215
  532PYPI   GL2 8250   0.534   5.391  10.572 -0.1816  0.0574  0.4004
  532PYPI   C1A 8251   0.448   4.852  10.198 -0.0504 -0.1281 -0.2576
  532PYPI   C2A 8252   0.292   4.731   9.752 -0.0643 -0.0346 -0.1916
  532PYPI   D3A 8253   0.102   4.762   9.397  0.0035  0.2881  0.1118
  532PYPI   C4A 8254  -0.069   4.567   9.090  0.2339 -0.1538 -0.1095
  532PYPI   C1B 8255   0.618   5.475  10.123  0.0266  0.0407  0.1783
  532PYPI   C2B 8256   0.476   5.567   9.743  0.0956 -0.1591 -0.0061
  532PYPI   C3B 8257   0.235   5.884   9.529  0.0640 -0.2310  0.1419
  532PYPI   C4B 8258   0.031   5.869   9.168  0.2162 -0.0398 -0.2410
  533PYPI    C1 8259  17.004   6.713  11.251  0.1972 -0.0816  0.0429
  533PYPI    C2 8260  16.756   6.450  11.422 -0.2067  0.3202  0.0967
  533PYPI    C3 8261  17.092   6.559  11.609 -0.0589 -0.1120  0.0946
  533PYPI   PO4 8262  16.977   6.584  10.969  0.2599 -0.0827  0.1906
  533PYPI   GL1 8263  17.189   6.584  10.592 -0.0358 -0.0073 -0.1319
  533PYPI   GL2 8264  16.881   6.886  10.557 -0.2148  0.0437 -0.2057
  533PYPI   C1A 8265  17.244   6.566  10.162 -0.0717  0.2641  0.3532
  533PYPI   C2A 8266  17.151   6.810   9.792  0.0582  0.3956  0.0590
  533PYPI   D3A 8267  16.894   6.755   9.399 -0.0862  0.0702 -0.0225
  533PYPI   C4A 8268  16.835   6.377   9.212  0.0876  0.4273 -0.3230
  533PYPI   C1B 8269  16.986   7.171  10.142 -0.0617 -0.2904  0.1121
  533PYPI   C2B 8270  16.973   7.233   9.750  0.2851  0.0189  0.1927
  533PYPI   C3B 8271  16.951   7.180   9.263 -0.1751 -0.1327 -0.0386
  533PYPI   C4B 8272  16.673   7.215   8.801 -0.0961 -0.1443  0.0405
  534PYPI    C1 8273   6.353  17.087  10.412 -0.0551  0.1412 -0.1313
  534PYPI    C2 8274   6.581  16.845  10.633 -0.1755  0.0902 -0.0616
  534PYPI    C3 8275   6.373  17.138  10.808  0.1064  0.3578 -0.1656
  534PYPI   PO4 8276   6.482  17.021  10.109  0.0557  0.1098 -0.2993
  534PYPI   GL1 8277   6.634  16.979   9.747 -0.0378 -0.0138  0.1255
  534PYPI   GL2 8278   6.414  16.982   9.605  0.1079  0.0244 -0.1394
  534PYPI   C1A 8279   6.776  16.706   9.371  0.0920 -0.1077 -0.0912
  534PYPI   C2A 8280   6.713  16.917   9.036  0.0248 -0.3220  0.2135
  534PYPI   D3A 8281   6.802  16.768   8.630  0.1102 -0.0529 -0.1249
  534PYPI   C4A 8282   6.448  16.659   8.440  0.1598  0.0981  0.0605
  534PYPI   C1B 8283   6.290  16.945   9.231  0.0600 -0.1023  0.4285
  534PYPI   C2B 8284   6.287  16.843   8.860  0.0998  0.1477 -0.1669
  534PYPI   C3B 8285   6.099  17.071   8.615 -0.0632 -0.1929  0.0590
  534PYPI   C4B 8286   6.174  17.058   8.162  0.1124  0.0565  0.2347
  535PYPI    C1 8287  11.586   4.002  10.380  0.0798 -0.1335 -0.0117
  535PYPI    C2 8288  11.348   4.219  10.617  0.0908 -0.0647 -0.0633
  535PYPI    C3 8289  11.598   3.950  10.776  0.0684 -0.0482  0.0001
  535PYPI   PO4 8290  11.426   3.908  10.225 -0.2266 -0.0719  0.0408
  535PYPI   GL1 8291  11.297   3.920   9.784  0.2625 -0.1654  0.0041
  535PYPI   GL2 8292  11.317   4.205   9.688 -0.0477 -0.2543 -0.1482
  535PYPI   C1A 8293  11.627   3.722   9.570 -0.1163  0.1455 -0.1211
  535PYPI   C2A 8294  11.735   3.704   9.113  0.5350  0.2307  0.0647
  535PYPI   D3A 8295  11.947   3.539   8.726 -0.1854 -0.2639 -0.0677
  535PYPI   C4A 8296  11.661   3.304   8.466 -0.2032 -0.0219 -0.1798
  535PYPI   C1B 8297  11.340   4.261   9.249  0.3785 -0.1530 -0.1235
  535PYPI   C2B 8298  11.395   4.341   8.744 -0.1293  0.1533 -0.1485
  535PYPI   C3B 8299  11.523   4.270   8.384  0.0916 -0.0366  0.2466
  535PYPI   C4B 8300  11.875   4.222   8.126 -0.1302 -0.3245  0.1735
  536PYPI    C1 8301   4.149  11.032  10.618  0.1533  0.1172  0.0376
  536PYPI    C2 8302   4.080  10.802  10.938 -0.0930  0.1916  0.0404
  536PYPI    C3 8303   4.356  11.091  10.955 -0.0412  0.1363  0.1555
  536PYPI   PO4 8304   4.198  10.844  10.404  0.2063 -0.1712 -0.0432
  536PYPI   GL1 8305   4.145  10.804   9.928  0.2503 -0.0678 -0.0382
  536PYPI   GL2 8306   4.055  11.047   9.905  0.0175  0.0408 -0.0982
  536PYPI   C1A 8307   3.902  10.895   9.448 -0.0460 -0.0829  0.1171
  536PYPI   C2A 8308   3.864  10.524   9.111  0.0374  0.3256  0.1819
  536PYPI   D3A 8309   3.980  10.479   8.711 -0.0130 -0.0279 -0.1771
  536PYPI   C4A 8310   3.603  10.492   8.505  0.0552  0.1540  0.0188
  536PYPI   C1B 8311   3.865  10.492   9.693 -0.0757 -0.0441  0.0769
  536PYPI   C2B 8312   3.566  10.209   9.385  0.2667 -0.0040 -0.2965
  536PYPI   C3B 8313   3.255   9.915   9.236  0.1919  0.3930  0.0733
  536PYPI   C4B 8314   3.019   9.781   9.061  0.3345  0.0424  0.2610
  537PYPI    C1 8315   6.923   5.919  10.484 -0.1384 -0.0813  0.2771
  537PYPI    C2 8316   6.683   5.767  10.764 -0.3165  0.1063  0.2289
  537PYPI    C3 8317   6.789   6.152  10.780 -0.0540  0.0357  0.2242
  537PYPI   PO4 8318   6.800   5.848  10.304  0.1633 -0.0063  0.2152
  537PYPI   GL1 8319   6.816   5.810   9.906  0.1325 -0.1914  0.3165
  537PYPI   GL2 8320   6.768   5.535   9.849 -0.0275 -0.1297  0.1612
  537PYPI   C1A 8321   6.851   5.927   9.498  0.0896  0.0313 -0.0345
  537PYPI   C2A 8322   6.821   5.933   9.081  0.4140 -0.0955  0.0380
  537PYPI   D3A 8323   7.007   5.978   8.744  0.2095  0.1190 -0.0697
  537PYPI   C4A 8324   6.901   5.679   8.400  0.2006  0.3893 -0.1008
  537PYPI   C1B 8325   6.668   5.442   9.338 -0.2604  0.0096  0.1924
  537PYPI   C2B 8326   6.609   5.397   8.950 -0.1511 -0.0791  0.1976
  537PYPI   C3B 8327   6.573   5.340   8.505 -0.1330 -0.0785  0.1579
  537PYPI   C4B 8328   6.401   5.424   8.133 -0.0391 -0.0665 -0.2099
  538PYPI    C1 8329   5.542   7.892  10.262 -0.0007 -0.0403 -0.1920
  538PYPI    C2 8330   5.506   7.504  10.173 -0.2390 -0.0268 -0.1591
  538PYPI    C3 8331   5.596   7.616  10.546 -0.0681 -0.0530 -0.1916
  538PYPI   PO4 8332   5.760   8.061  10.070 -0.0020  0.0776  0.0280
  538PYPI   GL1 8333   6.003   7.910   9.805  0.1761  0.0810  0.0746
  538PYPI   GL2 8334   5.890   7.654   9.838  0.2543 -0.2681  0.0803
  538PYPI   C1A 8335   5.876   8.113   9.425 -0.0418  0.2322  0.2981
  538PYPI   C2A 8336   5.796   8.377   9.126 -0.1188  0.0863  0.1879
  538PYPI   D3A 8337   5.851   8.442   8.708 -0.1165 -0.2602 -0.1766
  538PYPI   C4A 8338   5.623   8.644   8.466 -0.1749 -0.0211  0.0093
  538PYPI   C1B 8339   5.926   7.433   9.490 -0.2495 -0.0973  0.2124
  538PYPI   C2B 8340   6.045   7.580   9.103 -0.1734  0.0859 -0.0181
  538PYPI   C3B 8341   5.987   7.585   8.659 -0.2581 -0.0683 -0.2270
  538PYPI   C4B 8342   6.137   7.545   8.234 -0.1555  0.0111  0.3344
  539PYPI    C1 8343  17.668  10.990  11.021  0.2364 -0.1483  0.1686
  539PYPI    C2 8344  17.748  11.242  11.322  0.1648  0.1433 -0.0523
  539PYPI    C3 8345  17.474  10.954  11.369  0.0314  0.2947  0.1067
  539PYPI   PO4 8346  17.473  11.149  10.794 -0.2219  0.1960 -0.0168
  539PYPI   GL1 8347  17.446  11.123  10.353 -0.1233  0.2828  0.1791
  539PYPI   GL2 8348  17.612  10.980  10.068 -0.1598 -0.0906  0.0861
  539PYPI   C1A 8349  17.188  11.191  10.016  0.0138 -0.1193  0.0619
  539PYPI   C2A 8350  17.065  10.965   9.665 -0.0881  0.0937  0.1626
  539PYPI   D3A 8351  16.947  10.716   9.211 -0.1634 -0.2293 -0.1789
  539PYPI   C4A 8352  17.258  10.787   8.869 -0.1051 -0.0079 -0.1679
  539PYPI   C1B 8353  17.490  10.738   9.764  0.2661 -0.0858 -0.2024
  539PYPI   C2B 8354  17.450  10.650   9.352 -0.2360 -0.0734 -0.2377
  539PYPI   C3B 8355  17.505  10.347   9.101  0.0838 -0.1227  0.2214
  539PYPI   C4B 8356  17.651  10.059   8.901  0.1586  0.1520 -0.0235
  540ERGO   ROH 8357  10.975   1.213   9.787 -0.2621 -0.0845  0.0257
  540ERGO    R1 8358  11.000   1.345   9.538 -0.1864 -0.0503  0.0515
  540ERGO    R2 8359  11.230   1.333   9.385 -0.1560 -0.0643  0.1006
  540ERGO    R3 8360  11.059   1.248   9.192 -0.1275 -0.0060  0.0488
  540ERGO    R4 8361  11.319   1.270   9.057 -0.0647 -0.1556  0.1421
  540ERGO    R5 8362  11.132   1.362   8.994  0.0041 -0.0697  0.0587
  540ERGO    C1 8363  11.210   1.153   8.685  0.0153 -0.1539  0.1176
  540ERGO    C2 8364  11.055   1.010   8.517  0.0133 -0.1820  0.1580
  541ERGO   ROH 8365  10.439   4.224   9.518 -0.1103 -0.2271  0.0051
  541ERGO    R1 8366  10.311   4.155   9.275 -0.0235 -0.3646 -0.0021
  541ERGO    R2 8367  10.337   4.307   9.045 -0.2564 -0.2773  0.0314
  541ERGO    R3 8368  10.415   4.071   8.936  0.0849 -0.1443 -0.0268
  541ERGO    R4 8369  10.365   4.246   8.706 -0.2579 -0.1747  0.0119
  541ERGO    R5 8370  10.279   4.048   8.740  0.0573 -0.3222  0.0075
  541ERGO    C1 8371  10.455   3.989   8.406  0.0616  0.0099 -0.0540
  541ERGO    C2 8372  10.295   3.985   8.030  0.3156 -0.1087  0.1360
  542ERGO   ROH 8373  13.983  10.951  10.048  0.2207 -0.0544 -0.0960
  542ERGO    R1 8374  14.071  10.903   9.784  0.1076 -0.2358 -0.1034
  542ERGO    R2 8375  14.030  10.662   9.655 -0.2927 -0.2012 -0.0631
  542ERGO    R3 8376  13.916  10.820   9.465 -0.0770 -0.0450 -0.0639
  542ERGO    R4 8377  13.980  10.570   9.325 -0.3455 -0.0962 -0.0840
  542ERGO    R5 8378  14.040  10.771   9.265 -0.1025 -0.1600 -0.0477
  542ERGO    C1 8379  13.846  10.666   8.955 -0.1738  0.1115 -0.0968
  542ERGO    C2 8380  13.781  10.653   8.637 -0.0923  0.0625  0.0025
  543ERGO   ROH 8381   7.771  17.119  10.064  0.0024 -0.1110  0.0809
  543ERGO    R1 8382   7.712  17.265   9.829 -0.1004 -0.1629  0.0748
  543ERGO    R2 8383   7.882  17.271   9.611 -0.1271 -0.0900  0.0610
  543ERGO    R3 8384   7.660  17.190   9.477 -0.0967 -0.2187  0.0848
  543ERGO    R4 8385   7.816  17.342   9.280 -0.2581 -0.0135  0.1017
  543ERGO    R5 8386   7.607  17.375   9.333 -0.2775 -0.2006  0.1667
  543ERGO    C1 8387   7.569  17.306   8.960 -0.3058 -0.0898  0.1478
  543ERGO    C2 8388   7.399  17.543   8.675 -0.1196 -0.0094  0.0893
  544ERGO   ROH 8389   1.838   1.268   9.890 -0.0513  0.1928  0.0085
  544ERGO    R1 8390   1.985   1.187   9.662 -0.1529  0.1366 -0.0379
  544ERGO    R2 8391   1.888   1.213   9.405 -0.2039  0.2186 -0.0101
  544ERGO    R3 8392   2.121   1.347   9.365 -0.1396  0.0948 -0.0545
  544ERGO    R4 8393   1.966   1.391   9.120 -0.2174  0.2813  0.0251
  544ERGO    R5 8394   2.169   1.313   9.132 -0.2570  0.1538 -0.0887
  544ERGO    C1 8395   2.230   1.621   8.915 -0.1651  0.2017  0.0040
  544ERGO    C2 8396   2.237   1.851   8.628  0.3098 -0.1734  0.1417
  545ERGO   ROH 8397   1.604   2.293   9.978 -0.0987  0.0016 -0.0607
  545ERGO    R1 8398   1.621   2.401   9.717  0.1036 -0.0836 -0.0848
  545ERGO    R2 8399   1.744   2.267   9.508 -0.0931 -0.3374 -0.0462
  545ERGO    R3 8400   1.506   2.308   9.384 -0.0207  0.0271 -0.0726
  545ERGO    R4 8401   1.695   2.265   9.166 -0.0398 -0.1329 -0.0554
  545ERGO    R5 8402   1.561   2.434   9.189  0.1778  0.0359 -0.0114
  545ERGO    C1 8403   1.443   2.303   8.851  0.0592  0.3283 -0.0854
  545ERGO    C2 8404   1.275   2.256   8.612  0.2889  0.2789  0.0881
  546ERGO   ROH 8405  14.061  12.583  10.204  0.1533 -0.3629 -0.0367
  546ERGO    R1 8406  14.043  12.656   9.931  0.0332 -0.1982  0.0128
  546ERGO    R2 8407  13.831  12.580   9.770 -0.0171 -0.1383  0.0480
  546ERGO    R3 8408  13.814  12.847   9.722 -0.0843 -0.1107  0.2200
  546ERGO    R4 8409  13.785  12.723   9.459  0.2335  0.0648  0.1005
  546ERGO    R5 8410  13.928  12.878   9.514  0.1116  0.0890  0.3532
  546ERGO    C1 8411  13.742  13.057   9.233  0.3164  0.2090  0.2925
  546ERGO    C2 8412  13.713  13.272   8.877  0.2356 -0.1570  0.2203
  547ERGO   ROH 8413   6.545   3.587   9.899  0.0890  0.0433  0.0933
  547ERGO    R1 8414   6.528   3.523   9.624 -0.0063  0.0155  0.1053
  547ERGO    R2 8415   6.325   3.616   9.462 -0.0478  0.0215  0.1597
  547ERGO    R3 8416   6.532   3.705   9.310 -0.0856 -0.0188  0.0844
  547ERGO    R4 8417   6.309   3.674   9.122 -0.1368 -0.0499  0.1515
  547ERGO    R5 8418   6.508   3.587   9.102 -0.1458 -0.0614  0.1158
  547ERGO    C1 8419   6.494   3.791   8.780 -0.2241 -0.1294  0.0759
  547ERGO    C2 8420   6.304   3.782   8.522  0.1500  0.0572 -0.1154
  548ERGO   ROH 8421   2.161  15.882   9.936  0.0247 -0.0448  0.0643
  548ERGO    R1 8422   2.028  15.780   9.708  0.1193 -0.2617  0.1057
  548ERGO    R2 8423   1.951  15.941   9.496 -0.2508 -0.3749  0.1547
  548ERGO    R3 8424   2.094  15.762   9.350  0.0187 -0.1070  0.0775
  548ERGO    R4 8425   1.948  15.919   9.152 -0.1550 -0.1848  0.1390
  548ERGO    R5 8426   1.949  15.702   9.170  0.1288 -0.2001  0.0158
  548ERGO    C1 8427   2.080  15.739   8.814  0.1539  0.1775  0.0573
  548ERGO    C2 8428   2.107  15.922   8.463  0.0564 -0.0782  0.3251
  549ERGO   ROH 8429   4.105  18.151  10.000  0.0202 -0.1479 -0.0817
  549ERGO    R1 8430   4.178  18.278   9.758 -0.0970 -0.0299 -0.0560
  549ERGO    R2 8431   4.400  18.204   9.611 -0.0295  0.1993 -0.0766
  549ERGO    R3 8432   4.218  18.181   9.409 -0.0147  0.0795 -0.0770
  549ERGO    R4 8433   4.471  18.245   9.275 -0.0684  0.3003 -0.0729
  549ERGO    R5 8434   4.282  18.351   9.253 -0.1542  0.1510 -0.0563
  549ERGO    C1 8435   4.342  18.247   8.890 -0.0772  0.2463 -0.0711
  549ERGO    C2 8436   4.279  18.344   8.570  0.0285  0.1076 -0.1332
  550ERGO   ROH 8437  15.262   5.947  10.550 -0.3073 -0.0938 -0.1004
  550ERGO    R1 8438  15.227   6.043  10.286 -0.1790  0.0242 -0.0759
  550ERGO    R2 8439  15.411   6.206  10.162  0.0680 -0.2263 -0.0496
  550ERGO    R3 8440  15.402   6.015   9.969 -0.2402 -0.1731 -0.0934
  550ERGO    R4 8441  15.353   6.266   9.826  0.0757 -0.0687 -0.0237
  550ERGO    R5 8442  15.229   6.087   9.821 -0.1753  0.1025 -0.0394
  550ERGO    C1 8443  15.311   6.121   9.450 -0.2093  0.0729 -0.0495
  550ERGO    C2 8444  15.526   6.083   9.221  0.1031  0.1535 -0.0366
  551ERGO   ROH 8445   5.871  10.444   9.430 -0.1862 -0.0095  0.0769
  551ERGO    R1 8446   5.997  10.517   9.188 -0.1097  0.0945  0.1472
  551ERGO    R2 8447   5.958  10.378   8.952  0.1471  0.0537  0.1281
  551ERGO    R3 8448   5.890  10.623   8.856 -0.0125 -0.0068  0.0824
  551ERGO    R4 8449   5.885  10.448   8.622  0.1398 -0.0503  0.1072
  551ERGO    R5 8450   5.995  10.634   8.641  0.0084  0.0322  0.0932
  551ERGO    C1 8451   5.778  10.719   8.339 -0.0142 -0.1677  0.0520
  551ERGO    C2 8452   5.564  10.993   8.081 -0.1661 -0.0463 -0.1060
  552ERGO   ROH 8453   6.648  17.456   9.946  0.1268 -0.1947  0.0456
  552ERGO    R1 8454   6.593  17.520   9.675 -0.1365 -0.0980  0.1183
  552ERGO    R2 8455   6.789  17.524   9.481 -0.2457  0.3751  0.0027
  552ERGO    R3 8456   6.621  17.352   9.354 -0.0266  0.1685 -0.0131
  552ERGO    R4 8457   6.725  17.525   9.141 -0.2099  0.2821 -0.0045
  552ERGO    R5 8458   6.515  17.485   9.186 -0.1676  0.0334 -0.0299
  552ERGO    C1 8459   6.530  17.363   8.824  0.0167  0.0339 -0.0234
  552ERGO    C2 8460   6.573  17.188   8.488  0.0894  0.1382 -0.1798
  553ERGO   ROH 8461   3.293  17.964  10.249  0.0534 -0.0059 -0.0119
  553ERGO    R1 8462   3.155  17.997  10.003  0.0114 -0.1541 -0.0093
  553ERGO    R2 8463   3.232  18.183   9.813 -0.2047 -0.0546 -0.0021
  553ERGO    R3 8464   3.235  17.966   9.650  0.0456 -0.0471 -0.0111
  553ERGO    R4 8465   3.211  18.195   9.469 -0.3364 -0.0688  0.0045
  553ERGO    R5 8466   3.081  18.021   9.475 -0.0922 -0.2552  0.0419
  553ERGO    C1 8467   3.203  17.999   9.114 -0.1782 -0.0701  0.0001
  553ERGO    C2 8468   3.021  17.907   8.836 -0.1350  0.0550  0.1597
  554ERGO   ROH 8469   5.475  15.537   9.588 -0.3039  0.0479  0.0312
  554ERGO    R1 8470   5.359  15.700   9.388 -0.1912  0.0851 -0.0074
  554ERGO    R2 8471   5.507  15.815   9.185 -0.0649  0.1592  0.1116
  554ERGO    R3 8472   5.325  15.691   9.026  0.0569  0.1671 -0.0319
  554ERGO    R4 8473   5.402  15.932   8.877  0.0575  0.2315  0.0987
  554ERGO    R5 8474   5.200  15.870   8.929  0.0559  0.1555 -0.0349
  554ERGO    C1 8475   5.171  15.883   8.549  0.2431  0.2810 -0.0437
  554ERGO    C2 8476   4.975  15.916   8.317 -0.2207  0.2297 -0.3260
  555ERGO   ROH 8477   4.168  17.679   9.958 -0.3207  0.1200  0.0484
  555ERGO    R1 8478   4.173  17.802   9.704 -0.1009  0.0497  0.0159
  555ERGO    R2 8479   4.356  17.733   9.508 -0.0072 -0.0934  0.1432
  555ERGO    R3 8480   4.133  17.697   9.358  0.0650 -0.0278  0.0213
  555ERGO    R4 8481   4.351  17.720   9.163  0.1547 -0.0366  0.1386
  555ERGO    R5 8482   4.168  17.837   9.166  0.1806 -0.0081  0.0628
  555ERGO    C1 8483   4.139  17.679   8.820  0.3168  0.0583  0.0214
  555ERGO    C2 8484   3.964  17.762   8.522 -0.2537  0.2721 -0.0488
  556ERGO   ROH 8485  10.706  18.085   9.783 -0.0931 -0.2020  0.1545
  556ERGO    R1 8486  10.693  18.172   9.514 -0.0235 -0.1595  0.1655
  556ERGO    R2 8487  10.805  18.028   9.305  0.0116 -0.1355  0.1721
  556ERGO    R3 8488  10.554  18.046   9.202  0.0379 -0.0981  0.1119
  556ERGO    R4 8489  10.719  17.960   8.977  0.1209  0.0868  0.0944
  556ERGO    R5 8490  10.586  18.131   8.981  0.0934  0.0678  0.1793
  556ERGO    C1 8491  10.434  17.937   8.690  0.2092  0.2511 -0.0072
  556ERGO    C2 8492  10.426  17.883   8.411 -0.1858  0.3055 -0.2472
  557ERGO   ROH 8493   0.581   3.226  10.289  0.1157  0.2236 -0.0865
  557ERGO    R1 8494   0.437   3.304  10.058  0.1070  0.3982 -0.0228
  557ERGO    R2 8495   0.544   3.471   9.866  0.3231  0.0757 -0.1858
  557ERGO    R3 8496   0.477   3.268   9.698 -0.2243  0.1184 -0.0382
  557ERGO    R4 8497   0.514   3.500   9.523  0.5143 -0.0977 -0.2201
  557ERGO    R5 8498   0.338   3.371   9.532  0.1149  0.4087 -0.1602
  557ERGO    C1 8499   0.432   3.327   9.165  0.1118 -0.1586 -0.1016
  557ERGO    C2 8500   0.623   3.387   8.771 -0.0980  0.1245 -0.1317
  558ERGO   ROH 8501  11.511   4.792   9.633 -0.1744 -0.2835 -0.0171
  558ERGO    R1 8502  11.639   4.862   9.390 -0.2599 -0.0056  0.0135
  558ERGO    R2 8503  11.762   4.675   9.229  0.0976  0.2391 -0.0101
  558ERGO    R3 8504  11.599   4.780   9.038 -0.0686 -0.0075 -0.0081
  558ERGO    R4 8505  11.820   4.657   8.888  0.1963  0.4433 -0.0056
  558ERGO    R5 8506  11.750   4.863   8.870 -0.1873  0.3239  0.0420
  558ERGO    C1 8507  11.701   4.745   8.511  0.0979  0.3306 -0.0010
  558ERGO    C2 8508  11.972   4.723   8.234  0.1047  0.1112  0.2600
  559ERGO   ROH 8509   7.248   8.049   9.750  0.1423  0.1806 -0.0796
  559ERGO    R1 8510   7.315   8.080   9.477  0.2171  0.0199 -0.0820
  559ERGO    R2 8511   7.358   7.866   9.309  0.0568 -0.0859  0.0024
  559ERGO    R3 8512   7.169   7.988   9.157  0.1869  0.0272 -0.0692
  559ERGO    R4 8513   7.278   7.777   8.984  0.0145 -0.1375  0.0277
  559ERGO    R5 8514   7.261   7.989   8.936  0.2135 -0.1430 -0.0576
  559ERGO    C1 8515   7.053   7.841   8.653  0.1120 -0.0614 -0.0248
  559ERGO    C2 8516   7.166   7.627   8.283 -0.0467 -0.0507  0.0669
  560ERGO   ROH 8517   8.123   7.578   9.686 -0.2808  0.0297  0.0175
  560ERGO    R1 8518   8.055   7.601   9.412 -0.1348  0.0022 -0.0213
  560ERGO    R2 8519   8.236   7.553   9.209 -0.0695 -0.1683  0.0796
  560ERGO    R3 8520   8.044   7.381   9.122 -0.1399 -0.0667  0.0301
  560ERGO    R4 8521   8.216   7.424   8.889  0.0805 -0.3296  0.1328
  560ERGO    R5 8522   8.000   7.450   8.897  0.0886 -0.1530 -0.0464
  560ERGO    C1 8523   8.025   7.188   8.621  0.1016 -0.3282  0.1175
  560ERGO    C2 8524   8.150   7.023   8.408 -0.4763  0.1014 -0.0743
  561ERGO   ROH 8525  10.303   5.238   9.364  0.0463  0.0290  0.0740
  561ERGO    R1 8526  10.229   5.273   9.094  0.1116  0.1240  0.0672
  561ERGO    R2 8527  10.394   5.395   8.908  0.2786 -0.0680  0.0829
  561ERGO    R3 8528  10.354   5.165   8.769  0.0146 -0.0217  0.0777
  561ERGO    R4 8529  10.447   5.358   8.569  0.0801 -0.0803  0.0522
  561ERGO    R5 8530  10.266   5.238   8.559 -0.0284  0.0741  0.1287
  561ERGO    C1 8531  10.441   5.121   8.241 -0.2833 -0.0440  0.0295
  561ERGO    C2 8532  10.583   5.331   7.996 -0.3129 -0.0692  0.0861
  562ERGO   ROH 8533   7.596  15.792   9.801 -0.0882 -0.3803 -0.0224
  562ERGO    R1 8534   7.509  15.679   9.556 -0.1564 -0.1500 -0.1089
  562ERGO    R2 8535   7.431  15.833   9.341 -0.0674  0.0600 -0.0041
  562ERGO    R3 8536   7.616  15.684   9.209 -0.1498  0.0461 -0.1026
  562ERGO    R4 8537   7.441  15.788   8.998 -0.2140  0.0855 -0.0113
  562ERGO    R5 8538   7.494  15.579   9.032 -0.2328  0.0823 -0.0583
  562ERGO    C1 8539   7.620  15.622   8.675 -0.3768  0.0873 -0.1079
  562ERGO    C2 8540   7.646  15.650   8.359  0.0030  0.1552  0.1412
  563ERGO   ROH 8541  14.985  17.552  10.397 -0.0543 -0.0922 -0.0059
  563ERGO    R1 8542  15.112  17.499  10.150  0.1109 -0.1869  0.0981
  563ERGO    R2 8543  15.114  17.248  10.034 -0.1924 -0.1377 -0.0129
  563ERGO    R3 8544  15.012  17.383   9.820  0.2454  0.1372 -0.0627
  563ERGO    R4 8545  15.181  17.174   9.703 -0.2156 -0.3120  0.0203
  563ERGO    R5 8546  15.191  17.388   9.662  0.3513 -0.3198  0.0242
  563ERGO    C1 8547  15.125  17.256   9.310  0.1817 -0.1556 -0.0071
  563ERGO    C2 8548  15.027  17.110   9.091  0.0867 -0.1311 -0.0756
  564ERGO   ROH 8549  14.662   1.582  10.362  0.0155 -0.1138  0.0194
  564ERGO    R1 8550  14.770   1.659  10.112 -0.3518  0.1124 -0.0767
  564ERGO    R2 8551  14.943   1.498   9.968  0.1088  0.5804 -0.0685
  564ERGO    R3 8552  14.761   1.535   9.770 -0.1273 -0.1085 -0.0071
  564ERGO    R4 8553  15.005   1.449   9.632  0.1254  0.6141 -0.0708
  564ERGO    R5 8554  14.888   1.628   9.589 -0.4969  0.2329 -0.1108
  564ERGO    C1 8555  14.870   1.455   9.250 -0.0865 -0.0131 -0.0144
  564ERGO    C2 8556  15.024   1.308   9.034 -0.1268  0.0547  0.0422
  565ERGO   ROH 8557  16.153   0.093  10.316 -0.0355 -0.1068  0.0528
  565ERGO    R1 8558  15.936   0.036  10.143 -0.0442 -0.0691  0.0513
  565ERGO    R2 8559  15.866   0.201   9.932  0.0304 -0.0934  0.0078
  565ERGO    R3 8560  15.891  -0.028   9.787 -0.0425 -0.1370  0.0630
  565ERGO    R4 8561  15.725   0.148   9.621  0.1075 -0.0794 -0.0298
  565ERGO    R5 8562  15.677  -0.056   9.683 -0.0233 -0.0425 -0.0040
  565ERGO    C1 8563  15.667  -0.098   9.304  0.0839 -0.1121  0.0001
  565ERGO    C2 8564  15.694  -0.153   8.957 -0.0229 -0.2761 -0.0634
  566ERGO   ROH 8565   8.965   1.261   9.933 -0.3291  0.2125  0.1155
  566ERGO    R1 8566   8.810   1.098   9.762 -0.2405  0.1598  0.0839
  566ERGO    R2 8567   8.644   1.201   9.568 -0.2164  0.1034  0.0303
  566ERGO    R3 8568   8.785   1.036   9.404 -0.1269  0.1301  0.0812
  566ERGO    R4 8569   8.568   1.140   9.236 -0.1301  0.0280  0.0245
  566ERGO    R5 8570   8.619   0.930   9.268 -0.0621  0.0515  0.0639
  566ERGO    C1 8571   8.658   0.951   8.889  0.0041  0.0092  0.0689
  566ERGO    C2 8572   8.566   0.993   8.534  0.0462 -0.0151  0.0944
  567ERGO   ROH 8573  14.597   3.748  10.378 -0.0252 -0.1346  0.0761
  567ERGO    R1 8574  14.667   3.724  10.105  0.0908  0.0155  0.0906
  567ERGO    R2 8575  14.480   3.737   9.902  0.1218 -0.2465  0.0378
  567ERGO    R3 8576  14.644   3.932   9.807 -0.1530  0.0299  0.1190
  567ERGO    R4 8577  14.494   3.839   9.572  0.2461 -0.3540  0.0096
  567ERGO    R5 8578  14.711   3.853   9.591  0.2080  0.0665  0.2142
  567ERGO    C1 8579  14.655   4.081   9.291  0.0607 -0.1570  0.0694
  567ERGO    C2 8580  14.674   4.104   8.995 -0.4090 -0.0452  0.2025
  568ERGO   ROH 8581   8.166  15.124   9.679 -0.1529 -0.1589  0.0076
  568ERGO    R1 8582   8.034  15.088   9.431 -0.1366  0.0796 -0.0383
  568ERGO    R2 8583   7.917  15.297   9.293  0.1677  0.2730 -0.0124
  568ERGO    R3 8584   8.075  15.209   9.090  0.1091  0.1245  0.0046
  568ERGO    R4 8585   7.876  15.378   8.959  0.0905  0.0646 -0.0555
  568ERGO    R5 8586   7.925  15.173   8.908  0.0562  0.0224  0.0647
  568ERGO    C1 8587   8.002  15.343   8.575 -0.0095 -0.1963 -0.0645
  568ERGO    C2 8588   8.006  15.339   8.204 -0.1194  0.2397 -0.0595
  569ERGO   ROH 8589  10.634   1.717   9.648 -0.0708 -0.1845  0.0308
  569ERGO    R1 8590  10.818   1.830   9.465 -0.0346 -0.0713  0.1372
  569ERGO    R2 8591  10.847   1.737   9.207  0.1695 -0.0514  0.1549
  569ERGO    R3 8592  10.801   1.997   9.142  0.0507 -0.0781  0.1283
  569ERGO    R4 8593  10.889   1.872   8.892  0.2418 -0.0368  0.1699
  569ERGO    R5 8594  10.973   2.051   8.985  0.0972  0.0159  0.2077
  569ERGO    C1 8595  10.869   2.195   8.647  0.1725 -0.0534  0.1536
  569ERGO    C2 8596  10.908   2.303   8.346  0.0968  0.2252 -0.1001
  570ERGO   ROH 8597   2.719  11.486  10.260  0.0976 -0.1239 -0.1221
  570ERGO    R1 8598   2.745  11.347  10.014  0.0410 -0.1545 -0.1111
  570ERGO    R2 8599   2.647  11.091   9.977 -0.0434 -0.1270 -0.0835
  570ERGO    R3 8600   2.520  11.206   9.765 -0.0169 -0.1047 -0.0873
  570ERGO    R4 8601   2.447  10.922   9.751 -0.2956 -0.0444  0.0741
  570ERGO    R5 8602   2.535  11.041   9.592 -0.2420 -0.2029 -0.0169
  570ERGO    C1 8603   2.212  10.931   9.421 -0.4176  0.0244  0.1623
  570ERGO    C2 8604   2.001  10.772   9.510  0.0690  0.4502 -0.4172
  571ERGO   ROH 8605  13.794   7.223  10.353 -0.0849 -0.0863 -0.0702
  571ERGO    R1 8606  13.592   7.172  10.161 -0.0897 -0.0116 -0.0862
  571ERGO    R2 8607  13.558   7.329   9.936 -0.0149  0.0025 -0.0918
  571ERGO    R3 8608  13.579   7.090   9.807 -0.0905 -0.0065 -0.0864
  571ERGO    R4 8609  13.416   7.256   9.629 -0.0821  0.0174 -0.0638
  571ERGO    R5 8610  13.365   7.059   9.705 -0.1121  0.0345 -0.0484
  571ERGO    C1 8611  13.353   6.990   9.330 -0.1923  0.0175 -0.0422
  571ERGO    C2 8612  13.367   6.902   9.014 -0.0496 -0.0742  0.2716
  572ERGO   ROH 8613  12.937   0.018   9.931  0.1331  0.0658 -0.0617
  572ERGO    R1 8614  12.835  -0.004   9.668  0.0200  0.1095 -0.0229
  572ERGO    R2 8615  12.962   0.108   9.450  0.0714 -0.0810 -0.0960
  572ERGO    R3 8616  12.948  -0.145   9.352 -0.2360 -0.0938 -0.0258
  572ERGO    R4 8617  12.984   0.024   9.115 -0.0794 -0.2012 -0.0763
  572ERGO    R5 8618  12.826  -0.123   9.147 -0.2437 -0.0114 -0.0107
  572ERGO    C1 8619  12.983  -0.263   8.829 -0.4557 -0.2830  0.0010
  572ERGO    C2 8620  13.099  -0.340   8.480  0.1232 -0.0234 -0.2132
  573ERGO   ROH 8621   9.528  18.060  10.110 -0.0997  0.1422 -0.0376
  573ERGO    R1 8622   9.603  18.133   9.847 -0.1504  0.2315 -0.0284
  573ERGO    R2 8623   9.726  17.957   9.673  0.0164  0.3519 -0.0389
  573ERGO    R3 8624   9.521  18.027   9.509 -0.0400  0.1840 -0.0404
  573ERGO    R4 8625   9.732  17.933   9.329  0.0359  0.3509 -0.0379
  573ERGO    R5 8626   9.627  18.125   9.318 -0.1185  0.2669 -0.0413
  573ERGO    C1 8627   9.542  17.985   8.974 -0.0057  0.1928 -0.0387
  573ERGO    C2 8628   9.569  17.720   8.689  0.2295 -0.0159  0.2711
  574ERGO   ROH 8629   9.027  11.872   9.842 -0.1444 -0.0528 -0.2170
  574ERGO    R1 8630   9.289  11.888   9.736 -0.0654 -0.1029 -0.0315
  574ERGO    R2 8631   9.456  11.668   9.718 -0.1671 -0.1727 -0.0924
  574ERGO    R3 8632   9.471  11.742   9.457  0.0459  0.0243 -0.0274
  574ERGO    R4 8633   9.639  11.503   9.476 -0.1521 -0.1287 -0.1114
  574ERGO    R5 8634   9.698  11.697   9.395  0.0503 -0.1060  0.0749
  574ERGO    C1 8635   9.760  11.476   9.090  0.0568  0.0818 -0.0614
  574ERGO    C2 8636   9.730  11.406   8.780 -0.0463  0.0501  0.0162
  575ERGO   ROH 8637   1.139   3.430  10.024  0.0579 -0.1501 -0.0435
  575ERGO    R1 8638   1.138   3.332   9.758  0.0126 -0.2054 -0.0225
  575ERGO    R2 8639   0.932   3.385   9.581  0.0749 -0.0836 -0.0552
  575ERGO    R3 8640   1.135   3.475   9.424  0.1624 -0.2744 -0.0551
  575ERGO    R4 8641   0.905   3.450   9.243  0.1395 -0.0871 -0.0615
  575ERGO    R5 8642   1.102   3.362   9.215  0.0665 -0.2661 -0.0478
  575ERGO    C1 8643   1.079   3.573   8.898  0.2593 -0.2683 -0.0651
  575ERGO    C2 8644   1.102   3.546   8.533 -0.1900 -0.0816 -0.2382
  576ERGO   ROH 8645   5.987  16.492   9.601 -0.0447  0.0030 -0.1333
  576ERGO    R1 8646   6.204  16.545   9.427  0.0119 -0.0110 -0.0673
  576ERGO    R2 8647   6.394  16.355   9.363 -0.0278 -0.0474 -0.0734
  576ERGO    R3 8648   6.324  16.417   9.108  0.0515  0.0420 -0.0740
  576ERGO    R4 8649   6.571  16.260   9.082 -0.0713 -0.1591 -0.0639
  576ERGO    R5 8650   6.533  16.458   8.998  0.1002 -0.1152 -0.0443
  576ERGO    C1 8651   6.609  16.264   8.679 -0.0220 -0.1401 -0.0591
  576ERGO    C2 8652   6.713  16.165   8.394  0.0043 -0.2675 -0.2220
  577ERGO   ROH 8653   4.687  16.081   9.813  0.2464 -0.0265  0.1547
  577ERGO    R1 8654   4.512  16.219   9.639  0.2835  0.0803  0.2038
  577ERGO    R2 8655   4.536  16.489   9.588  0.5582  0.0207  0.0496
  577ERGO    R3 8656   4.541  16.407   9.329  0.2812 -0.1148  0.0802
  577ERGO    R4 8657   4.360  16.639   9.330  0.5143  0.0940  0.1205
  577ERGO    R5 8658   4.315  16.440   9.252  0.2433  0.0876  0.2429
  577ERGO    C1 8659   4.262  16.648   8.938  0.2287  0.0095  0.1906
  577ERGO    C2 8660   4.097  16.757   8.649  0.4017 -0.1613 -0.3204
  578ERGO   ROH 8661  14.955   7.096  10.567 -0.2007  0.0391 -0.0718
  578ERGO    R1 8662  14.918   7.127  10.288 -0.2378 -0.0101 -0.0718
  578ERGO    R2 8663  15.129   7.147  10.111 -0.2630  0.1098 -0.0842
  578ERGO    R3 8664  15.004   6.940   9.988 -0.1364  0.0180 -0.0621
  578ERGO    R4 8665  15.129   7.091   9.770 -0.3894  0.1934 -0.0989
  578ERGO    R5 8666  14.919   7.034   9.784 -0.3346 -0.0082  0.0023
  578ERGO    C1 8667  15.012   6.865   9.456 -0.3442  0.1559 -0.0867
  578ERGO    C2 8668  15.142   6.950   9.108  0.2505 -0.1900  0.1709
  579ERGO   ROH 8669  12.140   5.327  10.373 -0.0402 -0.0150  0.1231
  579ERGO    R1 8670  12.104   5.323  10.092 -0.1276  0.0356  0.1332
  579ERGO    R2 8671  11.982   5.529   9.954  0.0315  0.1654  0.1826
  579ERGO    R3 8672  12.212   5.525   9.809 -0.0122 -0.0510  0.1147
  579ERGO    R4 8673  12.002   5.592   9.615 -0.0174  0.0328  0.1537
  579ERGO    R5 8674  12.147   5.430   9.598 -0.1399 -0.0777  0.1659
  579ERGO    C1 8675  12.230   5.626   9.281 -0.0869 -0.2475  0.0731
  579ERGO    C2 8676  12.308   5.805   8.929  0.0005  0.0201 -0.0009
  580ERGO   ROH 8677  13.795   0.048  10.252  0.0932  0.1232  0.0272
  580ERGO    R1 8678  13.916   0.073   9.997  0.1062  0.0722  0.0280
  580ERGO    R2 8679  13.894  -0.121   9.802  0.0748  0.0549  0.0477
  580ERGO    R3 8680  13.804   0.087   9.651  0.1195  0.0562  0.0234
  580ERGO    R4 8681  13.935  -0.092   9.460  0.2015  0.0734  0.0642
  580ERGO    R5 8682  13.975   0.120   9.487  0.1787  0.0739  0.0891
  580ERGO    C1 8683  13.874   0.120   9.119  0.3172  0.0855  0.0509
  580ERGO    C2 8684  13.937   0.151   8.692  0.1479  0.0435 -0.0720
  581ERGO   ROH 8685  17.974  15.388  10.154 -0.0844  0.1293  0.0097
  581ERGO    R1 8686  17.840  15.439   9.909 -0.0640  0.0805 -0.0113
  581ERGO    R2 8687  17.877  15.672   9.766 -0.0260  0.0353 -0.0712
  581ERGO    R3 8688  17.936  15.500   9.563 -0.0382 -0.0250 -0.0242
  581ERGO    R4 8689  17.828  15.738   9.430 -0.1090 -0.0831 -0.0833
  581ERGO    R5 8690  17.760  15.533   9.404 -0.0802 -0.1072  0.0016
  581ERGO    C1 8691  17.856  15.615   9.045 -0.1686 -0.2088 -0.0461
  581ERGO    C2 8692  17.994  15.690   8.843 -0.2760 -0.0947 -0.0892
  582ERGO   ROH 8693   6.224  12.376   9.814  0.2999  0.0786  0.0143
  582ERGO    R1 8694   6.120  12.309   9.560  0.1438  0.0168  0.0925
  582ERGO    R2 8695   6.268  12.333   9.327 -0.0259  0.0475 -0.0180
  582ERGO    R3 8696   6.200  12.071   9.296  0.0449  0.0200  0.0606
  582ERGO    R4 8697   6.283  12.159   9.029 -0.2564  0.0364 -0.0247
  582ERGO    R5 8698   6.095  12.062   9.081 -0.1655 -0.0342  0.1662
  582ERGO    C1 8699   6.229  11.813   8.826 -0.3242  0.0040  0.0451
  582ERGO    C2 8700   6.441  11.606   8.606  0.1412 -0.1661  0.0077
  583ERGO   ROH 8701   9.796   9.163  10.148  0.1058  0.0465  0.0106
  583ERGO    R1 8702   9.902   9.154   9.886  0.0097  0.0793 -0.0300
  583ERGO    R2 8703   9.748   9.095   9.665 -0.0799  0.1438  0.0137
  583ERGO    R3 8704   9.847   9.330   9.573 -0.0780  0.1463  0.0230
  583ERGO    R4 8705   9.732   9.201   9.336  0.0903  0.0731 -0.0185
  583ERGO    R5 8706   9.935   9.277   9.356  0.0614  0.1216  0.0853
  583ERGO    C1 8707   9.816   9.484   9.059  0.1912  0.0342 -0.0284
  583ERGO    C2 8708   9.888   9.526   8.836  0.0380 -0.1089 -0.1628
  584ERGO   ROH 8709  14.208   3.542  10.221  0.3013 -0.0267  0.0475
  584ERGO    R1 8710  14.239   3.339  10.027 -0.1080 -0.0561  0.0037
  584ERGO    R2 8711  14.047   3.285   9.836 -0.1355  0.5234 -0.1529
  584ERGO    R3 8712  14.254   3.321   9.664  0.0958  0.0317  0.0069
  584ERGO    R4 8713  14.026   3.253   9.492  0.0790  0.4896 -0.1632
  584ERGO    R5 8714  14.221   3.154   9.495 -0.1295  0.0602  0.0217
  584ERGO    C1 8715  14.209   3.267   9.131  0.4210  0.0083 -0.0193
  584ERGO    C2 8716  14.143   3.261   8.842  0.0717 -0.2345 -0.0177
  585ERGO   ROH 8717  16.657  11.235  10.276 -0.0902  0.0145 -0.0263
  585ERGO    R1 8718  16.698  11.212   9.997 -0.1723  0.0414 -0.0411
  585ERGO    R2 8719  16.489  11.216   9.815 -0.2138  0.2309  0.0064
  585ERGO    R3 8720  16.634  11.416   9.702 -0.0925  0.1493  0.0161
  585ERGO    R4 8721  16.512  11.276   9.476 -0.2358  0.2768  0.0134
  585ERGO    R5 8722  16.724  11.320   9.502 -0.1993  0.1216 -0.0185
  585ERGO    C1 8723  16.660  11.500   9.172 -0.1349  0.2269  0.0266
  585ERGO    C2 8724  16.746  11.556   8.704  0.2163 -0.1978 -0.1561
  586ERGO   ROH 8725   9.835   5.151   9.463  0.1514  0.0097 -0.0172
  586ERGO    R1 8726   9.904   4.924   9.309 -0.0070 -0.0034 -0.0679
  586ERGO    R2 8727   9.789   4.871   9.064  0.0262  0.1862 -0.1180
  586ERGO    R3 8728  10.047   4.861   8.980  0.0466 -0.0328 -0.0418
  586ERGO    R4 8729   9.891   4.768   8.750 -0.0449  0.6824 -0.3131
  586ERGO    R5 8730  10.058   4.665   8.844 -0.2232  0.2168 -0.4583
  586ERGO    C1 8731  10.193   4.700   8.489 -0.0671  0.7659 -0.3554
  586ERGO    C2 8732  10.406   4.539   8.264  0.0225  0.0581 -0.3116
  587ERGO   ROH 8733  12.054   3.788  10.137  0.0323  0.0798 -0.0196
  587ERGO    R1 8734  12.034   3.847   9.861  0.1459  0.1506 -0.0141
  587ERGO    R2 8735  12.242   3.956   9.716  0.3007 -0.0635  0.0369
  587ERGO    R3 8736  12.200   3.741   9.555  0.0776  0.0076 -0.0011
  587ERGO    R4 8737  12.288   3.954   9.374  0.2974 -0.0579  0.0369
  587ERGO    R5 8738  12.107   3.835   9.355  0.1750  0.1348  0.0154
  587ERGO    C1 8739  12.275   3.752   9.023  0.0862  0.0121  0.0012
  587ERGO    C2 8740  12.436   3.851   8.746 -0.0476  0.0648 -0.1703
  588ERGO   ROH 8741   4.624   7.254   9.667 -0.0742  0.1124 -0.0266
  588ERGO    R1 8742   4.848   7.350   9.524 -0.0262  0.1223  0.0566
  588ERGO    R2 8743   4.904   7.271   9.265  0.0697  0.1286  0.0820
  588ERGO    R3 8744   4.904   7.539   9.218  0.0832  0.1293  0.0783
  588ERGO    R4 8745   5.096   7.431   9.026 -0.1239  0.0698 -0.1173
  588ERGO    R5 8746   5.132   7.591   9.168  0.0555  0.0700 -0.1487
  588ERGO    C1 8747   5.207   7.775   8.842 -0.2239  0.0362 -0.2370
  588ERGO    C2 8748   5.284   7.841   8.533  0.1263 -0.0584  0.3209
  589ERGO   ROH 8749  12.518   0.977   9.698  0.0434  0.2098 -0.0205
  589ERGO    R1 8750  12.650   0.946   9.449  0.0063  0.1174 -0.0294
  589ERGO    R2 8751  12.564   0.767   9.256 -0.0197  0.0400  0.0501
  589ERGO    R3 8752  12.564   0.988   9.098 -0.0495 -0.0189 -0.0320
  589ERGO    R4 8753  12.596   0.764   8.912  0.1817 -0.0672  0.0688
  589ERGO    R5 8754  12.725   0.939   8.927  0.0757  0.0075  0.0792
  589ERGO    C1 8755  12.615   0.969   8.563  0.2710 -0.1848  0.0026
  589ERGO    C2 8756  12.548   1.104   8.243 -0.3666  0.0145 -0.0564
  590ERGO   ROH 8757   3.182  15.590   9.537  0.1942  0.2288  0.1445
  590ERGO    R1 8758   3.196  15.430   9.304  0.0100  0.1366  0.1951
  590ERGO    R2 8759   3.122  15.523   9.055 -0.0053  0.1001  0.1863
  590ERGO    R3 8760   3.372  15.441   8.986 -0.0825 -0.0963  0.1340
  590ERGO    R4 8761   3.267  15.570   8.744 -0.0603 -0.0802  0.1322
  590ERGO    R5 8762   3.350  15.369   8.758 -0.1998 -0.1376  0.1574
  590ERGO    C1 8763   3.586  15.520   8.499 -0.1649 -0.3693  0.0516
  590ERGO    C2 8764   3.880  15.511   8.179  0.0246  0.2901 -0.1782
  591ERGO   ROH 8765   0.522   1.862  10.181 -0.0936 -0.1584 -0.1341
  591ERGO    R1 8766   0.473   1.991   9.934 -0.0321 -0.1339 -0.1344
  591ERGO    R2 8767   0.641   1.965   9.716  0.0103 -0.1318 -0.1041
  591ERGO    R3 8768   0.413   1.888   9.590  0.0283 -0.1020 -0.1541
  591ERGO    R4 8769   0.580   2.007   9.379  0.1570 -0.2755 -0.1496
  591ERGO    R5 8770   0.374   2.061   9.428  0.1603 -0.1672 -0.2564
  591ERGO    C1 8771   0.330   1.959   9.064  0.2594 -0.3312 -0.2231
  591ERGO    C2 8772   0.426   1.957   8.795 -0.4258 -0.0998  0.0098
  592ERGO   ROH 8773   3.480   8.095   9.695 -0.2852 -0.0653  0.0562
  592ERGO    R1 8774   3.429   8.130   9.419 -0.1211  0.0885  0.0434
  592ERGO    R2 8775   3.624   8.212   9.241  0.0393 -0.0007  0.1717
  592ERGO    R3 8776   3.552   7.987   9.108 -0.0853  0.1088  0.0480
  592ERGO    R4 8777   3.666   8.162   8.902 -0.0865  0.2015  0.1250
  592ERGO    R5 8778   3.470   8.067   8.897 -0.1241  0.2749  0.1241
  592ERGO    C1 8779   3.622   7.922   8.579 -0.2766  0.4220 -0.0182
  592ERGO    C2 8780   3.673   8.062   8.286 -0.0932 -0.1150  0.1086
  593ERGO   ROH 8781  10.900   7.018   9.453  0.4027  0.0006 -0.1386
  593ERGO    R1 8782  10.760   7.003   9.208  0.1616 -0.0131 -0.0032
  593ERGO    R2 8783  10.868   7.092   8.969 -0.0737 -0.0192 -0.1139
  593ERGO    R3 8784  10.808   6.840   8.886 -0.1485 -0.0239 -0.0467
  593ERGO    R4 8785  10.787   7.005   8.645 -0.0836 -0.0824 -0.0948
  593ERGO    R5 8786  10.634   6.871   8.724 -0.1308 -0.0132 -0.0647
  593ERGO    C1 8787  10.683   6.719   8.378 -0.1596 -0.1237 -0.0205
  593ERGO    C2 8788  10.888   6.631   8.146  0.0377  0.3060  0.2124
  594ERGO   ROH 8789  15.249   4.974  10.739 -0.1378  0.1654 -0.0319
  594ERGO    R1 8790  15.214   4.927  10.462 -0.0377  0.0548 -0.0255
  594ERGO    R2 8791  15.136   5.126  10.287 -0.0314 -0.0314 -0.1211
  594ERGO    R3 8792  15.361   5.051  10.153  0.0286 -0.0234 -0.0267
  594ERGO    R4 8793  15.186   5.164   9.947  0.1600  0.0976 -0.0805
  594ERGO    R5 8794  15.281   4.968   9.943  0.1232  0.0764 -0.1065
  594ERGO    C1 8795  15.427   5.116   9.624  0.3279  0.1803  0.0316
  594ERGO    C2 8796  15.544   5.245   9.348 -0.2250  0.2264 -0.1335
  595ERGO   ROH 8797  11.667   0.307   9.966 -0.2398  0.3714  0.0863
  595ERGO    R1 8798  11.545   0.343   9.713 -0.0966  0.3971  0.0198
  595ERGO    R2 8799  11.673   0.468   9.502  0.1381  0.1479  0.0090
  595ERGO    R3 8800  11.611   0.239   9.370 -0.0802  0.1561  0.0941
  595ERGO    R4 8801  11.675   0.431   9.159  0.0443  0.0375  0.0199
  595ERGO    R5 8802  11.493   0.313   9.175 -0.0548  0.1947  0.0924
  595ERGO    C1 8803  11.618   0.195   8.835 -0.2153 -0.0190  0.1061
  595ERGO    C2 8804  11.748   0.381   8.570 -0.1528 -0.1872  0.0691
  596ERGO   ROH 8805  15.635  13.966  10.370  0.0062  0.0362  0.0929
  596ERGO    R1 8806  15.780  14.044  10.141  0.0045  0.1867  0.1425
  596ERGO    R2 8807  15.721  13.952   9.888  0.2650  0.0219  0.1384
  596ERGO    R3 8808  15.708  14.217   9.828 -0.1001 -0.0077  0.0575
  596ERGO    R4 8809  15.788  14.088   9.577  0.3393  0.0401  0.1624
  596ERGO    R5 8810  15.891  14.252   9.677 -0.0094  0.2361  0.2169
  596ERGO    C1 8811  15.816  14.416   9.341  0.0398  0.0230  0.1003
  596ERGO    C2 8812  15.649  14.425   9.061  0.0883  0.0398 -0.2110
  597ERGO   ROH 8813  18.047  18.090  10.031  0.1858 -0.3159 -0.0789
  597ERGO    R1 8814  18.035  18.097   9.749  0.0662 -0.3152 -0.0742
  597ERGO    R2 8815  17.875  17.926   9.602 -0.2199 -0.1188  0.0061
  597ERGO    R3 8816  17.781  18.158   9.496  0.0263 -0.0016  0.0371
  597ERGO    R4 8817  17.804  17.976   9.267 -0.3084 -0.0523  0.0339
  597ERGO    R5 8818  17.891  18.175   9.284 -0.0441 -0.1567 -0.0152
  597ERGO    C1 8819  17.675  18.223   8.973 -0.1288  0.0963  0.0793
  597ERGO    C2 8820  17.579  18.201   8.672  0.1151  0.3083 -0.2027
  598ERGO   ROH 8821  17.011   3.033  10.592 -0.2328  0.3709  0.0666
  598ERGO    R1 8822  16.926   3.112  10.334  0.0097  0.2809 -0.0440
  598ERGO    R2 8823  17.099   3.215  10.145  0.2311  0.0115  0.0016
  598ERGO    R3 8824  16.999   3.015   9.991  0.1626 -0.0042  0.0664
  598ERGO    R4 8825  17.105   3.210   9.800  0.0904 -0.0385 -0.0006
  598ERGO    R5 8826  16.903   3.127   9.802  0.0911 -0.0298  0.0901
  598ERGO    C1 8827  17.014   3.020   9.454 -0.0561 -0.0824  0.0587
  598ERGO    C2 8828  17.067   3.025   9.165  0.0257 -0.1730  0.1606
  599ERGO   ROH 8829  18.009  10.665  10.137  0.0703 -0.1416  0.0219
  599ERGO    R1 8830  17.915  10.545   9.899  0.0435 -0.1070  0.0145
  599ERGO    R2 8831  17.945  10.275   9.846  0.0810 -0.0927 -0.0506
  599ERGO    R3 8832  17.675  10.285   9.810  0.0721 -0.1303  0.0088
  599ERGO    R4 8833  17.764  10.060   9.644  0.1017  0.0646 -0.2388
  599ERGO    R5 8834  17.644  10.230   9.579  0.0440  0.0983 -0.0422
  599ERGO    C1 8835  17.405   9.945   9.493  0.1053  0.1208 -0.2925
  599ERGO    C2 8836  17.317   9.767   9.317 -0.0048  0.1070 -0.0832
  600ERGO   ROH 8837   9.346  11.173   9.803 -0.0165 -0.0354  0.1041
  600ERGO    R1 8838   9.387  11.111   9.529 -0.2758 -0.1890  0.0952
  600ERGO    R2 8839   9.179  11.087   9.349 -0.4328  0.0619  0.2276
  600ERGO    R3 8840   9.321  11.271   9.209 -0.2360 -0.1898  0.0888
  600ERGO    R4 8841   9.108  11.188   9.026 -0.5052  0.1266  0.2642
  600ERGO    R5 8842   9.322  11.188   8.985 -0.5357 -0.2265  0.1029
  600ERGO    C1 8843   9.200  11.420   8.707 -0.3627 -0.0720  0.1553
  600ERGO    C2 8844   9.291  11.415   8.394 -0.0698 -0.0491  0.5259
  601ERGO   ROH 8845  11.709   7.090  10.179  0.0883 -0.0849  0.0047
  601ERGO    R1 8846  11.746   7.263   9.958 -0.1060  0.0164  0.0494
  601ERGO    R2 8847  11.936   7.216   9.763 -0.0524  0.2799  0.0370
  601ERGO    R3 8848  11.722   7.238   9.596 -0.0788  0.0847  0.0425
  601ERGO    R4 8849  11.954   7.207   9.418 -0.0600  0.2289  0.0376
  601ERGO    R5 8850  11.805   7.366   9.411 -0.1844  0.1150  0.0146
  601ERGO    C1 8851  11.764   7.222   9.060 -0.0892  0.0161  0.0432
  601ERGO    C2 8852  11.645   7.371   8.803 -0.1413 -0.0658  0.0821
  602ERGO   ROH 8853   8.198   8.934   9.980 -0.1470 -0.1349  0.0747
  602ERGO    R1 8854   8.137   8.938   9.704 -0.0088 -0.1235  0.0447
  602ERGO    R2 8855   8.159   9.167   9.549  0.0211 -0.1088  0.0794
  602ERGO    R3 8856   8.316   9.008   9.395  0.1306 -0.0602  0.1373
  602ERGO    R4 8857   8.183   9.187   9.205  0.0427 -0.1770  0.0759
  602ERGO    R5 8858   8.186   8.969   9.198  0.1678 -0.1830  0.1313
  602ERGO    C1 8859   8.343   9.049   8.859  0.1579 -0.1710  0.1282
  602ERGO    C2 8860   8.424   9.006   8.591  0.3758  0.3314 -0.1660
  603ERGO   ROH 8861  16.445   6.595  10.588  0.1003 -0.2650  0.0396
  603ERGO    R1 8862  16.406   6.667  10.317  0.0525 -0.1434  0.0783
  603ERGO    R2 8863  16.613   6.672  10.133 -0.0091 -0.2159  0.0088
  603ERGO    R3 8864  16.449   6.507   9.992 -0.1674 -0.0569  0.0048
  603ERGO    R4 8865  16.586   6.665   9.788  0.0648 -0.2503  0.0031
  603ERGO    R5 8866  16.371   6.642   9.810  0.0278  0.0001 -0.0401
  603ERGO    C1 8867  16.416   6.508   9.456 -0.0409 -0.1212 -0.0038
  603ERGO    C2 8868  16.337   6.393   9.093  0.2799  0.2157 -0.2391
  604ERGO   ROH 8869  17.770  16.660  10.225  0.1896 -0.1966 -0.0845
  604ERGO    R1 8870  17.783  16.809   9.984  0.1151 -0.1027 -0.0316
  604ERGO    R2 8871  18.002  16.802   9.817  0.1155  0.0558 -0.0442
  604ERGO    R3 8872  17.817  16.736   9.629  0.1362  0.0387 -0.0583
  604ERGO    R4 8873  18.069  16.750   9.482  0.1645 -0.0992 -0.0109
  604ERGO    R5 8874  17.885  16.856   9.433  0.2108 -0.0633 -0.0916
  604ERGO    C1 8875  17.934  16.658   9.111  0.2128 -0.2053 -0.0047
  604ERGO    C2 8876  17.995  16.755   8.772  0.1761 -0.2830 -0.0341
  605ERGO   ROH 8877  14.131   5.146  10.530 -0.2654 -0.1729 -0.1320
  605ERGO    R1 8878  14.138   5.125  10.248 -0.1800 -0.1385 -0.1323
  605ERGO    R2 8879  13.943   5.233  10.086 -0.1110 -0.0890 -0.1790
  605ERGO    R3 8880  14.155   5.355   9.967 -0.0562 -0.1064 -0.1006
  605ERGO    R4 8881  13.991   5.257   9.744  0.0332 -0.1331 -0.1626
  605ERGO    R5 8882  14.203   5.218   9.776  0.0223 -0.1337 -0.0648
  605ERGO    C1 8883  14.218   5.385   9.434  0.1685 -0.1752 -0.0794
  605ERGO    C2 8884  14.087   5.373   9.193 -0.3098  0.0064 -0.2770
  606ERGO   ROH 8885   7.410  10.368   9.877 -0.1040 -0.3284 -0.0852
  606ERGO    R1 8886   7.597  10.232   9.714  0.0294 -0.0167 -0.2009
  606ERGO    R2 8887   7.539   9.992   9.590  0.3493 -0.1138 -0.1709
  606ERGO    R3 8888   7.617  10.126   9.367 -0.0032  0.0272 -0.2163
  606ERGO    R4 8889   7.598   9.846   9.282  0.3222  0.0067 -0.2341
  606ERGO    R5 8890   7.770   9.977   9.259  0.1262  0.2520 -0.3492
  606ERGO    C1 8891   7.706   9.887   8.893 -0.0244  0.2093 -0.3135
  606ERGO    C2 8892   7.661   9.858   8.500  0.1511 -0.0757 -0.4078
  607ERGO   ROH 8893   2.603   8.340   9.911 -0.1776 -0.2745  0.0644
  607ERGO    R1 8894   2.591   8.192   9.669 -0.1550 -0.2130  0.0256
  607ERGO    R2 8895   2.394   8.231   9.480 -0.1297 -0.1562  0.0117
  607ERGO    R3 8896   2.605   8.266   9.313 -0.1084 -0.1238  0.0453
  607ERGO    R4 8897   2.421   8.094   9.164 -0.1250 -0.0353 -0.0407
  607ERGO    R5 8898   2.631   8.054   9.204 -0.1341 -0.0861 -0.0367
  607ERGO    C1 8899   2.635   8.048   8.823 -0.1023  0.0655 -0.0397
  607ERGO    C2 8900   2.670   7.917   8.584 -0.1691 -0.1680 -0.0632
  608ERGO   ROH 8901   3.027   2.968   9.910 -0.1433  0.1451 -0.0302
  608ERGO    R1 8902   2.878   2.925   9.673 -0.1264  0.2047 -0.0529
  608ERGO    R2 8903   2.833   3.125   9.487  0.0795  0.1958 -0.1202
  608ERGO    R3 8904   2.940   2.944   9.315 -0.0275  0.0595 -0.0437
  608ERGO    R4 8905   2.778   3.120   9.146  0.0991  0.0981 -0.1211
  608ERGO    R5 8906   2.766   2.902   9.156 -0.0425  0.1108 -0.0381
  608ERGO    C1 8907   2.847   2.947   8.786  0.0102 -0.0868 -0.0498
  608ERGO    C2 8908   2.719   2.932   8.454 -0.2029  0.1183  0.0233
  609ERGO   ROH 8909   9.861   8.141   9.913  0.1893  0.0505 -0.1849
  609ERGO    R1 8910   9.857   8.254   9.654  0.1989  0.1073 -0.1621
  609ERGO    R2 8911  10.087   8.291   9.504  0.1874 -0.0661 -0.2410
  609ERGO    R3 8912   9.949   8.148   9.318 -0.0110  0.0872 -0.2113
  609ERGO    R4 8913  10.100   8.342   9.162  0.0838 -0.0330 -0.2390
  609ERGO    R5 8914   9.886   8.308   9.153  0.0597  0.1571 -0.1597
  609ERGO    C1 8915   9.979   8.237   8.789 -0.1627  0.1301 -0.2102
  609ERGO    C2 8916   9.935   8.090   8.479  0.3124  0.1509 -0.3054
  610ERGO   ROH 8917  13.382  11.684   9.864 -0.2833  0.0556  0.1024
  610ERGO    R1 8918  13.441  11.661   9.589 -0.1269  0.0717  0.1339
  610ERGO    R2 8919  13.340  11.458   9.431  0.0443  0.0239  0.0867
  610ERGO    R3 8920  13.253  11.664   9.277  0.0373 -0.0194  0.0320
  610ERGO    R4 8921  13.245  11.431   9.100 -0.0320 -0.0861  0.1168
  610ERGO    R5 8922  13.345  11.620   9.061 -0.0147 -0.1113  0.0263
  610ERGO    C1 8923  13.108  11.609   8.762 -0.0830 -0.1908  0.0831
  610ERGO    C2 8924  12.987  11.761   8.429 -0.0034  0.2112  0.1247
  611ERGO   ROH 8925   8.123   0.083  10.059  0.0442 -0.0206 -0.0698
  611ERGO    R1 8926   8.001   0.007   9.814  0.0069 -0.0282 -0.0494
  611ERGO    R2 8927   7.854   0.183   9.661  0.0342 -0.0157 -0.0643
  611ERGO    R3 8928   8.026   0.106   9.465  0.0021 -0.0837 -0.0654
  611ERGO    R4 8929   7.795   0.216   9.322  0.0358 -0.0119 -0.0637
  611ERGO    R5 8930   7.885   0.019   9.292 -0.0321 -0.0435 -0.0569
  611ERGO    C1 8931   7.922   0.163   8.941  0.0065 -0.0736 -0.0644
  611ERGO    C2 8932   8.079   0.199   8.625  0.0055  0.0823 -0.0403
  612ERGO   ROH 8933  14.672   8.514  10.329 -0.2082  0.0291  0.0155
  612ERGO    R1 8934  14.553   8.358  10.126 -0.3199  0.1699 -0.0302
  612ERGO    R2 8935  14.395   8.467   9.927  0.0320  0.3915 -0.2054
  612ERGO    R3 8936  14.569   8.339   9.763 -0.0457  0.0255 -0.0113
  612ERGO    R4 8937  14.340   8.405   9.592  0.2482  0.4359 -0.2496
  612ERGO    R5 8938  14.430   8.208   9.619 -0.1549  0.2666 -0.1236
  612ERGO    C1 8939  14.472   8.248   9.242  0.3012  0.1183 -0.0931
  612ERGO    C2 8940  14.644   8.331   8.937 -0.0266  0.1799  0.2331
  613ERGO   ROH 8941   9.122   0.145   9.933  0.0809 -0.1935 -0.0700
  613ERGO    R1 8942   9.190   0.051   9.675 -0.1676 -0.2501 -0.1158
  613ERGO    R2 8943   9.001   0.009   9.477 -0.2926  0.3279 -0.1297
  613ERGO    R3 8944   9.162   0.173   9.333  0.1339 -0.0109 -0.0600
  613ERGO    R4 8945   8.970   0.070   9.139 -0.2202  0.6292 -0.0854
  613ERGO    R5 8946   9.187   0.063   9.122 -0.2226  0.0431 -0.1393
  613ERGO    C1 8947   9.104   0.261   8.806  0.2224  0.4865  0.0060
  613ERGO    C2 8948   9.153   0.283   8.425 -0.0745 -0.0167 -0.0825
  614ERGO   ROH 8949  13.159  15.837   9.854 -0.2180  0.0000 -0.4517
  614ERGO    R1 8950  13.299  15.962   9.642 -0.1713  0.0215 -0.4085
  614ERGO    R2 8951  13.171  16.095   9.437 -0.1176  0.2459 -0.2985
  614ERGO    R3 8952  13.334  16.299   9.511  0.0583  0.0776 -0.2119
  614ERGO    R4 8953  13.285  16.342   9.224 -0.0175  0.3111 -0.1703
  614ERGO    R5 8954  13.479  16.329   9.322  0.0123  0.1006 -0.2460
  614ERGO    C1 8955  13.505  16.678   9.169  0.2058  0.1907 -0.0143
  614ERGO    C2 8956  13.389  16.868   8.861 -0.0755  0.3030  0.2765
  615ERGO   ROH 8957   2.667  16.682   9.861  0.0700  0.3173  0.0487
  615ERGO    R1 8958   2.814  16.667   9.619  0.0507  0.1996  0.0439
  615ERGO    R2 8959   2.782  16.460   9.439  0.0512  0.1019  0.1566
  615ERGO    R3 8960   2.737  16.662   9.264  0.0222  0.0050  0.0507
  615ERGO    R4 8961   2.762  16.424   9.096  0.0748 -0.0824  0.1737
  615ERGO    R5 8962   2.873  16.609   9.074  0.0429 -0.0702  0.0842
  615ERGO    C1 8963   2.707  16.593   8.732  0.0613 -0.2807  0.0843
  615ERGO    C2 8964   2.737  16.645   8.370 -0.2356 -0.2865  0.1384
  616ERGO   ROH 8965  17.866   7.466  10.774 -0.0652  0.1709  0.0586
  616ERGO    R1 8966  17.782   7.503  10.507  0.0503  0.0507  0.0036
  616ERGO    R2 8967  17.820   7.740  10.370 -0.0578  0.0536 -0.0243
  616ERGO    R3 8968  17.939   7.578  10.187  0.1670  0.1065  0.0734
  616ERGO    R4 8969  17.933   7.844  10.061 -0.3784 -0.0015 -0.1637
  616ERGO    R5 8970  17.857   7.657   9.976 -0.0731 -0.2275  0.0332
  616ERGO    C1 8971  18.112   7.752   9.709 -0.3541  0.0159 -0.1533
  616ERGO    C2 8972  18.326   7.892   9.740  0.1976  0.1632 -0.0116
  617ERGO   ROH 8973  11.905  10.886  10.079  0.1945 -0.2127  0.1448
  617ERGO    R1 8974  12.050  10.660   9.989  0.2968 -0.1608  0.1823
  617ERGO    R2 8975  11.979  10.517   9.764  0.2704 -0.3194  0.2958
  617ERGO    R3 8976  12.236  10.566   9.690  0.2015 -0.1892  0.1306
  617ERGO    R4 8977  12.137  10.375   9.491  0.1738 -0.2577  0.2049
  617ERGO    R5 8978  12.317  10.355   9.612  0.2635 -0.1555  0.0957
  617ERGO    C1 8979  12.470  10.339   9.263  0.0528 -0.0995 -0.0030
  617ERGO    C2 8980  12.796  10.279   9.105  0.1805 -0.0789 -0.0359
  618ERGO   ROH 8981   1.579   3.549   9.940 -0.4295 -0.3114 -0.2138
  618ERGO    R1 8982   1.494   3.599   9.675 -0.2009 -0.0457 -0.2429
  618ERGO    R2 8983   1.578   3.819   9.529  0.2081 -0.0863 -0.0798
  618ERGO    R3 8984   1.651   3.630   9.348  0.0429 -0.0994 -0.1335
  618ERGO    R4 8985   1.504   3.829   9.192  0.1462  0.0360 -0.0632
  618ERGO    R5 8986   1.464   3.615   9.199  0.0011  0.0599 -0.0998
  618ERGO    C1 8987   1.529   3.657   8.825 -0.0449  0.0949 -0.1037
  618ERGO    C2 8988   1.580   3.855   8.615  0.0375  0.0711  0.2726
  619ERGO   ROH 8989   2.856   6.708   9.774  0.0403 -0.3295 -0.0496
  619ERGO    R1 8990   2.784   6.886   9.566  0.0527 -0.2525  0.0121
  619ERGO    R2 8991   2.870   6.853   9.306  0.1520 -0.0981  0.0277
  619ERGO    R3 8992   2.604   6.864   9.250  0.1667 -0.1573 -0.0614
  619ERGO    R4 8993   2.736   6.967   9.009  0.2168  0.3754  0.1705
  619ERGO    R5 8994   2.579   7.066   9.123  0.1045  0.0730  0.2969
  619ERGO    C1 8995   2.408   7.043   8.783  0.2683  0.5955  0.1701
  619ERGO    C2 8996   2.095   7.145   8.529 -0.2890  0.1912 -0.5686
  620ERGO   ROH 8997   6.186   1.500   9.865 -0.0222  0.3826  0.2791
  620ERGO    R1 8998   6.364   1.655   9.709 -0.0299  0.2297  0.1167
  620ERGO    R2 8999   6.637   1.656   9.752 -0.0114  0.1505 -0.0018
  620ERGO    R3 9000   6.646   1.591   9.488 -0.1479  0.0018  0.0281
  620ERGO    R4 9001   6.926   1.642   9.562 -0.1242  0.1988 -0.1807
  620ERGO    R5 9002   6.816   1.734   9.398 -0.2824  0.0440 -0.1660
  620ERGO    C1 9003   7.103   1.572   9.205 -0.3180  0.0874 -0.2569
  620ERGO    C2 9004   7.480   1.704   9.126  0.0591 -0.0032 -0.4052
  621ERGO   ROH 9005   5.433  12.835   9.762  0.0708 -0.1740  0.0371
  621ERGO    R1 9006   5.333  12.885   9.502  0.0447 -0.0611  0.0657
  621ERGO    R2 9007   5.482  13.013   9.307  0.0078  0.0848  0.1162
  621ERGO    R3 9008   5.423  12.790   9.162  0.0585  0.1388  0.0164
  621ERGO    R4 9009   5.531  12.980   8.967  0.1386  0.1777  0.1269
  621ERGO    R5 9010   5.341  12.875   8.954  0.1503  0.1959  0.0133
  621ERGO    C1 9011   5.504  12.753   8.632  0.2624  0.2824  0.0394
  621ERGO    C2 9012   5.689  12.622   8.329  0.0072  0.2202  0.0465
  622ERGO   ROH 9013   1.870   2.657   9.967  0.1868 -0.0840  0.1421
  622ERGO    R1 9014   1.938   2.768   9.716  0.1974 -0.1977  0.0940
  622ERGO    R2 9015   2.017   2.612   9.501 -0.1329 -0.3276  0.0598
  622ERGO    R3 9016   1.815   2.743   9.374 -0.0312 -0.0629  0.1642
  622ERGO    R4 9017   1.975   2.625   9.158 -0.1270 -0.0204  0.0678
  622ERGO    R5 9018   1.918   2.834   9.178  0.0404  0.0125  0.2357
  622ERGO    C1 9019   1.761   2.754   8.839 -0.0281  0.4069  0.1702
  622ERGO    C2 9020   1.421   2.757   8.671 -0.0736 -0.0793 -0.2071
  623ERGO   ROH 9021  16.890   9.135   9.972  0.1933 -0.0958  0.0470
  623ERGO    R1 9022  16.834   9.220   9.708  0.1532  0.0023  0.0868
  623ERGO    R2 9023  17.028   9.322   9.540  0.1629 -0.1004  0.0365
  623ERGO    R3 9024  16.940   9.127   9.373 -0.0411 -0.0011  0.0252
  623ERGO    R4 9025  17.107   9.298   9.204  0.0994 -0.1362  0.0237
  623ERGO    R5 9026  16.902   9.239   9.165  0.0370  0.0596  0.0424
  623ERGO    C1 9027  17.070   9.101   8.852 -0.1290 -0.0638  0.0056
  623ERGO    C2 9028  17.386   9.001   8.677  0.0406  0.3562 -0.0006
  624ERGO   ROH 9029  16.117   7.480  10.115 -0.2602  0.0054 -0.0765
  624ERGO    R1 9030  16.002   7.489   9.857 -0.2192 -0.1112 -0.0985
  624ERGO    R2 9031  16.096   7.657   9.658 -0.4130  0.0584 -0.0441
  624ERGO    R3 9032  16.112   7.425   9.516 -0.0561  0.1053 -0.0899
  624ERGO    R4 9033  16.111   7.636   9.313 -0.1157  0.1642 -0.0404
  624ERGO    R5 9034  15.978   7.464   9.322  0.0523  0.0154 -0.1890
  624ERGO    C1 9035  16.136   7.407   8.979  0.3926  0.2698 -0.0811
  624ERGO    C2 9036  16.134   7.183   8.572  0.1089 -0.0106  0.1205
  625ERGO   ROH 9037  11.054   9.994  10.177 -0.0512 -0.0557 -0.1401
  625ERGO    R1 9038  11.013  10.054   9.904 -0.0337 -0.1466 -0.1632
  625ERGO    R2 9039  11.163  10.242   9.768 -0.2145  0.0181 -0.1410
  625ERGO    R3 9040  11.208  10.036   9.597  0.0932  0.0422 -0.0947
  625ERGO    R4 9041  11.217  10.276   9.429 -0.2034  0.0228 -0.1387
  625ERGO    R5 9042  11.093  10.099   9.397  0.0395 -0.1524 -0.1257
  625ERGO    C1 9043  11.290  10.102   9.070  0.0918  0.0482 -0.0939
  625ERGO    C2 9044  11.418   9.938   8.821  0.1224  0.1351  0.0942
  626ERGO   ROH 9045  11.538  17.571  10.042  0.1727 -0.0985  0.0275
  626ERGO    R1 9046  11.508  17.625   9.766 -0.0047 -0.0486  0.0557
  626ERGO    R2 9047  11.684  17.531   9.576 -0.0497  0.1014 -0.0588
  626ERGO    R3 9048  11.458  17.432   9.462 -0.0512 -0.0031  0.0330
  626ERGO    R4 9049  11.670  17.383   9.264 -0.1124  0.1614 -0.0848
  626ERGO    R5 9050  11.481  17.486   9.230 -0.1933  0.0632  0.0310
  626ERGO    C1 9051  11.449  17.203   8.976 -0.1505  0.0982 -0.0136
  626ERGO    C2 9052  11.599  16.906   8.839 -0.3535 -0.0074 -0.3376
  627ERGO   ROH 9053   0.906   0.821   9.942 -0.0531  0.0044  0.0670
  627ERGO    R1 9054   0.920   0.948   9.690  0.0910  0.0569  0.1003
  627ERGO    R2 9055   1.154   0.962   9.543  0.1269 -0.1059  0.1365
  627ERGO    R3 9056   1.001   0.850   9.349  0.0559  0.0717  0.0883
  627ERGO    R4 9057   1.212   0.994   9.204  0.0869  0.0774  0.1456
  627ERGO    R5 9058   0.997   1.014   9.174  0.0922  0.1782  0.1886
  627ERGO    C1 9059   1.103   0.906   8.824 -0.0030  0.3508  0.1057
  627ERGO    C2 9060   1.267   0.811   8.568  0.3246  0.0075 -0.1581
  628ERGO   ROH 9061   0.820   4.434  10.406  0.3806  0.1245 -0.0418
  628ERGO    R1 9062   0.842   4.535  10.143  0.2377 -0.0696 -0.1308
  628ERGO    R2 9063   0.913   4.376   9.928 -0.0101 -0.2576 -0.0771
  628ERGO    R3 9064   0.682   4.474   9.822 -0.0386 -0.2072  0.0294
  628ERGO    R4 9065   0.859   4.434   9.591 -0.1140 -0.1357 -0.0407
  628ERGO    R5 9066   0.755   4.618   9.645 -0.0873 -0.1486  0.0570
  628ERGO    C1 9067   0.612   4.560   9.296 -0.2012 -0.0173  0.0807
  628ERGO    C2 9068   0.427   4.660   8.999 -0.0679 -0.0372 -0.0662
  629ERGO   ROH 9069   7.228   9.031   9.759 -0.1069 -0.0026 -0.0152
  629ERGO    R1 9070   7.152   9.003   9.488 -0.0498 -0.0838 -0.0226
  629ERGO    R2 9071   7.269   9.148   9.284 -0.1426 -0.0004 -0.0167
  629ERGO    R3 9072   7.312   8.901   9.177  0.0733  0.0260  0.0042
  629ERGO    R4 9073   7.327   9.085   8.949 -0.1162  0.0182 -0.0160
  629ERGO    R5 9074   7.201   8.908   8.965  0.0461 -0.0976  0.0136
  629ERGO    C1 9075   7.402   8.817   8.654  0.1019  0.0538  0.0042
  629ERGO    C2 9076   7.505   8.888   8.391  0.2003  0.0112 -0.0674
  630ERGO   ROH 9077  17.160  13.565  10.327  0.1027 -0.1121  0.1302
  630ERGO    R1 9078  17.093  13.552  10.052  0.1603  0.0718  0.1060
  630ERGO    R2 9079  17.274  13.611   9.852  0.3236 -0.1743  0.1784
  630ERGO    R3 9080  17.206  13.364   9.762 -0.0630 -0.0443  0.0913
  630ERGO    R4 9081  17.223  13.529   9.520  0.5226 -0.0456  0.1134
  630ERGO    R5 9082  17.054  13.405   9.582  0.2059  0.2715 -0.0758
  630ERGO    C1 9083  17.130  13.248   9.243  0.2756  0.1514 -0.0060
  630ERGO    C2 9084  17.143  13.094   8.928 -0.1565  0.0198 -0.1534
  631ERGO   ROH 9085   6.541   9.882   9.657 -0.1620 -0.1019 -0.0976
  631ERGO    R1 9086   6.650   9.752   9.430 -0.1389 -0.1136 -0.0795
  631ERGO    R2 9087   6.498   9.592   9.264 -0.1366 -0.0714 -0.1221
  631ERGO    R3 9088   6.594   9.757   9.070 -0.0560 -0.0819 -0.0919
  631ERGO    R4 9089   6.501   9.520   8.925 -0.1881  0.0001 -0.1384
  631ERGO    R5 9090   6.699   9.610   8.913 -0.1408 -0.1035 -0.1275
  631ERGO    C1 9091   6.592   9.633   8.547 -0.1424  0.0320 -0.1193
  631ERGO    C2 9092   6.705   9.435   8.216 -0.1591 -0.4850 -0.0423
  632ERGO   ROH 9093  17.124   1.594  10.150  0.1833  0.4123 -0.1182
  632ERGO    R1 9094  17.095   1.693   9.887  0.2397  0.2072 -0.2041
  632ERGO    R2 9095  17.244   1.599   9.674  0.1225 -0.1223 -0.1441
  632ERGO    R3 9096  16.999   1.559   9.563  0.0681  0.0060 -0.0732
  632ERGO    R4 9097  17.178   1.603   9.335  0.0558 -0.2250 -0.1332
  632ERGO    R5 9098  16.993   1.710   9.377  0.1405 -0.0697 -0.1393
  632ERGO    C1 9099  16.910   1.569   9.033 -0.0342 -0.1643 -0.0603
  632ERGO    C2 9100  16.849   1.489   8.730 -0.0583 -0.0327  0.1932
  633ERGO   ROH 9101  10.988   2.696   9.911 -0.2964 -0.1123 -0.1198
  633ERGO    R1 9102  10.978   2.774   9.639 -0.0895  0.0178 -0.0925
  633ERGO    R2 9103  11.089   3.010   9.547  0.1563 -0.0304  0.0693
  633ERGO    R3 9104  11.219   2.844   9.375  0.1099 -0.0636  0.0658
  633ERGO    R4 9105  11.218   3.105   9.241 -0.1077 -0.1396 -0.0794
  633ERGO    R5 9106  11.148   2.916   9.158 -0.0796 -0.2178  0.0758
  633ERGO    C1 9107  11.415   3.005   8.901 -0.3049 -0.2344 -0.1691
  633ERGO    C2 9108  11.489   2.857   8.682 -0.1905  0.0734 -0.2496
  634ERGO   ROH 9109   0.723  10.507  10.370  0.2453  0.2897 -0.0530
  634ERGO    R1 9110   0.815  10.489  10.103  0.2026  0.2277 -0.0645
  634ERGO    R2 9111   0.748  10.279   9.936  0.3512  0.0720  0.0599
  634ERGO    R3 9112   0.664  10.479   9.772  0.1336 -0.0857 -0.0242
  634ERGO    R4 9113   0.815  10.297   9.598  0.4250  0.0737  0.0748
  634ERGO    R5 9114   0.847  10.512   9.621  0.1307  0.1200  0.0223
  634ERGO    C1 9115   0.775  10.495   9.246  0.2638 -0.0733  0.0046
  634ERGO    C2 9116   0.748  10.612   8.926  0.1101 -0.0937 -0.4201
  635ERGO   ROH 9117   4.075  13.701   9.835 -0.1692  0.2952  0.0691
  635ERGO    R1 9118   3.914  13.783   9.617 -0.1505  0.1706  0.0089
  635ERGO    R2 9119   4.015  13.927   9.403 -0.1295  0.0286 -0.0721
  635ERGO    R3 9120   3.907  13.725   9.258 -0.1372 -0.0517  0.0418
  635ERGO    R4 9121   3.969  13.933   9.061 -0.0356 -0.1944 -0.0912
  635ERGO    R5 9122   3.776  13.836   9.090 -0.0699 -0.1328 -0.0711
  635ERGO    C1 9123   3.840  13.747   8.725  0.0117 -0.3995  0.0046
  635ERGO    C2 9124   3.876  13.882   8.470 -0.2305  0.0098 -0.2333
  636ERGO   ROH 9125  15.428   3.830  10.313 -0.2645 -0.0974  0.1513
  636ERGO    R1 9126  15.463   3.982  10.077 -0.2854 -0.0608  0.1705
  636ERGO    R2 9127  15.702   3.986   9.937 -0.2357  0.1124  0.2531
  636ERGO    R3 9128  15.544   3.913   9.729 -0.1129  0.0097  0.1964
  636ERGO    R4 9129  15.698   4.141   9.628 -0.2129  0.0961  0.2456
  636ERGO    R5 9130  15.481   4.119   9.625 -0.1980 -0.0337  0.1643
  636ERGO    C1 9131  15.548   4.161   9.252 -0.0843 -0.0099  0.1880
  636ERGO    C2 9132  15.581   4.173   8.885 -0.1127 -0.4211  0.0762
  637ERGO   ROH 9133  11.453   8.743  10.242 -0.3846  0.0879 -0.1767
  637ERGO    R1 9134  11.632   8.714  10.026 -0.1608 -0.0666  0.0237
  637ERGO    R2 9135  11.570   8.570   9.799 -0.0474  0.0201 -0.0647
  637ERGO    R3 9136  11.636   8.801   9.672  0.3306 -0.0295  0.0315
  637ERGO    R4 9137  11.645   8.594   9.463 -0.3671  0.0820 -0.1346
  637ERGO    R5 9138  11.805   8.734   9.514  0.0154 -0.3050 -0.2037
  637ERGO    C1 9139  11.751   8.825   9.147 -0.1983  0.0714 -0.0850
  637ERGO    C2 9140  11.695   8.993   8.824  0.0218  0.2253 -0.0777
  638ERGO   ROH 9141  10.724  16.592  10.180  0.1597  0.2613 -0.1070
  638ERGO    R1 9142  10.810  16.601   9.910  0.0791  0.1528 -0.1372
  638ERGO    R2 9143  10.992  16.421   9.806  0.1876  0.2210 -0.0698
  638ERGO    R3 9144  10.796  16.381   9.621  0.1657 -0.0459  0.0078
  638ERGO    R4 9145  11.035  16.447   9.464  0.0162  0.2907 -0.0872
  638ERGO    R5 9146  10.840  16.544   9.451 -0.1279  0.0227 -0.0075
  638ERGO    C1 9147  10.877  16.424   9.091 -0.1040  0.0806 -0.0244
  638ERGO    C2 9148  10.849  16.502   8.769 -0.2002  0.0488  0.1374
  639ERGO   ROH 9149  16.077   9.896  10.507  0.1343  0.0089 -0.0706
  639ERGO    R1 9150  15.991   9.853  10.241  0.1014 -0.0306 -0.0550
  639ERGO    R2 9151  16.016  10.045  10.043 -0.1286  0.0294 -0.0395
  639ERGO    R3 9152  16.145   9.845   9.911  0.0255  0.1645 -0.0937
  639ERGO    R4 9153  16.105  10.054   9.709 -0.2496  0.1189 -0.0692
  639ERGO    R5 9154  16.046   9.845   9.693 -0.0434  0.0678 -0.0556
  639ERGO    C1 9155  16.278   9.871   9.391 -0.1755  0.2979 -0.1376
  639ERGO    C2 9156  16.452   9.858   9.059  0.0723 -0.0836  0.0985
  640ERGO   ROH 9157   8.520  14.206   9.885 -0.0896 -0.3092 -0.0071
  640ERGO    R1 9158   8.644  14.185   9.632 -0.0103 -0.2059  0.0226
  640ERGO    R2 9159   8.629  13.957   9.477 -0.0267 -0.1165 -0.1083
  640ERGO    R3 9160   8.536  14.130   9.288  0.0886  0.0152 -0.0462
  640ERGO    R4 9161   8.586  13.880   9.143 -0.2719 -0.0326 -0.0986
  640ERGO    R5 9162   8.664  14.077   9.092 -0.0608 -0.1158 -0.1112
  640ERGO    C1 9163   8.474  13.997   8.771 -0.3065  0.1399 -0.0345
  640ERGO    C2 9164   8.400  13.932   8.461  0.2494 -0.1628 -0.4375
  641ERGO   ROH 9165   3.688   6.464   9.698 -0.1644  0.3899 -0.1722
  641ERGO    R1 9166   3.796   6.558   9.453  0.0538  0.2332 -0.1400
  641ERGO    R2 9167   4.003   6.431   9.323 -0.0869 -0.0758 -0.0750
  641ERGO    R3 9168   3.830   6.433   9.114 -0.0241  0.1783 -0.1268
  641ERGO    R4 9169   4.093   6.385   8.993 -0.0458 -0.0939 -0.0613
  641ERGO    R5 9170   3.952   6.541   8.938  0.1513  0.0841 -0.0636
  641ERGO    C1 9171   3.983   6.360   8.604  0.0371  0.1343 -0.1019
  641ERGO    C2 9172   3.986   6.214   8.187 -0.1357  0.2783 -0.2371
  642ERGO   ROH 9173   3.493   0.871  10.031 -0.3041  0.0748 -0.0771
  642ERGO    R1 9174   3.470   0.987   9.774 -0.2717 -0.0671 -0.1445
  642ERGO    R2 9175   3.680   0.995   9.595 -0.1726  0.0630 -0.0226
  642ERGO    R3 9176   3.501   0.874   9.429  0.0459 -0.1963 -0.0774
  642ERGO    R4 9177   3.725   0.952   9.255 -0.1151  0.3653 -0.0563
  642ERGO    R5 9178   3.514   1.001   9.226 -0.2267 -0.0364 -0.0006
  642ERGO    C1 9179   3.583   0.814   8.901  0.1235  0.2979 -0.1273
  642ERGO    C2 9180   3.663   0.729   8.561 -0.0479 -0.1742  0.0276
  643ERGO   ROH 9181   7.269   5.399   9.752  0.3213 -0.0317 -0.0994
  643ERGO    R1 9182   7.170   5.361   9.489  0.2125 -0.0722 -0.0527
  643ERGO    R2 9183   7.140   5.570   9.310  0.0617 -0.0888 -0.0450
  643ERGO    R3 9184   7.294   5.412   9.151  0.0392 -0.0427 -0.1131
  643ERGO    R4 9185   7.087   5.517   8.972 -0.1450 -0.1933  0.0020
  643ERGO    R5 9186   7.138   5.308   9.002 -0.0110 -0.1615  0.0174
  643ERGO    C1 9187   7.200   5.338   8.627 -0.2864 -0.2108 -0.0348
  643ERGO    C2 9188   7.082   5.217   8.295  0.0764  0.1284 -0.0312
  644ERGO   ROH 9189  15.174   2.461  10.523  0.1427  0.2104 -0.0449
  644ERGO    R1 9190  15.276   2.423  10.262 -0.0134  0.2653 -0.1152
  644ERGO    R2 9191  15.112   2.382  10.043 -0.1443  0.2311 -0.0159
  644ERGO    R3 9192  15.250   2.593   9.941 -0.2778  0.2860 -0.0841
  644ERGO    R4 9193  15.191   2.422   9.709  0.0070  0.0762  0.0004
  644ERGO    R5 9194  15.387   2.496   9.770 -0.0947  0.2947  0.0590
  644ERGO    C1 9195  15.367   2.643   9.419 -0.0304  0.0376 -0.0541
  644ERGO    C2 9196  15.203   2.768   9.097  0.0920 -0.0683  0.0231
  645ERGO   ROH 9197   1.931   6.189  10.200  0.0029  0.0152  0.0670
  645ERGO    R1 9198   1.865   6.107   9.937  0.1587  0.0045  0.0306
  645ERGO    R2 9199   1.732   6.272   9.759 -0.1018 -0.1427  0.0880
  645ERGO    R3 9200   1.944   6.214   9.599  0.0103  0.2692  0.0757
  645ERGO    R4 9201   1.725   6.276   9.414 -0.1394 -0.1638  0.0880
  645ERGO    R5 9202   1.848   6.096   9.414  0.2232  0.0691  0.0850
  645ERGO    C1 9203   1.919   6.224   9.062 -0.0561  0.2106  0.0765
  645ERGO    C2 9204   1.795   6.277   8.781  0.3093  0.2928 -0.3143
  646ERGO   ROH 9205  12.990   4.778  10.126  0.2655  0.2030  0.0097
  646ERGO    R1 9206  12.902   4.874   9.874  0.0934  0.0262 -0.0003
  646ERGO    R2 9207  13.053   5.048   9.720 -0.1716  0.2110 -0.0571
  646ERGO    R3 9208  13.018   4.857   9.530  0.0740  0.1177 -0.0120
  646ERGO    R4 9209  13.130   5.085   9.386 -0.2677  0.2542 -0.0749
  646ERGO    R5 9210  12.948   4.978   9.336 -0.1259 -0.0192 -0.0286
  646ERGO    C1 9211  13.143   4.928   9.012 -0.0931  0.1918 -0.0429
  646ERGO    C2 9212  13.262   4.993   8.720  0.1485 -0.5517  0.0306
  647ERGO   ROH 9213   9.704  16.847   9.883  0.0956 -0.0077 -0.0951
  647ERGO    R1 9214   9.717  16.953   9.621 -0.2842 -0.0140 -0.1210
  647ERGO    R2 9215   9.912  16.877   9.440 -0.1200  0.4894 -0.1627
  647ERGO    R3 9216   9.697  16.821   9.282 -0.0309 -0.1434 -0.0900
  647ERGO    R4 9217   9.928  16.799   9.103  0.0069  0.4623 -0.1517
  647ERGO    R5 9218   9.751  16.921   9.071 -0.3609 -0.0248 -0.1280
  647ERGO    C1 9219   9.736  16.701   8.760  0.1644 -0.1475 -0.0770
  647ERGO    C2 9220   9.645  16.591   8.418  0.0569 -0.0863 -0.1357
  648ERGO   ROH 9221  10.305   8.287   9.945 -0.2169 -0.0117 -0.0531
  648ERGO    R1 9222  10.382   8.497   9.772 -0.0947 -0.0098  0.0051
  648ERGO    R2 9223  10.608   8.484   9.612 -0.1206 -0.1076 -0.0108
  648ERGO    R3 9224  10.430   8.541   9.414 -0.0929  0.0721  0.0126
  648ERGO    R4 9225  10.692   8.581   9.291 -0.0449 -0.3386 -0.0637
  648ERGO    R5 9226  10.529   8.724   9.296  0.1472 -0.0991 -0.0724
  648ERGO    C1 9227  10.575   8.691   8.918  0.0250 -0.3045 -0.0725
  648ERGO    C2 9228  10.756   8.888   8.593  0.0599  0.2106  0.1137
  649ERGO   ROH 9229  15.559  11.884  10.288 -0.1485  0.0546  0.1028
  649ERGO    R1 9230  15.431  11.743  10.078 -0.1176  0.0590  0.0806
  649ERGO    R2 9231  15.167  11.784  10.010 -0.1019  0.0786  0.0256
  649ERGO    R3 9232  15.271  11.827   9.763 -0.0472  0.0643  0.0464
  649ERGO    R4 9233  14.985  11.787   9.716 -0.0595  0.2104  0.0001
  649ERGO    R5 9234  15.148  11.680   9.620 -0.0986  0.1457  0.0075
  649ERGO    C1 9235  14.977  11.828   9.313  0.0166  0.2737  0.0049
  649ERGO    C2 9236  14.796  11.970   9.076 -0.0123 -0.2487  0.1322
  650ERGO   ROH 9237   8.403   6.468   9.637  0.0126 -0.0447 -0.0141
  650ERGO    R1 9238   8.517   6.297   9.442 -0.1723 -0.0881 -0.0850
  650ERGO    R2 9239   8.388   6.233   9.207 -0.1811  0.2758 -0.1797
  650ERGO    R3 9240   8.617   6.323   9.093  0.0102 -0.0006 -0.0294
  650ERGO    R4 9241   8.493   6.155   8.887 -0.1743  0.2954 -0.1829
  650ERGO    R5 9242   8.697   6.138   8.964 -0.2203 -0.0580 -0.1023
  650ERGO    C1 9243   8.769   6.195   8.594  0.0092  0.0474 -0.0437
  650ERGO    C2 9244   8.558   6.120   8.321 -0.0557 -0.2220  0.0999
  651ERGO   ROH 9245   9.342   3.902   9.584 -0.2403 -0.2102 -0.0643
  651ERGO    R1 9246   9.149   4.028   9.420 -0.1644 -0.2319 -0.1696
  651ERGO    R2 9247   9.197   4.267   9.292 -0.2113 -0.0986  0.0702
  651ERGO    R3 9248   9.123   4.128   9.071  0.1242  0.0217 -0.1256
  651ERGO    R4 9249   9.021   4.400   9.025 -0.2082 -0.0435  0.0955
  651ERGO    R5 9250   8.906   4.214   9.016  0.0368 -0.2012 -0.1720
  651ERGO    C1 9251   8.849   4.346   8.663  0.1085  0.1016 -0.0736
  651ERGO    C2 9252   8.893   4.491   8.322  0.1534  0.0417 -0.0314
  652ERGO   ROH 9253  15.020   9.789  10.004 -0.0879  0.0814  0.0143
  652ERGO    R1 9254  15.156   9.978   9.844 -0.0730  0.0294 -0.0355
  652ERGO    R2 9255  15.179   9.951   9.569 -0.2057  0.0341 -0.0506
  652ERGO    R3 9256  15.072  10.201   9.568 -0.0960  0.0816  0.0144
  652ERGO    R4 9257  15.215  10.181   9.314 -0.1709  0.0588 -0.0227
  652ERGO    R5 9258  15.239  10.337   9.464 -0.0645  0.0248 -0.0060
  652ERGO    C1 9259  15.135  10.549   9.164 -0.0477  0.1179  0.0546
  652ERGO    C2 9260  15.184  10.814   8.919  0.0745  0.0634  0.2444
  653ERGO   ROH 9261   9.400   5.613   9.869 -0.0078 -0.0831  0.0698
  653ERGO    R1 9262   9.484   5.591   9.599  0.0572 -0.1014  0.0923
  653ERGO    R2 9263   9.460   5.357   9.455 -0.0360 -0.0682  0.0636
  653ERGO    R3 9264   9.327   5.516   9.279  0.1086  0.0243  0.0352
  653ERGO    R4 9265   9.408   5.280   9.122 -0.3268 -0.2176  0.1392
  653ERGO    R5 9266   9.448   5.489   9.074 -0.0308 -0.2989 -0.0174
  653ERGO    C1 9267   9.253   5.385   8.763 -0.3605 -0.2176  0.1565
  653ERGO    C2 9268   9.338   5.398   8.418  0.0176 -0.0789 -0.0401
  654ERGO   ROH 9269  17.538  14.569  10.289 -0.1775  0.0811 -0.1610
  654ERGO    R1 9270  17.456  14.475  10.035  0.0904 -0.0479 -0.2038
  654ERGO    R2 9271  17.235  14.577   9.903 -0.0218 -0.4020 -0.3016
  654ERGO    R3 9272  17.414  14.617   9.703  0.0116 -0.1013 -0.2169
  654ERGO    R4 9273  17.154  14.640   9.573  0.0323 -0.3859 -0.3118
  654ERGO    R5 9274  17.317  14.511   9.512  0.2240 -0.1584 -0.2950
  654ERGO    C1 9275  17.276  14.714   9.193  0.0954 -0.0943 -0.2382
  654ERGO    C2 9276  17.553  14.685   8.852  0.2896 -0.1111 -0.2097
  655ERGO   ROH 9277   4.836   6.078   9.834  0.0510 -0.1153 -0.1662
  655ERGO    R1 9278   4.902   6.083   9.559  0.2564 -0.2567 -0.1220
  655ERGO    R2 9279   5.008   5.864   9.427 -0.0336 -0.4636 -0.0259
  655ERGO    R3 9280   4.799   5.906   9.258  0.1494 -0.1055 -0.1749
  655ERGO    R4 9281   4.983   5.735   9.107  0.0132 -0.3331 -0.0824
  655ERGO    R5 9282   4.899   5.925   9.042  0.3414 -0.1890 -0.0936
  655ERGO    C1 9283   4.772   5.699   8.763  0.2120  0.0790 -0.2552
  655ERGO    C2 9284   4.701   5.674   8.568  0.3007  0.0648 -0.2180
  656ERGO   ROH 9285   6.457  14.506   9.651  0.1456 -0.1260  0.1505
  656ERGO    R1 9286   6.496  14.298   9.463  0.2674 -0.0573  0.0975
  656ERGO    R2 9287   6.305  14.229   9.275  0.1786 -0.3193  0.2765
  656ERGO    R3 9288   6.509  14.267   9.100 -0.0408 -0.0043  0.0792
  656ERGO    R4 9289   6.293  14.151   8.939  0.0271 -0.4911  0.3202
  656ERGO    R5 9290   6.498  14.078   8.954  0.1890 -0.0960  0.1767
  656ERGO    C1 9291   6.479  14.141   8.579 -0.2671 -0.2955  0.1604
  656ERGO    C2 9292   6.395  14.233   8.288 -0.0144 -0.1425  0.1497
  657ERGO   ROH 9293  14.964  13.235  10.120 -0.3526 -0.1318  0.0209
  657ERGO    R1 9294  14.908  13.171   9.850 -0.1555  0.0507 -0.0652
  657ERGO    R2 9295  14.949  13.350   9.643  0.1211  0.1452  0.0695
  657ERGO    R3 9296  15.097  13.147   9.540  0.0989  0.1231  0.0803
  657ERGO    R4 9297  15.019  13.307   9.307  0.0698  0.0933  0.0650
  657ERGO    R5 9298  14.988  13.093   9.333  0.0650  0.0963  0.1032
  657ERGO    C1 9299  15.197  13.091   9.015  0.0191  0.0425  0.0726
  657ERGO    C2 9300  15.270  13.211   8.802 -0.1300  0.0782  0.1570
  658ERGO   ROH 9301   0.997  15.336   9.842  0.2219 -0.1303  0.0644
  658ERGO    R1 9302   0.882  15.172   9.642  0.2380 -0.1167  0.0445
  658ERGO    R2 9303   0.674  15.257   9.481  0.1163 -0.1767  0.1726
  658ERGO    R3 9304   0.842  15.184   9.280  0.0738  0.0124  0.0649
  658ERGO    R4 9305   0.593  15.262   9.145 -0.0693 -0.1531  0.2162
  658ERGO    R5 9306   0.700  15.073   9.122  0.0765 -0.0639  0.1119
  658ERGO    C1 9307   0.703  15.195   8.761 -0.2173  0.0383  0.1405
  658ERGO    C2 9308   0.458  15.231   8.435  0.2910 -0.2310  0.1797
  659ERGO   ROH 9309  14.075   5.672  10.336  0.0275 -0.2188 -0.0126
  659ERGO    R1 9310  14.157   5.817  10.107 -0.0660 -0.0647  0.0514
  659ERGO    R2 9311  14.346   5.721   9.930 -0.0272  0.1222 -0.0061
  659ERGO    R3 9312  14.150   5.769   9.747 -0.0635  0.1060  0.0272
  659ERGO    R4 9313  14.398   5.756   9.590 -0.0932  0.0763 -0.0218
  659ERGO    R5 9314  14.252   5.918   9.589 -0.0884  0.0830 -0.0128
  659ERGO    C1 9315  14.245   5.821   9.220 -0.1658  0.0343  0.0002
  659ERGO    C2 9316  14.259   5.659   8.817  0.1004  0.2587 -0.2517
  660ERGO   ROH 9317   0.802  11.932  10.387  0.1436 -0.0551 -0.1345
  660ERGO    R1 9318   0.788  12.070  10.140 -0.1170  0.0516 -0.0656
  660ERGO    R2 9319   0.955  12.012   9.927 -0.0360  0.4349 -0.1283
  660ERGO    R3 9320   0.720  11.984   9.793 -0.0167  0.1050 -0.0952
  660ERGO    R4 9321   0.922  12.006   9.583 -0.1134  0.5554 -0.1223
  660ERGO    R5 9322   0.742  12.126   9.602 -0.3086  0.2355 -0.0252
  660ERGO    C1 9323   0.683  11.975   9.257 -0.1405  0.3158 -0.0877
  660ERGO    C2 9324   0.722  12.071   8.956  0.1658 -0.0395  0.1138
  661ERGO   ROH 9325  13.229  10.388   6.361  0.0064  0.0697  0.0136
  661ERGO    R1 9326  13.175  10.435   6.635  0.0473 -0.0600  0.0448
  661ERGO    R2 9327  12.942  10.349   6.758 -0.0219  0.0450 -0.0074
  661ERGO    R3 9328  13.116  10.232   6.931 -0.1092 -0.2036 -0.0831
  661ERGO    R4 9329  12.886  10.305   7.096 -0.0039 -0.0330 -0.0144
  661ERGO    R5 9330  13.094  10.359   7.133  0.0577 -0.2608 -0.0283
  661ERGO    C1 9331  13.016  10.171   7.455 -0.0753 -0.3118 -0.0895
  661ERGO    C2 9332  13.000  10.046   7.703 -0.0467 -0.3822 -0.2829
  662ERGO   ROH 9333  15.657   5.613  10.925  0.0723  0.0491  0.0678
  662ERGO    R1 9334  15.736   5.787  10.715  0.2346 -0.1252 -0.0156
  662ERGO    R2 9335  15.908   5.708  10.514 -0.1072 -0.4958 -0.1633
  662ERGO    R3 9336  15.707   5.794  10.352 -0.0848 -0.0943  0.0051
  662ERGO    R4 9337  15.937   5.762  10.174 -0.2799 -0.6035 -0.1979
  662ERGO    R5 9338  15.814   5.940  10.196  0.1001 -0.3283 -0.1052
  662ERGO    C1 9339  15.765   5.872   9.824 -0.3595 -0.2894 -0.0600
  662ERGO    C2 9340  15.595   5.697   9.553 -0.0761 -0.1307  0.3271
  663ERGO   ROH 9341   8.450  16.136   9.865  0.2270  0.0620  0.0280
  663ERGO    R1 9342   8.347  16.253   9.629  0.0885  0.0441  0.0804
  663ERGO    R2 9343   8.505  16.392   9.450 -0.0570  0.2178  0.0913
  663ERGO    R3 9344   8.399  16.217   9.270  0.0480  0.1850  0.0584
  663ERGO    R4 9345   8.409  16.473   9.128  0.1205  0.1686  0.0230
  663ERGO    R5 9346   8.234  16.345   9.153  0.1069  0.1651 -0.0535
  663ERGO    C1 9347   8.253  16.356   8.772  0.3224  0.1091 -0.0478
  663ERGO    C2 9348   8.130  16.468   8.404 -0.0049 -0.1118 -0.1814
  664ERGO   ROH 9349  17.992   9.012  10.250  0.0056 -0.1672  0.0289
  664ERGO    R1 9350  17.883   8.922  10.005  0.0081 -0.3356  0.0874
  664ERGO    R2 9351  17.940   9.043   9.763 -0.3887 -0.1746  0.0639
  664ERGO    R3 9352  18.012   8.791   9.690  0.0539 -0.0316 -0.0232
  664ERGO    R4 9353  17.899   8.910   9.447 -0.6787 -0.3080  0.1548
  664ERGO    R5 9354  17.839   8.722   9.539 -0.0837 -0.4443  0.3043
  664ERGO    C1 9355  17.942   8.597   9.194 -0.4321 -0.2516  0.1260
  664ERGO    C2 9356  18.157   8.404   8.923  0.3021 -0.0678  0.1460
  665ERGO   ROH 9357  13.597   4.196  10.140 -0.1887  0.2620  0.0738
  665ERGO    R1 9358  13.676   4.130   9.876 -0.0765  0.1915  0.1244
  665ERGO    R2 9359  13.497   4.113   9.667  0.0090  0.1152  0.0562
  665ERGO    R3 9360  13.667   4.289   9.549  0.0415  0.0953  0.0732
  665ERGO    R4 9361  13.560   4.130   9.327  0.2031 -0.0296  0.0828
  665ERGO    R5 9362  13.770   4.164   9.373  0.1702  0.0340  0.1903
  665ERGO    C1 9363  13.756   4.307   9.019  0.3466 -0.1326  0.1142
  665ERGO    C2 9364  13.807   4.353   8.724  0.1469  0.0635  0.0732
  666ERGO   ROH 9365   9.790  15.742   9.972  0.1619  0.0453  0.0565
  666ERGO    R1 9366   9.731  15.856   9.719  0.2257  0.0559  0.0480
  666ERGO    R2 9367   9.920  15.875   9.518  0.1801 -0.2561 -0.0201
  666ERGO    R3 9368   9.731  15.744   9.373 -0.0520 -0.0377  0.0738
  666ERGO    R4 9369   9.915  15.855   9.173  0.1565 -0.4786 -0.0092
  666ERGO    R5 9370   9.699  15.881   9.179  0.1880 -0.1010 -0.0224
  666ERGO    C1 9371   9.735  15.720   8.836 -0.0750 -0.4033  0.0853
  666ERGO    C2 9372   9.576  15.594   8.553 -0.1070  0.0814 -0.0099
  667ERGO   ROH 9373  18.181   4.917  10.483 -0.1304 -0.0581 -0.1481
  667ERGO    R1 9374  18.151   4.896  10.203 -0.1481 -0.0591 -0.1464
  667ERGO    R2 9375  18.127   4.652  10.073 -0.1058 -0.0625 -0.1503
  667ERGO    R3 9376  17.901   4.764   9.973 -0.1379 -0.1088 -0.1286
  667ERGO    R4 9377  17.981   4.567   9.772 -0.0992 -0.0681 -0.1516
  667ERGO    R5 9378  17.940   4.778   9.737 -0.1530 -0.0756 -0.1286
  667ERGO    C1 9379  17.683   4.621   9.503 -0.1253 -0.1148 -0.1320
  667ERGO    C2 9380  17.627   4.422   9.237  0.1489 -0.0446  0.1077
  668ERGO   ROH 9381   3.097   9.271   9.965 -0.0718  0.0775  0.0705
  668ERGO    R1 9382   3.166   9.241   9.693 -0.0533 -0.0515  0.0898
  668ERGO    R2 9383   3.089   9.022   9.543 -0.2410 -0.0081  0.1297
  668ERGO    R3 9384   2.988   9.212   9.376 -0.0261  0.0518  0.0630
  668ERGO    R4 9385   3.094   9.006   9.197 -0.1335 -0.0777  0.1333
  668ERGO    R5 9386   3.142   9.218   9.193  0.0487 -0.1116  0.1127
  668ERGO    C1 9387   3.003   9.175   8.840  0.1309 -0.0619  0.0726
  668ERGO    C2 9388   2.929   9.253   8.542  0.2216 -0.1365  0.0379
  669ERGO   ROH 9389   4.923  11.929   9.328 -0.0944  0.4099 -0.1807
  669ERGO    R1 9390   5.010  11.751   9.126 -0.0497  0.2795 -0.0486
  669ERGO    R2 9391   4.920  11.767   8.865 -0.1447 -0.0120 -0.0367
  669ERGO    R3 9392   5.185  11.777   8.808 -0.1688  0.1026 -0.1309
  669ERGO    R4 9393   5.067  11.637   8.580 -0.1499 -0.2674  0.0745
  669ERGO    R5 9394   5.232  11.567   8.703 -0.0604 -0.0014  0.1142
  669ERGO    C1 9395   5.402  11.572   8.361 -0.1756 -0.3084  0.0507
  669ERGO    C2 9396   5.669  11.510   8.140 -0.0684 -0.0975 -0.2516
  670ERGO   ROH 9397  16.287   8.122   8.490 -0.1713 -0.2113 -0.0636
  670ERGO    R1 9398  16.550   8.157   8.393 -0.1124 -0.2358  0.0835
  670ERGO    R2 9399  16.708   7.946   8.310 -0.2578 -0.2134 -0.2754
  670ERGO    R3 9400  16.729   8.093   8.083 -0.0758  0.2136  0.0057
  670ERGO    R4 9401  16.983   7.947   8.101 -0.2840 -0.2042 -0.3083
  670ERGO    R5 9402  16.958   8.162   8.078  0.0291 -0.1113  0.1198
  670ERGO    C1 9403  17.162   8.085   7.765 -0.1285  0.2023 -0.0637
  670ERGO    C2 9404  17.351   7.971   7.546 -0.0658 -0.1649  0.1072
  671ERGO   ROH 9405  15.787   4.088  10.422 -0.0119 -0.0605  0.0150
  671ERGO    R1 9406  15.915   4.283  10.262 -0.2164  0.0854  0.0240
  671ERGO    R2 9407  16.086   4.217  10.055 -0.0153  0.2721  0.1267
  671ERGO    R3 9408  15.919   4.376   9.910 -0.1809 -0.0084 -0.0013
  671ERGO    R4 9409  16.111   4.271   9.715  0.2258  0.3857  0.1607
  671ERGO    R5 9410  16.063   4.481   9.750 -0.2085  0.2977  0.1633
  671ERGO    C1 9411  15.970   4.452   9.381  0.2110  0.1886  0.0603
  671ERGO    C2 9412  16.007   4.389   9.148  0.2188 -0.3406 -0.0901
  672ERGO   ROH 9413  12.624  11.472  10.140  0.0354  0.3036  0.0783
  672ERGO    R1 9414  12.471  11.535   9.910  0.0130  0.1908  0.0624
  672ERGO    R2 9415  12.326  11.770   9.887 -0.0627  0.1346 -0.0001
  672ERGO    R3 9416  12.470  11.797   9.658 -0.0766  0.1215 -0.0111
  672ERGO    R4 9417  12.330  12.052   9.687 -0.2147  0.0643 -0.1056
  672ERGO    R5 9418  12.328  11.923   9.512 -0.1477 -0.0068 -0.0589
  672ERGO    C1 9419  12.467  12.242   9.356 -0.3163  0.0111 -0.1773
  672ERGO    C2 9420  12.502  12.536   9.416 -0.0246  0.0580  0.0202
  673ERGO   ROH 9421   9.600   1.408   9.820 -0.2512 -0.2621  0.0630
  673ERGO    R1 9422   9.701   1.238   9.618 -0.0462 -0.1115  0.0336
  673ERGO    R2 9423   9.550   1.036   9.504  0.1866 -0.2775 -0.0073
  673ERGO    R3 9424   9.619   1.160   9.272  0.0447 -0.1449  0.0221
  673ERGO    R4 9425   9.531   0.893   9.190  0.1000 -0.1166 -0.0751
  673ERGO    R5 9426   9.721   0.988   9.140  0.0395 -0.0371 -0.1111
  673ERGO    C1 9427   9.585   0.926   8.789 -0.0835  0.1016 -0.0868
  673ERGO    C2 9428   9.550   0.725   8.531  0.0724 -0.0059  0.1986
  674ERGO   ROH 9429   7.180  12.528   9.611 -0.1300  0.1052 -0.0741
  674ERGO    R1 9430   7.262  12.603   9.351 -0.1783  0.0916 -0.0937
  674ERGO    R2 9431   7.485  12.494   9.229 -0.0771  0.2402 -0.0458
  674ERGO    R3 9432   7.308  12.436   9.031 -0.0189  0.0250 -0.0371
  674ERGO    R4 9433   7.570  12.424   8.901  0.0129 -0.0396  0.0349
  674ERGO    R5 9434   7.399  12.542   8.836  0.0043 -0.1321 -0.1127
  674ERGO    C1 9435   7.454  12.329   8.524  0.1201 -0.4045  0.0900
  674ERGO    C2 9436   7.625  12.022   8.310 -0.2632 -0.1139  0.1691
  675loPI    C1 9437   9.851   9.358   5.593  0.2533  0.0258  0.1722
  675loPI    C2 9438   9.513   9.167   5.687  0.3339 -0.1418  0.1255
  675loPI    C3 9439   9.514   9.439   5.394  0.2305 -0.1104  0.1541
  675loPI   PO4 9440   9.940   9.423   5.921 -0.1324  0.0996  0.1908
  675loPI   GL1 9441   9.741   9.453   6.270  0.2394 -0.0110 -0.3501
  675loPI   GL2 9442   9.471   9.657   6.244  0.0619  0.2567  0.2172
  675loPI   C1A 9443   9.546   9.287   6.726  0.0249  0.0126 -0.0145
  675loPI   C2A 9444   9.561   9.320   7.195 -0.0646 -0.0961 -0.2307
  675loPI   C3A 9445   9.687   9.455   7.582 -0.2142 -0.0234  0.0980
  675loPI   C4A 9446   9.750   9.642   7.894  0.1749 -0.0476  0.0636
  675loPI   C5A 9447   9.578   9.771   8.335 -0.0466 -0.1114 -0.1236
  675loPI   C6A 9448   9.429   9.452   8.606 -0.1905 -0.1776  0.0340
  675loPI   C1B 9449   9.290   9.724   6.679  0.1902 -0.0635  0.1122
  675loPI   C2B 9450   9.072   9.942   6.921  0.0346 -0.0241 -0.2241
  675loPI   C3B 9451   8.898   9.857   7.331  0.0566  0.0166 -0.0196
  675loPI   C4B 9452   8.741  10.031   7.699 -0.1086  0.0755 -0.0316
  676loPI    C1 9453  11.295  15.949   5.445  0.0521  0.2780 -0.0007
  676loPI    C2 9454  11.550  16.022   5.145  0.1427 -0.0185  0.0011
  676loPI    C3 9455  11.180  15.890   5.066  0.1501 -0.0486  0.0174
  676loPI   PO4 9456  11.295  16.097   5.579  0.1078 -0.1851  0.0837
  676loPI   GL1 9457  11.300  16.176   5.978 -0.0320 -0.1535 -0.1052
  676loPI   GL2 9458  11.470  16.443   5.906  0.0687 -0.0741 -0.0709
  676loPI   C1A 9459  11.444  16.048   6.406  0.0585  0.0133 -0.3875
  676loPI   C2A 9460  11.541  16.039   6.777 -0.0127  0.0507 -0.3545
  676loPI   C3A 9461  11.527  15.897   7.155 -0.1100  0.2044 -0.0125
  676loPI   C4A 9462  11.514  15.763   7.612  0.0364 -0.0472  0.3468
  676loPI   C5A 9463  11.684  15.595   7.984  0.1690  0.0999 -0.0291
  676loPI   C6A 9464  11.450  15.354   8.378 -0.1297 -0.1277 -0.0040
  676loPI   C1B 9465  11.593  16.779   6.221  0.1780 -0.0438  0.2228
  676loPI   C2B 9466  11.367  17.080   6.339 -0.2466 -0.2521  0.0473
  676loPI   C3B 9467  11.398  17.278   6.765  0.0001  0.1193 -0.0379
  676loPI   C4B 9468  11.269  17.449   7.147 -0.0231 -0.2400  0.0228
  677loPI    C1 9469   1.115   0.868   5.642  0.1538  0.2843  0.0095
  677loPI    C2 9470   1.259   1.241   5.624 -0.1028  0.3868  0.0262
  677loPI    C3 9471   1.138   1.057   5.290  0.0177  0.3198  0.0188
  677loPI   PO4 9472   0.981   0.885   5.882 -0.1420  0.3182  0.1965
  677loPI   GL1 9473   0.591   0.920   6.029 -0.3229 -0.0536 -0.1771
  677loPI   GL2 9474   0.363   0.822   6.215  0.3130  0.0227  0.1437
  677loPI   C1A 9475   0.784   0.997   6.480 -0.1234 -0.3636 -0.2271
  677loPI   C2A 9476   0.914   0.984   6.882  0.1418  0.0306  0.0174
  677loPI   C3A 9477   1.094   0.900   7.314  0.1793  0.0092 -0.0290
  677loPI   C4A 9478   1.104   0.880   7.751 -0.5263  0.0987 -0.0794
  677loPI   C5A 9479   0.955   0.740   8.099  0.1198  0.0931 -0.0227
  677loPI   C6A 9480   0.667   0.632   8.315  0.0908  0.2378 -0.0581
  677loPI   C1B 9481   0.362   0.956   6.640 -0.0943  0.1546 -0.0597
  677loPI   C2B 9482   0.462   0.814   7.007 -0.0958 -0.0188  0.1318
  677loPI   C3B 9483   0.569   0.803   7.346  0.1428  0.0179 -0.0329
  677loPI   C4B 9484   0.642   0.905   7.769 -0.3453  0.0331 -0.0447
  678loPI    C1 9485   5.094   5.832   5.315 -0.1380  0.0176  0.0114
  678loPI    C2 9486   4.830   5.587   5.141  0.0614 -0.2372  0.0625
  678loPI    C3 9487   4.959   5.912   4.947 -0.0300 -0.2963 -0.0994
  678loPI   PO4 9488   5.060   5.743   5.606 -0.3614 -0.1772 -0.1441
  678loPI   GL1 9489   5.010   5.528   5.896  0.0976  0.0535 -0.0092
  678loPI   GL2 9490   5.188   5.344   5.925 -0.2429 -0.0359 -0.3549
  678loPI   C1A 9491   4.804   5.489   6.232  0.2496 -0.1151  0.0102
  678loPI   C2A 9492   4.870   5.605   6.634 -0.0484 -0.1971 -0.1113
  678loPI   C3A 9493   4.776   5.543   7.070 -0.1558 -0.3014  0.1625
  678loPI   C4A 9494   4.927   5.147   7.300  0.1930  0.2764  0.1796
  678loPI   C5A 9495   5.102   5.185   7.663  0.1252 -0.0028 -0.0636
  678loPI   C6A 9496   5.382   5.425   7.836  0.1691  0.0703  0.3063
  678loPI   C1B 9497   5.218   5.301   6.382 -0.0182 -0.0259  0.3163
  678loPI   C2B 9498   5.281   5.222   6.793  0.0005  0.0785 -0.0771
  678loPI   C3B 9499   5.346   4.968   7.039 -0.1735 -0.1727  0.1943
  678loPI   C4B 9500   5.267   4.717   7.313  0.1096  0.0181 -0.1223
  679loPI    C1 9501  13.652  12.488   5.926 -0.1242 -0.1554 -0.0157
  679loPI    C2 9502  13.897  12.301   5.671 -0.1026 -0.1858  0.0275
  679loPI    C3 9503  13.545  12.440   5.543 -0.0324 -0.0788 -0.0516
  679loPI   PO4 9504  13.797  12.671   6.083 -0.0333 -0.0092  0.0477
  679loPI   GL1 9505  13.848  12.477   6.452 -0.1853 -0.2193  0.0970
  679loPI   GL2 9506  14.096  12.270   6.233 -0.0963 -0.2290  0.0548
  679loPI   C1A 9507  13.575  12.674   6.820  0.2736 -0.1258  0.2335
  679loPI   C2A 9508  13.361  12.913   7.136 -0.0713  0.0583  0.0899
  679loPI   C3A 9509  13.141  12.874   7.593  0.1643 -0.0619 -0.1686
  679loPI   C4A 9510  13.065  12.634   7.934  0.0581  0.0386  0.1433
  679loPI   C5A 9511  12.983  12.172   7.987  0.1151  0.0620 -0.1103
  679loPI   C6A 9512  12.966  11.764   7.845 -0.4558  0.0523 -0.1566
  679loPI   C1B 9513  14.285  12.277   6.616 -0.0162 -0.1344  0.6212
  679loPI   C2B 9514  14.336  12.034   6.983 -0.1245  0.1024  0.2114
  679loPI   C3B 9515  14.336  11.932   7.439 -0.5604  0.1465  0.2501
  679loPI   C4B 9516  14.306  12.056   7.869 -0.2094 -0.0752 -0.0610
  680loPI    C1 9517   4.429   8.329   5.791  0.0359 -0.2506 -0.1890
  680loPI    C2 9518   4.226   8.204   5.470  0.1359 -0.3033 -0.2320
  680loPI    C3 9519   4.589   8.367   5.427  0.1282 -0.2638 -0.1501
  680loPI   PO4 9520   4.300   8.056   5.951 -0.1819 -0.1226  0.0212
  680loPI   GL1 9521   4.236   8.020   6.414 -0.1263 -0.1725  0.1922
  680loPI   GL2 9522   3.999   8.157   6.641  0.1992 -0.1821  0.1836
  680loPI   C1A 9523   4.267   7.729   6.774 -0.0462 -0.1434  0.2402
  680loPI   C2A 9524   4.454   7.770   7.119  0.0864  0.0683  0.0875
  680loPI   C3A 9525   4.377   7.619   7.581  0.0947 -0.0331 -0.1144
  680loPI   C4A 9526   4.022   7.596   7.864  0.1875  0.1349 -0.4097
  680loPI   C5A 9527   3.653   7.838   7.815  0.1949 -0.0992  0.2395
  680loPI   C6A 9528   3.184   7.936   7.738  0.0631  0.1319 -0.1755
  680loPI   C1B 9529   3.990   8.298   7.022 -0.1307  0.0843  0.0583
  680loPI   C2B 9530   3.977   8.466   7.337  0.2201 -0.1575 -0.1353
  680loPI   C3B 9531   3.919   8.628   7.754 -0.0160  0.4251 -0.2946
  680loPI   C4B 9532   3.703   8.706   8.111 -0.0325  0.3885  0.2781
  681loPI    C1 9533   6.508   4.770   5.150 -0.1408  0.2231  0.0510
  681loPI    C2 9534   6.193   4.617   4.956  0.1176 -0.0773 -0.1410
  681loPI    C3 9535   6.492   4.784   4.750  0.1848  0.0119  0.0273
  681loPI   PO4 9536   6.499   4.940   5.283  0.2488  0.2874 -0.1489
  681loPI   GL1 9537   6.712   5.010   5.706 -0.1017 -0.2346  0.4528
  681loPI   GL2 9538   7.029   4.878   5.825  0.1815  0.2875  0.2289
  681loPI   C1A 9539   6.703   5.152   6.112 -0.0588  0.1925 -0.2440
  681loPI   C2A 9540   6.819   5.023   6.541  0.2413  0.2087  0.0723
  681loPI   C3A 9541   6.905   5.172   7.000 -0.3118  0.1038  0.0377
  681loPI   C4A 9542   6.584   5.363   7.289  0.1218  0.0591 -0.1529
  681loPI   C5A 9543   6.457   5.191   7.701  0.0962 -0.4311  0.1708
  681loPI   C6A 9544   6.254   4.830   7.802  0.0207  0.3086  0.2327
  681loPI   C1B 9545   7.085   4.713   6.190 -0.0814 -0.1573  0.4282
  681loPI   C2B 9546   7.173   4.578   6.535 -0.1201 -0.2025  0.0272
  681loPI   C3B 9547   7.069   4.707   6.902 -0.0165  0.2047  0.1695
  681loPI   C4B 9548   7.073   4.666   7.278 -0.2431 -0.0378  0.0441
  682loPI    C1 9549   3.074   0.259   5.056  0.0386 -0.0149 -0.0293
  682loPI    C2 9550   2.712   0.090   5.060 -0.0348  0.1431  0.1979
  682loPI    C3 9551   2.754   0.471   4.944  0.0939  0.0532 -0.0594
  682loPI   PO4 9552   3.165   0.271   5.325  0.2037 -0.1136  0.1116
  682loPI   GL1 9553   3.090   0.289   5.738  0.1072  0.3457  0.0964
  682loPI   GL2 9554   3.038   0.099   5.948 -0.1620  0.0879  0.0531
  682loPI   C1A 9555   3.445   0.438   5.995  0.1680  0.0104 -0.1075
  682loPI   C2A 9556   3.724   0.411   6.523 -0.2491 -0.2193  0.1174
  682loPI   C3A 9557   3.690   0.328   6.939 -0.0341 -0.1253 -0.1180
  682loPI   C4A 9558   3.832   0.229   7.385  0.0515 -0.1875  0.1313
  682loPI   C5A 9559   4.144   0.202   7.620  0.2414  0.1318 -0.3417
  682loPI   C6A 9560   4.486  -0.081   7.536 -0.1901  0.0679  0.2354
  682loPI   C1B 9561   3.030  -0.224   6.222 -0.0326 -0.0592 -0.0826
  682loPI   C2B 9562   2.958  -0.488   6.598  0.1477  0.1439 -0.0444
  682loPI   C3B 9563   2.987  -0.464   7.061  0.1100  0.1839 -0.0636
  682loPI   C4B 9564   3.086  -0.457   7.482  0.4063  0.0065  0.1749
  683loPI    C1 9565   4.114   6.179   5.851 -0.2912  0.2758 -0.2288
  683loPI    C2 9566   4.096   5.855   5.617 -0.0089 -0.0778  0.2219
  683loPI    C3 9567   3.806   5.926   5.884 -0.2711  0.2623 -0.1416
  683loPI   PO4 9568   4.342   6.167   5.946 -0.0302 -0.0611  0.0847
  683loPI   GL1 9569   4.619   5.970   6.242 -0.0710  0.1210 -0.2261
  683loPI   GL2 9570   4.908   6.000   6.156  0.2826 -0.2419 -0.1247
  683loPI   C1A 9571   4.385   5.831   6.582  0.0404  0.0274  0.0965
  683loPI   C2A 9572   4.423   5.949   7.019 -0.0441  0.0870  0.2083
  683loPI   C3A 9573   4.385   5.738   7.473  0.1096  0.0119 -0.0209
  683loPI   C4A 9574   4.699   5.537   7.654 -0.0144 -0.3247  0.0949
  683loPI   C5A 9575   4.809   5.336   8.064  0.0710 -0.1623  0.1942
  683loPI   C6A 9576   4.825   4.915   8.099  0.0312 -0.2252 -0.1761
  683loPI   C1B 9577   5.006   6.084   6.626  0.0671  0.0019  0.0189
  683loPI   C2B 9578   4.895   6.032   7.090 -0.0804  0.3336 -0.1524
  683loPI   C3B 9579   4.665   6.091   7.513 -0.0528 -0.1208 -0.1633
  683loPI   C4B 9580   4.358   6.248   7.852 -0.2130  0.1252  0.0907
  684loPI    C1 9581   4.562  16.375   5.284  0.0706 -0.2735 -0.0482
  684loPI    C2 9582   4.235  16.570   5.161  0.2434  0.0563  0.0038
  684loPI    C3 9583   4.400  16.290   4.927 -0.0955 -0.1426 -0.0054
  684loPI   PO4 9584   4.490  16.433   5.561 -0.1372 -0.3123 -0.0221
  684loPI   GL1 9585   4.525  16.842   5.780  0.2305  0.4839 -0.4790
  684loPI   GL2 9586   4.203  17.117   5.857  0.3770 -0.1143  0.1508
  684loPI   C1A 9587   4.653  16.876   6.266  0.2706 -0.0780 -0.2615
  684loPI   C2A 9588   4.882  16.764   6.678 -0.4161  0.1261  0.2024
  684loPI   C3A 9589   5.210  16.460   6.959  0.0826  0.2067  0.0333
  684loPI   C4A 9590   5.406  16.176   7.294  0.1451  0.0591  0.1944
  684loPI   C5A 9591   5.470  16.260   7.677 -0.0226  0.4407  0.1073
  684loPI   C6A 9592   5.657  16.267   8.029  0.1165 -0.0858 -0.0074
  684loPI   C1B 9593   4.204  17.041   6.332 -0.0020 -0.2187  0.3607
  684loPI   C2B 9594   4.428  16.977   6.733 -0.1098 -0.0347 -0.1680
  684loPI   C3B 9595   4.492  16.832   7.133 -0.1342  0.0686  0.0314
  684loPI   C4B 9596   4.557  16.816   7.562  0.1645  0.1365 -0.2380
  685loPI    C1 9597   5.175   7.284   5.109  0.1622 -0.0568  0.0328
  685loPI    C2 9598   5.545   7.224   4.969  0.1008 -0.2502 -0.0510
  685loPI    C3 9599   5.243   7.288   4.714  0.1039  0.0797  0.0238
  685loPI   PO4 9600   5.206   7.177   5.415  0.0437  0.0900  0.2919
  685loPI   GL1 9601   5.334   7.159   5.837  0.3996  0.1041 -0.0593
  685loPI   GL2 9602   5.613   7.132   5.957  0.1538 -0.0494  0.0660
  685loPI   C1A 9603   5.105   7.259   6.179  0.1232 -0.3883  0.0079
  685loPI   C2A 9604   5.202   7.119   6.577  0.2812 -0.1174 -0.1763
  685loPI   C3A 9605   5.311   7.114   7.034  0.1666  0.1201  0.3690
  685loPI   C4A 9606   5.628   7.202   7.379  0.1538  0.2036  0.2621
  685loPI   C5A 9607   5.893   7.311   7.766 -0.1283  0.0310  0.2456
  685loPI   C6A 9608   6.386   7.445   7.761  0.0186 -0.2267 -0.2866
  685loPI   C1B 9609   5.427   6.858   6.227  0.0783 -0.0582  0.0182
  685loPI   C2B 9610   5.480   6.729   6.717  0.0720 -0.0050 -0.0619
  685loPI   C3B 9611   5.160   6.627   7.089 -0.1168  0.3258 -0.0354
  685loPI   C4B 9612   4.965   6.665   7.479 -0.0299 -0.1126 -0.1304
  686loPI    C1 9613  11.685  12.439   5.859 -0.0976 -0.0674  0.1115
  686loPI    C2 9614  11.665  12.411   5.460 -0.0953 -0.0890  0.1129
  686loPI    C3 9615  11.680  12.771   5.635  0.1041 -0.0815  0.0832
  686loPI   PO4 9616  11.473  12.270   5.984  0.0718 -0.4178 -0.0814
  686loPI   GL1 9617  11.196  12.376   6.253 -0.3596  0.3635 -0.5146
  686loPI   GL2 9618  10.900  12.304   6.402 -0.1801  0.0542  0.0128
  686loPI   C1A 9619  11.249  12.389   6.732  0.1427  0.2493  0.0179
  686loPI   C2A 9620  11.475  12.442   7.193 -0.0849 -0.2705 -0.1679
  686loPI   C3A 9621  11.325  12.297   7.596 -0.1064  0.0801  0.1877
  686loPI   C4A 9622  11.451  12.070   7.942  0.2848  0.3022 -0.1715
  686loPI   C5A 9623  11.535  11.864   8.365 -0.2094  0.0745  0.4348
  686loPI   C6A 9624  11.654  11.817   8.802  0.1610 -0.0324  0.1419
  686loPI   C1B 9625  10.913  12.742   6.502 -0.1401 -0.1201  0.0716
  686loPI   C2B 9626  11.284  12.857   6.731 -0.1474 -0.1744  0.1633
  686loPI   C3B 9627  11.647  12.874   6.922 -0.0781  0.0240 -0.2236
  686loPI   C4B 9628  12.049  13.060   6.868  0.1697  0.0823  0.0044
  687loPI    C1 9629  16.693   4.925   5.968 -0.0006  0.0051 -0.0478
  687loPI    C2 9630  16.560   4.683   5.678 -0.0347 -0.0651  0.0260
  687loPI    C3 9631  16.632   5.069   5.600 -0.2085 -0.0438 -0.0337
  687loPI   PO4 9632  16.565   4.819   6.159  0.3137  0.0944  0.2002
  687loPI   GL1 9633  16.568   4.855   6.529  0.2037 -0.1997  0.1558
  687loPI   GL2 9634  16.872   4.666   6.576  0.1715  0.2384 -0.0744
  687loPI   C1A 9635  16.488   5.095   6.826 -0.1076  0.0518 -0.0744
  687loPI   C2A 9636  16.463   5.003   7.267 -0.3521  0.1362 -0.3735
  687loPI   C3A 9637  16.529   4.886   7.715  0.1217 -0.1255 -0.4328
  687loPI   C4A 9638  16.188   4.750   7.888  0.1011 -0.2397 -0.2616
  687loPI   C5A 9639  15.994   4.774   8.312 -0.0875 -0.1998  0.0897
  687loPI   C6A 9640  15.762   4.649   8.714 -0.3791 -0.1250 -0.0419
  687loPI   C1B 9641  16.737   4.678   7.003 -0.0157  0.1707 -0.1001
  687loPI   C2B 9642  16.781   4.463   7.340 -0.0639  0.0364 -0.1073
  687loPI   C3B 9643  16.861   4.496   7.818  0.0430  0.1477 -0.0198
  687loPI   C4B 9644  16.622   4.627   8.138  0.1484 -0.1917  0.0769
  688loPI    C1 9645  17.650  14.318   5.511 -0.0157 -0.0171  0.1504
  688loPI    C2 9646  17.683  14.003   5.267  0.0493 -0.0342  0.1807
  688loPI    C3 9647  17.332  14.192   5.304  0.0811  0.0772 -0.0599
  688loPI   PO4 9648  17.852  14.219   5.692  0.2384  0.1622  0.0859
  688loPI   GL1 9649  17.990  14.216   6.034 -0.1666  0.2306  0.3338
  688loPI   GL2 9650  18.009  14.404   6.254  0.1397 -0.0059 -0.2297
  688loPI   C1A 9651  17.792  13.943   6.279  0.1302  0.1432 -0.3854
  688loPI   C2A 9652  17.870  13.958   6.735 -0.0873  0.1438  0.1669
  688loPI   C3A 9653  17.822  13.999   7.331  0.1776 -0.1985  0.1223
  688loPI   C4A 9654  17.932  13.801   7.632 -0.0188  0.1801  0.1156
  688loPI   C5A 9655  18.057  13.642   8.072  0.3618 -0.1048 -0.0566
  688loPI   C6A 9656  18.380  13.577   8.442 -0.3021 -0.1974 -0.0851
  688loPI   C1B 9657  18.054  14.439   6.687 -0.3509  0.1976  0.2740
  688loPI   C2B 9658  18.082  14.357   7.105  0.0739  0.1285  0.1299
  688loPI   C3B 9659  18.208  14.397   7.598  0.0665  0.0432 -0.2058
  688loPI   C4B 9660  18.234  14.566   8.024  0.1191 -0.0949 -0.1958
  689loPI    C1 9661   3.915  17.306   5.296 -0.0736 -0.2580 -0.0786
  689loPI    C2 9662   4.052  17.071   5.003 -0.1183  0.2083 -0.4873
  689loPI    C3 9663   4.220  17.428   5.068  0.1497 -0.0431  0.3227
  689loPI   PO4 9664   3.854  17.139   5.467 -0.1891  0.2319 -0.0143
  689loPI   GL1 9665   3.718  16.973   5.888  0.1928 -0.0200 -0.1949
  689loPI   GL2 9666   3.897  16.757   6.054 -0.1290  0.0434  0.0664
  689loPI   C1A 9667   3.706  17.211   6.233  0.3272 -0.0765  0.0177
  689loPI   C2A 9668   3.579  17.173   6.676  0.1059  0.3703 -0.0036
  689loPI   C3A 9669   3.726  17.170   7.101  0.0446  0.1770 -0.1681
  689loPI   C4A 9670   3.907  17.485   7.425 -0.1378 -0.0883  0.1088
  689loPI   C5A 9671   4.295  17.325   7.686 -0.0930  0.1810 -0.1412
  689loPI   C6A 9672   4.690  17.280   7.903 -0.0572  0.0739  0.2428
  689loPI   C1B 9673   3.795  16.804   6.428  0.2455  0.2028 -0.0891
  689loPI   C2B 9674   3.945  16.803   6.789  0.2000  0.1337  0.0813
  689loPI   C3B 9675   3.980  16.720   7.142 -0.0025 -0.2275 -0.0612
  689loPI   C4B 9676   4.015  16.998   7.450  0.0978 -0.0187 -0.1699
  690loPI    C1 9677  10.733  10.214   5.653 -0.0463  0.0585 -0.0582
  690loPI    C2 9678  10.949  10.459   5.422 -0.0396  0.1420  0.0360
  690loPI    C3 9679  10.561  10.399   5.343 -0.0515  0.2162  0.0382
  690loPI   PO4 9680  10.797  10.290   5.903  0.3159 -0.0842 -0.1846
  690loPI   GL1 9681  10.673  10.478   6.205  0.1690 -0.0519  0.1058
  690loPI   GL2 9682  10.479  10.667   6.237  0.0168  0.2064 -0.1270
  690loPI   C1A 9683  10.951  10.416   6.604 -0.1577 -0.1992  0.1247
  690loPI   C2A 9684  10.955  10.362   7.107  0.2223 -0.1617  0.0238
  690loPI   C3A 9685  11.177  10.247   7.466 -0.0370  0.0385 -0.0055
  690loPI   C4A 9686  11.168  10.284   7.847 -0.0055 -0.2378  0.3306
  690loPI   C5A 9687  11.380   9.983   8.046 -0.2626  0.2813 -0.2730
  690loPI   C6A 9688  11.503   9.611   8.231  0.1484 -0.2240 -0.1435
  690loPI   C1B 9689  10.440  10.577   6.693  0.0524 -0.2243 -0.0684
  690loPI   C2B 9690  10.386  10.577   7.089 -0.4008 -0.1743  0.3893
  690loPI   C3B 9691  10.385  10.697   7.483 -0.0137  0.1571  0.1396
  690loPI   C4B 9692  10.501  10.940   7.797 -0.1649 -0.2545  0.3504
  691loPI    C1 9693  13.096   0.921   5.245 -0.1901  0.0654 -0.0483
  691loPI    C2 9694  13.199   0.619   5.487 -0.3025  0.0445 -0.0259
  691loPI    C3 9695  13.398   0.678   5.145 -0.2164  0.0053  0.0171
  691loPI   PO4 9696  13.083   1.201   5.463 -0.0421  0.0316  0.3068
  691loPI   GL1 9697  13.018   0.991   5.813  0.0498  0.3512  0.4177
  691loPI   GL2 9698  12.774   1.128   5.902 -0.1375  0.0814 -0.0469
  691loPI   C1A 9699  13.167   1.024   6.223  0.2591  0.2434  0.1625
  691loPI   C2A 9700  13.162   0.996   6.700  0.4500  0.0542  0.4075
  691loPI   C3A 9701  13.144   0.989   7.160  0.2852  0.2030  0.1218
  691loPI   C4A 9702  13.195   1.105   7.515  0.0468 -0.3250  0.1323
  691loPI   C5A 9703  13.328   1.058   7.939 -0.0676  0.0698  0.1077
  691loPI   C6A 9704  13.655   0.926   8.147  0.1044  0.0342 -0.2986
  691loPI   C1B 9705  12.639   1.073   6.396 -0.2418 -0.1481 -0.1063
  691loPI   C2B 9706  12.655   1.158   6.889 -0.1720  0.3250 -0.0078
  691loPI   C3B 9707  12.682   1.229   7.262  0.0889 -0.1497 -0.1879
  691loPI   C4B 9708  12.695   1.157   7.779 -0.1292 -0.0570  0.3323
  692loPI    C1 9709  17.369   4.335   5.658 -0.0436  0.0940  0.1539
  692loPI    C2 9710  17.070   4.590   5.583  0.0606  0.1144 -0.2090
  692loPI    C3 9711  17.117   4.264   5.355  0.0394 -0.1359  0.1367
  692loPI   PO4 9712  17.318   4.187   5.858 -0.1566 -0.2170 -0.0326
  692loPI   GL1 9713  17.345   4.067   6.206 -0.0855 -0.1771  0.0049
  692loPI   GL2 9714  17.514   4.238   6.348 -0.0295  0.2186  0.0107
  692loPI   C1A 9715  17.010   4.160   6.549  0.1788 -0.2174 -0.2914
  692loPI   C2A 9716  17.039   4.260   7.017 -0.0092 -0.2129  0.2624
  692loPI   C3A 9717  17.154   4.198   7.400 -0.4536 -0.0759  0.2148
  692loPI   C4A 9718  17.245   3.992   7.800  0.1112 -0.0677  0.0913
  692loPI   C5A 9719  17.543   4.044   8.140  0.3136  0.0138 -0.3365
  692loPI   C6A 9720  17.675   4.435   8.257 -0.3805  0.0301 -0.1015
  692loPI   C1B 9721  17.530   4.274   6.804  0.2515 -0.1355  0.0445
  692loPI   C2B 9722  17.691   4.230   7.138 -0.2051  0.0760 -0.0656
  692loPI   C3B 9723  17.771   4.164   7.591 -0.0045 -0.2669  0.1340
  692loPI   C4B 9724  17.961   4.166   7.906  0.4480  0.0558  0.4032
  693loPI    C1 9725   3.694  12.079   5.322  0.1559  0.0582 -0.1141
  693loPI    C2 9726   3.491  12.424   5.338  0.0107 -0.0364  0.1436
  693loPI    C3 9727   3.351  12.119   5.120  0.0121 -0.0141  0.1115
  693loPI   PO4 9728   3.703  12.038   5.515 -0.1744 -0.1946 -0.0723
  693loPI   GL1 9729   3.685  12.301   5.800  0.0345  0.2239  0.0368
  693loPI   GL2 9730   3.550  12.083   5.983 -0.3169  0.2959  0.0913
  693loPI   C1A 9731   3.520  12.452   6.239  0.0820 -0.4489 -0.0812
  693loPI   C2A 9732   3.245  12.695   6.353 -0.1807  0.2686  0.0170
  693loPI   C3A 9733   2.908  12.631   6.611 -0.2645 -0.0579  0.1145
  693loPI   C4A 9734   2.797  12.596   6.959 -0.4365  0.4655 -0.1684
  693loPI   C5A 9735   3.001  12.544   7.281  0.2732  0.0445 -0.1001
  693loPI   C6A 9736   2.623  12.682   7.613  0.1235 -0.1585  0.0580
  693loPI   C1B 9737   3.703  12.018   6.294  0.1470  0.3139 -0.0590
  693loPI   C2B 9738   3.818  11.758   6.768  0.4175 -0.0590  0.1763
  693loPI   C3B 9739   3.781  12.085   7.133 -0.0011 -0.1278 -0.0781
  693loPI   C4B 9740   3.500  12.406   7.277 -0.2084  0.2189  0.0319
  694loPI    C1 9741  11.694  11.279   5.945 -0.1636 -0.1520  0.1294
  694loPI    C2 9742  11.583  11.605   5.742 -0.2100 -0.1708  0.1243
  694loPI    C3 9743  11.504  11.242   5.595 -0.0141 -0.1849  0.0508
  694loPI   PO4 9744  11.904  11.316   6.050 -0.2359 -0.0383 -0.4580
  694loPI   GL1 9745  12.186  11.076   6.403 -0.1881  0.1679  0.2883
  694loPI   GL2 9746  11.966  11.019   6.482  0.1019 -0.0372  0.0078
  694loPI   C1A 9747  12.096  11.311   6.849  0.0088  0.1768 -0.3034
  694loPI   C2A 9748  12.041  11.718   7.076  0.0976  0.0646 -0.0707
  694loPI   C3A 9749  12.298  11.837   7.448  0.3266 -0.0870  0.1069
  694loPI   C4A 9750  12.311  12.001   7.873  0.0755 -0.1539  0.0969
  694loPI   C5A 9751  12.465  11.814   8.194  0.1294 -0.0331  0.3116
  694loPI   C6A 9752  12.578  11.877   8.626  0.4425  0.4267 -0.0030
  694loPI   C1B 9753  12.068  10.815   6.929  0.1237 -0.2637 -0.3390
  694loPI   C2B 9754  11.911  10.805   7.321  0.1668  0.0701 -0.0249
  694loPI   C3B 9755  11.920  10.918   7.747 -0.2193  0.3411 -0.0063
  694loPI   C4B 9756  11.963  11.093   8.193 -0.1230  0.0838 -0.0348
  695loPI    C1 9757  10.295  10.415   5.733  0.2440 -0.0264  0.2255
  695loPI    C2 9758   9.932  10.536   5.849  0.1534  0.0895 -0.1628
  695loPI    C3 9759  10.186  10.796   5.683  0.2332 -0.0947 -0.3336
  695loPI   PO4 9760  10.280  10.239   6.039  0.1278 -0.0106  0.1357
  695loPI   GL1 9761  10.226  10.199   6.412 -0.2473  0.0515 -0.0736
  695loPI   GL2 9762  10.557   9.992   6.380  0.2023  0.0356 -0.0818
  695loPI   C1A 9763  10.047  10.292   6.818  0.3363  0.0688 -0.0675
  695loPI   C2A 9764   9.902  10.273   7.294  0.2662  0.2736 -0.2706
  695loPI   C3A 9765   9.736  10.130   7.607  0.2447  0.6082  0.1029
  695loPI   C4A 9766   9.503  10.126   7.957 -0.0425  0.0012  0.0297
  695loPI   C5A 9767   9.157  10.003   8.119 -0.0733 -0.0431 -0.1943
  695loPI   C6A 9768   9.103   9.577   8.199  0.1732  0.1180  0.2750
  695loPI   C1B 9769  10.563  10.075   6.822  0.1961 -0.1041  0.2134
  695loPI   C2B 9770  10.386  10.103   7.196  0.1167 -0.0990  0.0168
  695loPI   C3B 9771  10.627  10.189   7.531  0.0253 -0.2315  0.1816
  695loPI   C4B 9772  10.819  10.563   7.698 -0.0721  0.0343  0.1917
  696loPI    C1 9773   4.051  15.330   5.419  0.2123 -0.0296  0.0494
  696loPI    C2 9774   3.665  15.415   5.481  0.1723 -0.0692 -0.1397
  696loPI    C3 9775   3.818  15.071   5.617  0.2156  0.0790  0.1972
  696loPI   PO4 9776   4.211  15.565   5.498 -0.1016  0.0344  0.0846
  696loPI   GL1 9777   4.076  15.714   5.831 -0.1026  0.3083 -0.2392
  696loPI   GL2 9778   4.118  15.505   6.138  0.0671 -0.1425  0.1687
  696loPI   C1A 9779   3.810  15.829   6.261  0.1397 -0.4723 -0.1089
  696loPI   C2A 9780   3.914  15.778   6.689 -0.0997 -0.1331 -0.3225
  696loPI   C3A 9781   4.005  15.977   7.078 -0.2577  0.0219 -0.3229
  696loPI   C4A 9782   3.997  16.087   7.500 -0.1174 -0.1285 -0.1076
  696loPI   C5A 9783   3.690  16.113   7.766 -0.1680  0.2983 -0.0473
  696loPI   C6A 9784   3.368  15.754   7.908  0.0237 -0.0989 -0.1972
  696loPI   C1B 9785   4.207  15.400   6.538 -0.0800 -0.1298 -0.1331
  696loPI   C2B 9786   4.275  15.218   6.896 -0.0828 -0.1659  0.2282
  696loPI   C3B 9787   4.307  14.843   7.213  0.1244  0.0343 -0.0995
  696loPI   C4B 9788   4.587  14.730   7.591 -0.3558  0.3772  0.0332
  697loPI    C1 9789   2.034   7.325   5.535 -0.0063  0.0375 -0.0314
  697loPI    C2 9790   2.117   6.941   5.463 -0.0269 -0.0307  0.2946
  697loPI    C3 9791   1.825   7.123   5.260  0.0234 -0.1681  0.0952
  697loPI   PO4 9792   2.075   7.337   5.798  0.2704  0.0184  0.3321
  697loPI   GL1 9793   2.041   7.096   6.182 -0.0403 -0.4150  0.1101
  697loPI   GL2 9794   2.211   7.431   6.261 -0.1161  0.4034 -0.0366
  697loPI   C1A 9795   2.414   6.876   6.529 -0.1134  0.0242 -0.0491
  697loPI   C2A 9796   2.527   6.719   6.903  0.1310  0.2845  0.0829
  697loPI   C3A 9797   2.401   6.641   7.290 -0.0921  0.0589  0.1531
  697loPI   C4A 9798   2.299   6.517   7.723  0.1059  0.1354 -0.0260
  697loPI   C5A 9799   2.162   6.700   8.087  0.5437  0.3452  0.2973
  697loPI   C6A 9800   1.635   6.681   8.252 -0.0738 -0.3946 -0.1677
  697loPI   C1B 9801   2.243   7.404   6.697 -0.0778  0.2538  0.1224
  697loPI   C2B 9802   2.068   7.626   7.043 -0.0532 -0.2654 -0.2550
  697loPI   C3B 9803   1.624   7.739   7.007 -0.0357 -0.1617  0.2154
  697loPI   C4B 9804   1.602   8.083   6.716  0.1263 -0.1224 -0.3359
  698loPI    C1 9805  11.864   8.035   5.730 -0.0101  0.1418 -0.1300
  698loPI    C2 9806  11.674   8.164   5.403  0.2197  0.1494 -0.2620
  698loPI    C3 9807  11.950   8.395   5.578 -0.1073  0.2681  0.1090
  698loPI   PO4 9808  11.697   7.997   5.910  0.2351  0.1971  0.1493
  698loPI   GL1 9809  11.539   7.768   6.182  0.0775  0.1641  0.2419
  698loPI   GL2 9810  11.277   8.047   6.175  0.2224 -0.0414  0.1037
  698loPI   C1A 9811  11.690   7.599   6.542  0.1533  0.1746  0.1933
  698loPI   C2A 9812  11.557   7.669   6.894  0.0450  0.2081  0.3595
  698loPI   C3A 9813  11.566   7.898   7.342  0.4025  0.1795 -0.0209
  698loPI   C4A 9814  11.320   7.983   7.725 -0.2596  0.3401  0.0132
  698loPI   C5A 9815  11.345   8.236   8.035 -0.1869  0.2502  0.2247
  698loPI   C6A 9816  11.256   8.306   8.429  0.1663  0.2525 -0.0322
  698loPI   C1B 9817  11.252   8.340   6.591 -0.1998 -0.0820  0.1690
  698loPI   C2B 9818  11.257   8.586   6.952  0.1276  0.0078  0.1186
  698loPI   C3B 9819  10.934   8.889   7.107  0.0245 -0.1017  0.2091
  698loPI   C4B 9820  10.825   9.205   7.301  0.0456 -0.1637 -0.0085
  699loPI    C1 9821  12.054   1.678   5.197  0.2441 -0.1823 -0.1291
  699loPI    C2 9822  12.055   2.012   4.975 -0.3964 -0.0457  0.0506
  699loPI    C3 9823  12.058   1.653   4.798  0.1080  0.0476 -0.1469
  699loPI   PO4 9824  12.208   1.757   5.438 -0.1779  0.0667  0.3035
  699loPI   GL1 9825  12.092   1.877   5.836  0.2440 -0.0565 -0.2294
  699loPI   GL2 9826  12.429   1.880   5.883 -0.0309  0.0887 -0.1330
  699loPI   C1A 9827  12.087   1.790   6.301  0.1247  0.1058 -0.0530
  699loPI   C2A 9828  12.131   1.864   6.664  0.0460  0.0525  0.1024
  699loPI   C3A 9829  12.134   1.841   7.085  0.0769  0.3155  0.0058
  699loPI   C4A 9830  11.978   1.871   7.532  0.0417  0.2180 -0.3695
  699loPI   C5A 9831  12.048   2.189   7.874  0.2059  0.0790 -0.0849
  699loPI   C6A 9832  11.936   2.668   7.986 -0.3186  0.3492  0.0903
  699loPI   C1B 9833  12.573   1.963   6.273 -0.1532  0.1714 -0.2360
  699loPI   C2B 9834  12.663   2.102   6.662  0.0292  0.0472 -0.2656
  699loPI   C3B 9835  12.633   2.223   7.088  0.0462 -0.1289  0.1910
  699loPI   C4B 9836  12.318   2.165   7.373  0.0156  0.2418 -0.4578
  700loPI    C1 9837   5.709   5.636   5.492 -0.1937  0.1235  0.1493
  700loPI    C2 9838   5.732   5.294   5.287 -0.0415  0.1565  0.1105
  700loPI    C3 9839   5.376   5.435   5.400 -0.1117  0.0356  0.0422
  700loPI   PO4 9840   5.911   5.559   5.683 -0.0681 -0.0976  0.0222
  700loPI   GL1 9841   5.648   5.560   6.032 -0.1482 -0.3382  0.2689
  700loPI   GL2 9842   5.432   5.775   5.906 -0.0844 -0.5271 -0.2961
  700loPI   C1A 9843   5.734   5.360   6.497 -0.0374 -0.0182 -0.3541
  700loPI   C2A 9844   5.737   5.437   6.944 -0.0462 -0.0908 -0.0682
  700loPI   C3A 9845   5.500   5.360   7.361  0.1722  0.3359  0.1981
  700loPI   C4A 9846   5.561   4.967   7.664 -0.0738 -0.0833  0.2600
  700loPI   C5A 9847   5.379   4.676   8.115  0.0569 -0.3638 -0.1621
  700loPI   C6A 9848   5.456   4.280   8.312  0.1471  0.0396  0.0165
  700loPI   C1B 9849   5.293   5.782   6.311 -0.2255 -0.2742 -0.0526
  700loPI   C2B 9850   5.476   5.769   6.700  0.0731 -0.0458  0.1229
  700loPI   C3B 9851   5.307   5.724   7.044 -0.1769 -0.1673 -0.1949
  700loPI   C4B 9852   5.134   5.675   7.420 -0.1390 -0.0370 -0.2985
  701loPI    C1 9853   9.364  12.852   5.320  0.3142 -0.0416  0.1793
  701loPI    C2 9854   9.438  13.245   5.338 -0.2456  0.0703  0.2438
  701loPI    C3 9855   9.149  13.107   5.099  0.1247 -0.3375  0.0159
  701loPI   PO4 9856   9.480  12.818   5.543  0.0844 -0.0579 -0.0857
  701loPI   GL1 9857   9.692  12.808   5.929  0.0351  0.1120 -0.0596
  701loPI   GL2 9858   9.900  12.556   5.875  0.0356  0.0430  0.0788
  701loPI   C1A 9859   9.530  12.839   6.333 -0.2559  0.1023 -0.0496
  701loPI   C2A 9860   9.497  12.750   6.786 -0.0767 -0.1859  0.1897
  701loPI   C3A 9861   9.281  12.785   7.205  0.3172 -0.1138  0.1605
  701loPI   C4A 9862   8.937  12.740   7.534  0.3640  0.1376 -0.0268
  701loPI   C5A 9863   8.821  12.830   7.936  0.2377  0.0873 -0.2073
  701loPI   C6A 9864   8.691  13.175   8.168 -0.1239 -0.2153  0.2017
  701loPI   C1B 9865   9.864  12.407   6.348  0.0208 -0.1074  0.1007
  701loPI   C2B 9866   9.934  12.417   6.768  0.2181  0.3467  0.0152
  701loPI   C3B 9867  10.011  12.199   7.161 -0.1099  0.3301  0.3700
  701loPI   C4B 9868   9.894  12.149   7.477  0.2297 -0.0778 -0.3048
  702loPI    C1 9869   2.796  12.179   5.444  0.0569 -0.0083 -0.2787
  702loPI    C2 9870   2.484  12.393   5.316  0.2158  0.0870 -0.5136
  702loPI    C3 9871   2.429  12.021   5.452 -0.0668  0.2806 -0.0764
  702loPI   PO4 9872   2.972  12.393   5.439  0.0569 -0.1264 -0.1604
  702loPI   GL1 9873   3.177  12.461   5.877  0.0856  0.1937 -0.1057
  702loPI   GL2 9874   3.404  12.704   5.856  0.3409 -0.0149 -0.0427
  702loPI   C1A 9875   3.070  12.205   6.221 -0.0180  0.3752  0.2195
  702loPI   C2A 9876   2.920  12.054   6.597  0.1731  0.1867  0.4597
  702loPI   C3A 9877   2.774  12.054   7.045  0.1408 -0.1802  0.1702
  702loPI   C4A 9878   2.975  12.047   7.416 -0.0689 -0.1361 -0.2793
  702loPI   C5A 9879   3.380  11.799   7.431 -0.4242  0.1809  0.0618
  702loPI   C6A 9880   3.557  11.464   7.298 -0.0624  0.0014 -0.1435
  702loPI   C1B 9881   3.712  12.881   6.226 -0.1036  0.2232 -0.0694
  702loPI   C2B 9882   3.845  12.948   6.537 -0.2025 -0.2249 -0.2667
  702loPI   C3B 9883   3.823  13.088   6.946 -0.2322  0.0624  0.1047
  702loPI   C4B 9884   3.898  13.035   7.288  0.5660  0.1228 -0.0434
  703loPI    C1 9885   9.383  11.840   5.479  0.2254 -0.1434  0.0866
  703loPI    C2 9886   9.178  11.536   5.319  0.0036  0.0442  0.0098
  703loPI    C3 9887   9.385  11.784   5.083 -0.2652  0.2782  0.0141
  703loPI   PO4 9888   9.186  11.903   5.695 -0.6297 -0.4074  0.0100
  703loPI   GL1 9889   9.217  11.806   6.191 -0.1104 -0.4078  0.2483
  703loPI   GL2 9890   9.022  11.421   6.238  0.0849  0.3035  0.1121
  703loPI   C1A 9891   9.063  11.931   6.595 -0.0708  0.2706 -0.0509
  703loPI   C2A 9892   9.039  11.810   7.025 -0.3859  0.1359  0.0390
  703loPI   C3A 9893   9.341  11.849   7.362 -0.3228 -0.2258  0.0531
  703loPI   C4A 9894   9.474  11.889   7.759  0.1972 -0.0066  0.1205
  703loPI   C5A 9895   9.663  12.164   8.013  0.0527  0.1967  0.1507
  703loPI   C6A 9896   9.648  12.579   7.976 -0.5884 -0.1691  0.0292
  703loPI   C1B 9897   9.137  11.463   6.697 -0.0407 -0.1255 -0.0553
  703loPI   C2B 9898   9.114  11.339   7.111  0.0899  0.0485 -0.1119
  703loPI   C3B 9899   9.147  11.369   7.455  0.0069  0.1578  0.0151
  703loPI   C4B 9900   9.274  11.161   7.738  0.0452  0.0561 -0.1138
  704loPI    C1 9901  10.469   8.960   5.805  0.1569  0.0336 -0.0040
  704loPI    C2 9902  10.576   8.698   6.087 -0.0983 -0.1024 -0.0312
  704loPI    C3 9903  10.776   8.711   5.741 -0.0790 -0.2564 -0.0266
  704loPI   PO4 9904  10.448   9.192   6.020  0.0771 -0.0220 -0.3002
  704loPI   GL1 9905  10.483   9.063   6.454 -0.1896  0.5201  0.0336
  704loPI   GL2 9906  10.188   9.139   6.451  0.3285  0.0484  0.1710
  704loPI   C1A 9907  10.553   8.949   6.845 -0.0921 -0.0553 -0.1740
  704loPI   C2A 9908  10.457   8.872   7.262 -0.1765  0.2298 -0.1863
  704loPI   C3A 9909  10.319   8.741   7.663 -0.0784  0.0063  0.0520
  704loPI   C4A 9910  10.114   8.792   7.977  0.2769  0.0592 -0.0152
  704loPI   C5A 9911   9.701   8.608   8.234 -0.1207  0.0853  0.1514
  704loPI   C6A 9912   9.507   8.388   8.463 -0.5081 -0.0235  0.1357
  704loPI   C1B 9913  10.040   9.113   6.772 -0.1003  0.1889  0.0114
  704loPI   C2B 9914  10.032   9.178   7.162 -0.1161 -0.1403  0.0470
  704loPI   C3B 9915  10.172   9.242   7.542  0.0662  0.0980 -0.0671
  704loPI   C4B 9916  10.146   9.290   7.916  0.1151  0.0153 -0.2585
  705loPI    C1 9917   1.746   7.977   5.723  0.0755 -0.0718  0.0574
  705loPI    C2 9918   2.014   7.838   5.985  0.1666  0.0897  0.0514
  705loPI    C3 9919   2.096   7.832   5.594  0.1554  0.1268  0.0485
  705loPI   PO4 9920   1.427   7.892   5.786  0.2190 -0.0284  0.2713
  705loPI   GL1 9921   1.206   7.803   6.224 -0.0376  0.1180 -0.1260
  705loPI   GL2 9922   1.115   7.974   6.463  0.2198  0.1726  0.2064
  705loPI   C1A 9923   1.647   7.715   6.429 -0.0007 -0.0787  0.3331
  705loPI   C2A 9924   2.021   7.855   6.513 -0.1035  0.2858  0.3710
  705loPI   C3A 9925   2.460   7.828   6.554  0.1235  0.1332 -0.1546
  705loPI   C4A 9926   2.510   8.091   6.911  0.2674  0.0679  0.3729
  705loPI   C5A 9927   2.290   8.043   7.263 -0.0338 -0.0402  0.3246
  705loPI   C6A 9928   2.304   8.025   7.606  0.0523 -0.0558 -0.0684
  705loPI   C1B 9929   1.106   7.735   6.829 -0.0525  0.0326 -0.0329
  705loPI   C2B 9930   0.903   7.645   7.189 -0.1226 -0.1450  0.4323
  705loPI   C3B 9931   0.887   7.367   7.457  0.1484  0.2451 -0.2195
  705loPI   C4B 9932   1.048   7.374   7.847 -0.2441 -0.0091 -0.1138
  706loPI    C1 9933   0.040   9.373   5.842 -0.0827  0.2715  0.1605
  706loPI    C2 9934   0.370   9.588   5.774  0.0917 -0.0713 -0.1068
  706loPI    C3 9935   0.262   9.301   5.517 -0.1477 -0.2908  0.2303
  706loPI   PO4 9936   0.006   9.410   6.079 -0.0908 -0.0189  0.2394
  706loPI   GL1 9937  -0.241   9.172   6.393 -0.0671  0.1820  0.0897
  706loPI   GL2 9938   0.005   8.966   6.238 -0.1588 -0.1987  0.1644
  706loPI   C1A 9939  -0.266   9.109   6.801 -0.1933  0.2849  0.2242
  706loPI   C2A 9940  -0.028   8.840   7.126  0.0766 -0.1079  0.0290
  706loPI   C3A 9941   0.403   8.803   7.351  0.1604  0.1155 -0.0593
  706loPI   C4A 9942   0.679   8.630   7.550  0.1906 -0.0039  0.1217
  706loPI   C5A 9943   1.045   8.334   7.575  0.1687  0.0024  0.0118
  706loPI   C6A 9944   0.853   7.866   7.681 -0.1650 -0.2143 -0.2079
  706loPI   C1B 9945   0.262   9.077   6.656 -0.0083  0.1490 -0.1242
  706loPI   C2B 9946   0.254   9.249   7.159 -0.0389  0.2197  0.0935
  706loPI   C3B 9947   0.164   9.167   7.637  0.2163  0.1000 -0.0112
  706loPI   C4B 9948   0.235   9.299   8.056 -0.2845 -0.0093  0.2795
  707loPI    C1 9949   1.177   9.898   5.954 -0.0784 -0.0329 -0.1959
  707loPI    C2 9950   1.236  10.049   5.589 -0.3545  0.1241 -0.1781
  707loPI    C3 9951   1.204   9.654   5.638  0.1257  0.0687 -0.2591
  707loPI   PO4 9952   1.370  10.056   6.118 -0.0875  0.0091  0.3513
  707loPI   GL1 9953   1.411  10.089   6.469  0.2856  0.0074 -0.1585
  707loPI   GL2 9954   1.748  10.228   6.607 -0.0980 -0.0722  0.1897
  707loPI   C1A 9955   1.298   9.998   6.812 -0.0099 -0.1309  0.4138
  707loPI   C2A 9956   1.386  10.213   7.174 -0.0577 -0.3417  0.0094
  707loPI   C3A 9957   1.356  10.390   7.607  0.0948 -0.0788  0.0496
  707loPI   C4A 9958   1.186  10.464   7.974  0.0831 -0.3438  0.0080
  707loPI   C5A 9959   0.956  10.530   8.384  0.0677 -0.0533  0.1089
  707loPI   C6A 9960   1.057  10.858   8.666  0.0694  0.2058 -0.1500
  707loPI   C1B 9961   2.034  10.015   6.948 -0.1394  0.1399  0.1310
  707loPI   C2B 9962   1.877  10.125   7.336 -0.0152  0.1490  0.1807
  707loPI   C3B 9963   1.599   9.946   7.611 -0.0973  0.0393 -0.1286
  707loPI   C4B 9964   1.513   9.673   7.800  0.0082  0.2552 -0.0795
  708loPI    C1 9965   6.423  14.795   5.648 -0.2159 -0.0531 -0.0208
  708loPI    C2 9966   6.107  14.555   5.595 -0.2194 -0.0445 -0.0388
  708loPI    C3 9967   6.456  14.403   5.716 -0.2077 -0.0662 -0.0995
  708loPI   PO4 9968   6.413  14.964   5.755  0.1084 -0.1006  0.1202
  708loPI   GL1 9969   6.687  15.148   5.993 -0.3343  0.3930  0.2281
  708loPI   GL2 9970   6.884  14.853   6.067 -0.1107  0.0702  0.1116
  708loPI   C1A 9971   6.655  15.134   6.453  0.0701 -0.0702  0.1010
  708loPI   C2A 9972   6.558  15.067   6.857 -0.2907 -0.0720 -0.3453
  708loPI   C3A 9973   6.554  15.112   7.284 -0.0100 -0.0657  0.1939
  708loPI   C4A 9974   6.460  15.143   7.708  0.0428  0.1136 -0.2073
  708loPI   C5A 9975   6.597  14.811   8.080 -0.4449 -0.0393 -0.0563
  708loPI   C6A 9976   6.797  14.564   8.403 -0.0580 -0.0756 -0.2807
  708loPI   C1B 9977   6.786  14.605   6.491  0.2790 -0.1092 -0.0568
  708loPI   C2B 9978   6.667  14.508   6.877  0.0704 -0.0414 -0.2170
  708loPI   C3B 9979   6.693  14.588   7.351 -0.1752 -0.1648  0.1640
  708loPI   C4B 9980   6.374  14.663   7.600 -0.1817  0.1614 -0.0149
  709loPI    C1 9981  15.680   6.638   5.684 -0.0795  0.1259 -0.0216
  709loPI    C2 9982  15.503   6.369   5.446  0.0597 -0.1152  0.1432
  709loPI    C3 9983  15.391   6.753   5.431 -0.3330 -0.2269  0.0990
  709loPI   PO4 9984  15.713   6.553   5.952  0.1934 -0.1591  0.4321
  709loPI   GL1 9985  15.571   6.727   6.404  0.0612  0.3550  0.0944
  709loPI   GL2 9986  15.419   6.414   6.355 -0.0827  0.0802  0.1396
  709loPI   C1A 9987  15.572   6.901   6.770  0.0421 -0.0009  0.0158
  709loPI   C2A 9988  15.588   6.870   7.248  0.1557 -0.1225 -0.1254
  709loPI   C3A 9989  15.579   6.829   7.637  0.1848 -0.0075 -0.2883
  709loPI   C4A 9990  15.691   7.024   8.006 -0.1830 -0.0213 -0.0537
  709loPI   C5A 9991  15.920   7.326   8.190 -0.2709  0.0924  0.1359
  709loPI   C6A 9992  16.364   7.654   8.220  0.1557  0.1514  0.0214
  709loPI   C1B 9993  15.479   6.371   6.706  0.0543  0.1599  0.0073
  709loPI   C2B 9994  15.445   6.364   7.187 -0.0909 -0.0782 -0.2414
  709loPI   C3B 9995  15.301   6.361   7.671 -0.3977 -0.1403  0.2211
  709loPI   C4B 9996  15.188   6.392   8.154  0.2629  0.0688  0.1321
  710loPI    C1 9997  16.117  14.302   5.429 -0.2331 -0.0541 -0.0875
  710loPI    C2 9998  16.028  13.920   5.510  0.0073 -0.0989 -0.0268
  710loPI    C3 9999  16.042  14.047   5.131 -0.1964 -0.1182 -0.0421
  710loPI   PO410000  16.130  14.350   5.701 -0.2388  0.0059 -0.1659
  710loPI   GL110001  16.308  14.473   6.117  0.1447 -0.1589 -0.3532
  710loPI   GL210002  15.884  14.498   6.216  0.0279 -0.0337  0.1252
  710loPI   C1A10003  16.253  14.131   6.441  0.2822  0.3013  0.2669
  710loPI   C2A10004  16.321  14.134   6.862 -0.2333 -0.0304  0.0897
  710loPI   C3A10005  16.302  14.107   7.228 -0.3439 -0.1450  0.4567
  710loPI   C4A10006  16.052  14.218   7.662  0.0933 -0.1611 -0.0569
  710loPI   C5A10007  15.879  14.250   8.087 -0.1923 -0.2440 -0.0291
  710loPI   C6A10008  15.806  14.468   8.497  0.2871  0.0260 -0.1095
  710loPI   C1B10009  15.990  14.581   6.550 -0.2747  0.1202  0.2734
  710loPI   C2B10010  16.042  14.517   6.999 -0.1534  0.0359 -0.3119
  710loPI   C3B10011  16.228  14.649   7.348  0.4011 -0.0349  0.0364
  710loPI   C4B10012  15.990  14.725   7.670 -0.0634  0.3931 -0.1707
  711loPI    C110013   8.391   2.739   5.052 -0.0448 -0.0240  0.1703
  711loPI    C210014   8.576   3.074   5.168  0.2398 -0.1423  0.0678
  711loPI    C310015   8.610   2.948   4.790 -0.3741  0.0409 -0.0601
  711loPI   PO410016   8.320   2.562   5.335  0.2282 -0.5734  0.0457
  711loPI   GL110017   8.212   2.418   5.720  0.2295 -0.0235  0.0495
  711loPI   GL210018   8.116   2.683   5.968 -0.1701 -0.0175 -0.0428
  711loPI   C1A10019   8.473   2.382   6.077 -0.2763  0.3159 -0.0661
  711loPI   C2A10020   8.496   2.287   6.513  0.2794 -0.3698  0.0672
  711loPI   C3A10021   8.639   2.183   6.865  0.1214 -0.1800  0.1280
  711loPI   C4A10022   8.649   1.918   7.184  0.0302 -0.0968 -0.0982
  711loPI   C5A10023   8.772   1.783   7.566  0.0167 -0.0322 -0.1755
  711loPI   C6A10024   8.624   1.479   7.843  0.1431 -0.0801 -0.0181
  711loPI   C1B10025   7.983   2.536   6.418 -0.5719 -0.2163  0.2486
  711loPI   C2B10026   7.853   2.616   6.825 -0.0815 -0.2187  0.0099
  711loPI   C3B10027   7.696   2.522   7.301  0.0335 -0.1463 -0.3784
  711loPI   C4B10028   7.706   2.579   7.783 -0.3458  0.2163  0.1597
  712loPI    C110029  10.137   0.363   5.070 -0.0939 -0.0271 -0.0850
  712loPI    C210030  10.346   0.049   4.937 -0.1424 -0.1791  0.1904
  712loPI    C310031  10.252   0.347   4.687  0.1570 -0.2424 -0.0034
  712loPI   PO410032  10.251   0.462   5.314 -0.0112  0.2081  0.0188
  712loPI   GL110033  10.438   0.542   5.802 -0.1092 -0.3093  0.0360
  712loPI   GL210034  10.598   0.756   5.872 -0.1356  0.0030  0.0364
  712loPI   C1A10035  10.340   0.358   6.207 -0.1137  0.4027 -0.0845
  712loPI   C2A10036  10.399   0.275   6.694  0.2612 -0.1130 -0.1443
  712loPI   C3A10037  10.585  -0.040   6.985  0.0845 -0.2613 -0.0629
  712loPI   C4A10038  10.538  -0.103   7.476 -0.0402  0.0037  0.1202
  712loPI   C5A10039  10.335  -0.014   7.859  0.2355  0.2742 -0.3063
  712loPI   C6A10040  10.231   0.082   8.202  0.2263  0.1103 -0.1178
  712loPI   C1B10041  10.578   0.803   6.287  0.1152 -0.0429  0.3124
  712loPI   C2B10042  10.680   0.687   6.737 -0.0261  0.3826 -0.2064
  712loPI   C3B10043  10.569   0.422   7.173 -0.0037  0.3088  0.4792
  712loPI   C4B10044  10.639   0.419   7.737  0.0754 -0.2422 -0.0784
  713loPI    C110045   6.781   5.728   5.286 -0.0657  0.1708 -0.1504
  713loPI    C210046   6.642   5.443   5.042  0.2223 -0.0101 -0.1075
  713loPI    C310047   6.888   5.347   5.343  0.1940  0.2644  0.0063
  713loPI   PO410048   6.604   5.889   5.387  0.0066  0.0191  0.0829
  713loPI   GL110049   6.652   6.106   5.686 -0.1540  0.2763 -0.0945
  713loPI   GL210050   6.483   6.183   5.890 -0.1059 -0.3126 -0.2745
  713loPI   C1A10051   6.878   6.121   6.130  0.1140  0.0673  0.0365
  713loPI   C2A10052   6.826   5.988   6.545 -0.4096  0.1948 -0.0832
  713loPI   C3A10053   6.790   6.295   6.919  0.1139  0.2158 -0.0328
  713loPI   C4A10054   6.826   6.704   7.045 -0.1281 -0.3920  0.1560
  713loPI   C5A10055   6.552   7.084   7.220  0.2502  0.0261  0.2718
  713loPI   C6A10056   6.295   7.259   6.917 -0.0882 -0.0011  0.0428
  713loPI   C1B10057   6.382   6.115   6.361 -0.0582 -0.2140  0.1133
  713loPI   C2B10058   6.344   6.043   6.790  0.2420  0.0621  0.1946
  713loPI   C3B10059   6.257   6.132   7.254  0.0275  0.2424  0.2661
  713loPI   C4B10060   6.043   6.144   7.741  0.0314  0.1559 -0.1567
  714loPI    C110061  13.311   4.043   5.243 -0.0259 -0.0504  0.0287
  714loPI    C210062  12.971   3.848   5.165 -0.0520 -0.0384  0.1119
  714loPI    C310063  13.095   4.138   4.920 -0.0276 -0.1400  0.0034
  714loPI   PO410064  13.263   4.125   5.528  0.2695 -0.0132 -0.0427
  714loPI   GL110065  13.415   4.166   5.978 -0.0788 -0.1626  0.0288
  714loPI   GL210066  13.416   4.413   6.287  0.3091 -0.2294  0.0597
  714loPI   C1A10067  13.297   3.947   6.311 -0.1914 -0.0596 -0.1916
  714loPI   C2A10068  13.240   4.014   6.751  0.1497 -0.1881 -0.0490
  714loPI   C3A10069  13.239   3.881   7.217  0.0766  0.4876 -0.0662
  714loPI   C4A10070  13.158   3.774   7.569  0.0012 -0.0023 -0.0199
  714loPI   C5A10071  12.896   3.865   7.946  0.0247 -0.0055  0.0001
  714loPI   C6A10072  12.703   4.092   8.264 -0.0332 -0.1123  0.0635
  714loPI   C1B10073  13.137   4.479   6.553 -0.0887 -0.1488  0.1316
  714loPI   C2B10074  13.087   4.466   7.037  0.0975 -0.1651 -0.0087
  714loPI   C3B10075  13.142   4.294   7.445  0.1507 -0.3123 -0.1453
  714loPI   C4B10076  12.973   4.339   7.810  0.0910 -0.1495 -0.2617
  715loPI    C110077   5.506  10.690   4.933  0.3279 -0.0727  0.2362
  715loPI    C210078   5.858  10.557   5.066  0.1988 -0.5289  0.1402
  715loPI    C310079   5.671  10.364   4.770 -0.0539 -0.1908  0.0737
  715loPI   PO410080   5.389  10.703   5.244  0.0899  0.4133 -0.2684
  715loPI   GL110081   5.445  10.743   5.784 -0.0551  0.0308 -0.1201
  715loPI   GL210082   5.243  10.913   5.962 -0.1237  0.0931 -0.1198
  715loPI   C1A10083   5.724  10.539   5.992  0.0873 -0.1011  0.1102
  715loPI   C2A10084   5.939  10.304   6.397 -0.2077  0.1537  0.1214
  715loPI   C3A10085   6.161  10.201   6.766  0.1923 -0.0475  0.2367
  715loPI   C4A10086   6.456  10.129   7.107 -0.0306 -0.1200  0.2151
  715loPI   C5A10087   6.550  10.010   7.442 -0.0189  0.0055  0.0140
  715loPI   C6A10088   6.841   9.930   7.668  0.0005  0.0623 -0.2520
  715loPI   C1B10089   5.155  10.768   6.302 -0.1305 -0.2232  0.0949
  715loPI   C2B10090   5.217  10.681   6.721  0.1016 -0.0935 -0.1057
  715loPI   C3B10091   5.307  10.329   6.973  0.1002  0.3294  0.1893
  715loPI   C4B10092   5.579  10.286   7.359 -0.2192 -0.3718 -0.2447
  716loPI    C110093  15.190  16.784   5.808 -0.1983  0.1303 -0.0923
  716loPI    C210094  15.209  17.103   5.568  0.0619  0.2043  0.0237
  716loPI    C310095  15.051  17.137   5.934 -0.1125  0.1473 -0.0452
  716loPI   PO410096  15.463  16.710   5.864 -0.2501  0.1259  0.0022
  716loPI   GL110097  15.752  16.407   6.076 -0.0857 -0.1207  0.2061
  716loPI   GL210098  15.408  16.246   6.083  0.1414 -0.0965  0.0008
  716loPI   C1A10099  15.879  16.363   6.520 -0.0656 -0.0775  0.0389
  716loPI   C2A10100  16.088  16.532   6.851  0.2226 -0.1882 -0.2388
  716loPI   C3A10101  16.158  16.453   7.316  0.2607  0.0695 -0.0468
  716loPI   C4A10102  16.043  16.320   7.756  0.0771  0.1771 -0.0112
  716loPI   C5A10103  15.685  16.112   8.003 -0.1387 -0.1987 -0.2038
  716loPI   C6A10104  15.430  16.049   8.333 -0.0981  0.1515 -0.1817
  716loPI   C1B10105  15.380  16.432   6.483 -0.0256  0.0613 -0.0572
  716loPI   C2B10106  15.553  16.490   6.944 -0.1886  0.1210 -0.1800
  716loPI   C3B10107  15.643  16.581   7.289  0.1110  0.1039  0.1651
  716loPI   C4B10108  15.556  16.546   7.682  0.0304 -0.0601  0.0161
  717loPI    C110109   4.770   1.128   5.029  0.1248  0.1054  0.0939
  717loPI    C210110   4.585   1.375   4.774  0.2138  0.1471  0.0696
  717loPI    C310111   4.905   1.166   4.655  0.1236  0.0004  0.0827
  717loPI   PO410112   4.825   1.245   5.234  0.1044 -0.1605  0.0589
  717loPI   GL110113   4.811   1.341   5.669  0.4338  0.3559 -0.2414
  717loPI   GL210114   4.553   1.402   5.913  0.3125 -0.1888  0.1426
  717loPI   C1A10115   4.999   1.541   6.082  0.1384  0.1623  0.0172
  717loPI   C2A10116   4.951   1.527   6.581  0.1799  0.4149 -0.1008
  717loPI   C3A10117   4.753   1.377   6.806  0.1009 -0.3133  0.0067
  717loPI   C4A10118   4.680   1.232   7.263 -0.0054 -0.0165 -0.4101
  717loPI   C5A10119   4.386   0.925   7.584  0.1797 -0.0813 -0.2770
  717loPI   C6A10120   4.561   0.513   7.692  0.0063  0.0651  0.1259
  717loPI   C1B10121   4.479   1.347   6.282 -0.1648  0.0499  0.1231
  717loPI   C2B10122   4.155   1.239   6.541  0.2599 -0.0594 -0.2580
  717loPI   C3B10123   3.833   1.303   6.752 -0.1655  0.0069  0.3489
  717loPI   C4B10124   3.486   1.440   6.830  0.0662  0.0367 -0.2420
  718loPI    C110125   1.784  15.463   5.573  0.1270 -0.2031 -0.0380
  718loPI    C210126   1.433  15.377   5.403 -0.0080  0.0651  0.0974
  718loPI    C310127   1.744  15.130   5.356 -0.2280 -0.2034  0.0220
  718loPI   PO410128   1.735  15.546   5.870 -0.1738  0.0867 -0.0639
  718loPI   GL110129   2.011  15.754   6.155 -0.4117  0.0274 -0.1108
  718loPI   GL210130   2.259  15.503   6.208 -0.0481 -0.0926 -0.3706
  718loPI   C1A10131   2.311  15.862   6.524  0.2951  0.1973 -0.1375
  718loPI   C2A10132   2.363  15.804   6.936 -0.3365  0.0424 -0.0121
  718loPI   C3A10133   2.526  15.771   7.379 -0.1923 -0.2093  0.0528
  718loPI   C4A10134   2.610  15.641   7.716 -0.0667 -0.0532 -0.1233
  718loPI   C5A10135   2.960  15.408   7.913 -0.0997 -0.3340 -0.0828
  718loPI   C6A10136   3.124  15.363   8.316 -0.1960 -0.0613 -0.1438
  718loPI   C1B10137   2.069  15.423   6.668  0.1033  0.2411  0.0255
  718loPI   C2B10138   2.183  15.290   7.015  0.1861 -0.3577 -0.1610
  718loPI   C3B10139   2.286  15.203   7.399 -0.0695 -0.4927  0.1249
  718loPI   C4B10140   2.238  15.280   7.829 -0.0695 -0.0186 -0.1721
  719loPI    C110141  15.497   7.885   5.795 -0.0800 -0.1364  0.2425
  719loPI    C210142  15.732   7.671   5.553 -0.1667 -0.1241  0.1471
  719loPI    C310143  15.888   7.965   5.774 -0.1061 -0.0609  0.0212
  719loPI   PO410144  15.331   7.699   5.927 -0.1154 -0.1062  0.0258
  719loPI   GL110145  15.084   7.584   6.332  0.1326 -0.3027 -0.0112
  719loPI   GL210146  14.912   7.544   6.308 -0.0314  0.0109  0.0616
  719loPI   C1A10147  15.217   7.812   6.714  0.2340 -0.1059 -0.0196
  719loPI   C2A10148  15.358   7.835   7.078  0.1837  0.0672  0.2409
  719loPI   C3A10149  15.545   7.750   7.541 -0.0486 -0.2066 -0.4094
  719loPI   C4A10150  15.916   7.777   7.743 -0.0840 -0.2436  0.2359
  719loPI   C5A10151  16.360   7.860   7.725  0.3175 -0.0589  0.2359
  719loPI   C6A10152  16.670   7.698   7.699 -0.2567  0.0128  0.0251
  719loPI   C1B10153  14.829   7.538   6.772  0.0876  0.1028  0.0617
  719loPI   C2B10154  14.725   7.567   7.175 -0.0965  0.2293  0.3545
  719loPI   C3B10155  14.687   7.519   7.602 -0.1573 -0.1066 -0.3205
  719loPI   C4B10156  14.624   7.609   7.967  0.0641  0.0700 -0.2470
  720loPI    C110157   9.502   3.065   5.460  0.2870  0.2865 -0.1248
  720loPI    C210158   9.559   3.109   5.066  0.1743 -0.0457 -0.1816
  720loPI    C310159   9.827   2.909   5.286  0.0651 -0.1608 -0.1522
  720loPI   PO410160   9.414   3.232   5.576 -0.0327  0.0085  0.0702
  720loPI   GL110161   9.415   3.448   5.879  0.1011  0.0887 -0.3963
  720loPI   GL210162   9.190   3.675   6.030  0.2221  0.3123  0.1380
  720loPI   C1A10163   9.466   3.375   6.336 -0.3887  0.0443 -0.1657
  720loPI   C2A10164   9.380   3.376   6.821 -0.1713 -0.1468  0.1988
  720loPI   C3A10165   9.246   3.420   7.186 -0.0762  0.5292  0.0932
  720loPI   C4A10166   9.215   3.662   7.536  0.3320  0.0919 -0.0592
  720loPI   C5A10167   9.211   3.725   7.898  0.1433 -0.2109  0.0724
  720loPI   C6A10168   9.081   3.869   8.287  0.1471 -0.1716 -0.3724
  720loPI   C1B10169   8.985   3.601   6.404 -0.0992  0.1569  0.3219
  720loPI   C2B10170   8.952   3.624   6.802 -0.0787  0.2951 -0.1629
  720loPI   C3B10171   8.834   3.651   7.180 -0.2253 -0.0903  0.0726
  720loPI   C4B10172   8.761   3.876   7.525 -0.0277  0.1531 -0.0551
  721loPI    C110173  17.289   8.859   5.574  0.3399  0.1944 -0.1250
  721loPI    C210174  17.312   8.549   5.323  0.0296  0.1851 -0.1464
  721loPI    C310175  17.447   8.908   5.210  0.0351  0.1460 -0.2668
  721loPI   PO410176  17.039   8.788   5.681  0.3579 -0.2127  0.3628
  721loPI   GL110177  16.903   8.914   6.056  0.0766  0.1063 -0.1059
  721loPI   GL210178  16.642   8.927   6.259  0.2740  0.2086  0.2424
  721loPI   C1A10179  17.032   9.093   6.449 -0.3299  0.0515  0.2996
  721loPI   C2A10180  17.075   9.015   6.915 -0.0478  0.0088  0.0479
  721loPI   C3A10181  17.151   8.984   7.319  0.2294  0.3189 -0.1388
  721loPI   C4A10182  17.102   9.102   7.788 -0.0339 -0.0791  0.1964
  721loPI   C5A10183  17.260   9.378   7.981  0.1789 -0.0079 -0.2156
  721loPI   C6A10184  17.638   9.559   8.082  0.0812 -0.0432  0.1348
  721loPI   C1B10185  16.811   8.673   6.681 -0.1390  0.0076 -0.0405
  721loPI   C2B10186  16.885   8.493   7.081  0.0330 -0.1095  0.1847
  721loPI   C3B10187  16.852   8.725   7.535  0.2402  0.2370  0.0057
  721loPI   C4B10188  16.732   8.751   7.837 -0.0384 -0.0557 -0.3732
  722loPI    C110189  13.426  10.227   5.911  0.0054  0.0963 -0.1685
  722loPI    C210190  13.158  10.194   5.616 -0.1145 -0.1443 -0.0348
  722loPI    C310191  13.081  10.035   5.975  0.0664  0.0736  0.1026
  722loPI   PO410192  13.506  10.472   5.914  0.0962 -0.5120 -0.0891
  722loPI   GL110193  13.381  10.841   6.284 -0.1939 -0.2154  0.1380
  722loPI   GL210194  13.596  10.973   6.278  0.0045  0.0780 -0.2107
  722loPI   C1A10195  13.307  11.046   6.686 -0.3561  0.3211  0.3410
  722loPI   C2A10196  13.277  11.114   7.254 -0.2967 -0.1771 -0.3010
  722loPI   C3A10197  13.274  11.184   7.621  0.4257  0.0632 -0.3233
  722loPI   C4A10198  12.976  11.229   7.908 -0.2228  0.2056 -0.1992
  722loPI   C5A10199  12.854  11.299   8.348 -0.2201 -0.2474 -0.0275
  722loPI   C6A10200  12.669  10.943   8.471  0.1062  0.1178  0.1606
  722loPI   C1B10201  13.854  11.115   6.735  0.1697  0.0213  0.0382
  722loPI   C2B10202  13.857  11.094   7.090 -0.0709  0.3850 -0.3556
  722loPI   C3B10203  13.851  11.032   7.497 -0.1454  0.1846  0.1439
  722loPI   C4B10204  13.723  11.068   7.955 -0.0712  0.0847  0.2539
  723loPI    C110205   9.418  16.012   5.532  0.0205  0.0409  0.1308
  723loPI    C210206   9.523  16.387   5.623  0.1798  0.0428 -0.0534
  723loPI    C310207   9.579  16.248   5.252  0.1677 -0.1794  0.0262
  723loPI   PO410208   9.494  15.912   5.665 -0.2724 -0.0096 -0.1669
  723loPI   GL110209   9.612  16.092   6.076 -0.2857  0.2285  0.6114
  723loPI   GL210210   9.934  15.891   6.083 -0.0618 -0.1163 -0.0060
  723loPI   C1A10211   9.636  16.052   6.572  0.0683  0.0402 -0.2466
  723loPI   C2A10212   9.888  16.253   6.749  0.0909 -0.0807  0.1809
  723loPI   C3A10213  10.129  16.364   7.161 -0.0584 -0.1105  0.1663
  723loPI   C4A10214  10.288  16.557   7.528 -0.1659  0.2718  0.0476
  723loPI   C5A10215  10.361  16.912   7.919  0.0913  0.0796  0.0373
  723loPI   C6A10216  10.505  17.300   8.097 -0.0636  0.0000  0.2956
  723loPI   C1B10217  10.164  16.134   6.341  0.0407  0.0632 -0.0550
  723loPI   C2B10218  10.430  16.146   6.723  0.0719 -0.0045 -0.3402
  723loPI   C3B10219  10.650  16.307   7.168 -0.0663 -0.3796  0.0374
  723loPI   C4B10220  10.717  16.280   7.620  0.1513  0.1362  0.1829
  724loPI    C110221   6.349  17.945   5.175 -0.1090  0.1382 -0.0264
  724loPI    C210222   6.074  17.655   5.171 -0.0446  0.0763  0.0021
  724loPI    C310223   6.210  17.806   4.827  0.0859 -0.0842 -0.0178
  724loPI   PO410224   6.579  17.796   5.327  0.0458  0.0419 -0.0312
  724loPI   GL110225   6.673  17.779   5.776  0.1716  0.2159  0.2981
  724loPI   GL210226   6.362  17.933   5.764  0.0586 -0.1420  0.0122
  724loPI   C1A10227   6.783  17.516   6.164  0.3399  0.3326  0.2538
  724loPI   C2A10228   7.008  17.512   6.535  0.0779 -0.0148 -0.1486
  724loPI   C3A10229   7.143  17.407   6.871 -0.1705 -0.3558 -0.0719
  724loPI   C4A10230   7.072  17.280   7.313  0.2302  0.0714 -0.1023
  724loPI   C5A10231   6.704  17.023   7.524 -0.1524  0.0158  0.0777
  724loPI   C6A10232   6.374  16.851   7.753 -0.2975 -0.0134  0.2992
  724loPI   C1B10233   6.436  17.924   6.193  0.1028 -0.4134  0.2828
  724loPI   C2B10234   6.585  17.851   6.546 -0.1279  0.1103 -0.0116
  724loPI   C3B10235   6.527  17.669   6.915  0.1579 -0.2325  0.4906
  724loPI   C4B10236   6.590  17.498   7.385  0.5103 -0.1556 -0.1110
  725loPI    C110237  13.394   7.155   5.522  0.0417  0.0562  0.0014
  725loPI    C210238  13.777   7.167   5.638  0.0293 -0.1744  0.0713
  725loPI    C310239  13.629   7.457   5.405  0.1622  0.0812  0.2987
  725loPI   PO410240  13.264   7.105   5.842  0.1579  0.0827  0.3240
  725loPI   GL110241  13.298   7.190   6.274  0.0045 -0.4069 -0.2655
  725loPI   GL210242  13.568   7.351   6.535 -0.2723 -0.0305  0.7040
  725loPI   C1A10243  13.166   7.182   6.748  0.1463 -0.1627  0.1222
  725loPI   C2A10244  12.986   7.148   7.102  0.0629 -0.0351 -0.0675
  725loPI   C3A10245  12.746   7.160   7.466  0.1264 -0.1991 -0.1299
  725loPI   C4A10246  12.597   6.899   7.819 -0.0304  0.1082 -0.2767
  725loPI   C5A10247  12.438   6.614   8.242 -0.3652  0.1421  0.0955
  725loPI   C6A10248  12.040   6.538   8.489 -0.1775  0.0933 -0.1401
  725loPI   C1B10249  13.839   7.071   6.776  0.1994  0.0190  0.1363
  725loPI   C2B10250  14.038   7.040   7.128  0.0253 -0.0200 -0.2772
  725loPI   C3B10251  14.102   7.017   7.514  0.0182 -0.0684 -0.1172
  725loPI   C4B10252  13.755   7.098   7.917 -0.0828 -0.0858 -0.0221
  726loPI    C110253  14.252   1.705   4.916 -0.0089  0.3549  0.1649
  726loPI    C210254  14.347   2.009   4.675 -0.1020  0.2707  0.0202
  726loPI    C310255  13.975   1.865   4.676 -0.0782  0.2094  0.1471
  726loPI   PO410256  14.229   1.705   5.165  0.2090  0.0749 -0.0257
  726loPI   GL110257  14.146   1.591   5.605  0.2437 -0.0104 -0.0503
  726loPI   GL210258  14.462   1.400   5.738  0.2060  0.2273 -0.0882
  726loPI   C1A10259  13.791   1.795   5.917 -0.1527 -0.2406 -0.1629
  726loPI   C2A10260  13.762   1.824   6.401  0.0973 -0.0227 -0.0620
  726loPI   C3A10261  13.818   1.850   6.803 -0.0915 -0.0894  0.0738
  726loPI   C4A10262  13.992   2.032   7.196 -0.2260 -0.2601  0.0423
  726loPI   C5A10263  13.850   2.137   7.632 -0.0634 -0.1405  0.2382
  726loPI   C6A10264  13.598   2.138   7.945  0.0448  0.1553  0.1086
  726loPI   C1B10265  14.233   1.505   6.099 -0.2780  0.1223 -0.0564
  726loPI   C2B10266  14.278   1.810   6.457 -0.1093 -0.1600 -0.3658
  726loPI   C3B10267  14.315   1.933   6.809  0.0124  0.4730  0.1537
  726loPI   C4B10268  14.522   2.005   7.170 -0.2323  0.0314  0.3083
  727loPI    C110269   5.250   8.283   5.489 -0.1704 -0.0167  0.0421
  727loPI    C210270   5.051   8.169   5.161 -0.0880  0.1678 -0.0734
  727loPI    C310271   5.445   8.235   5.143 -0.0686  0.0984  0.0831
  727loPI   PO410272   5.255   8.042   5.672  0.0541 -0.1818 -0.0917
  727loPI   GL110273   5.247   8.053   6.095  0.2031 -0.0943 -0.1819
  727loPI   GL210274   5.282   8.258   6.281  0.1134 -0.1910 -0.1035
  727loPI   C1A10275   5.114   7.782   6.289 -0.1662 -0.0706 -0.3342
  727loPI   C2A10276   5.286   7.844   6.685  0.0505  0.0857 -0.2530
  727loPI   C3A10277   5.362   7.858   7.134  0.0222 -0.2154  0.3295
  727loPI   C4A10278   5.513   7.738   7.507  0.1293  0.2985 -0.0007
  727loPI   C5A10279   5.846   7.880   7.690 -0.1212 -0.2969 -0.2012
  727loPI   C6A10280   5.881   8.166   8.073 -0.1097  0.1827  0.3585
  727loPI   C1B10281   5.384   8.389   6.699 -0.4075  0.1896  0.0957
  727loPI   C2B10282   5.316   8.361   7.144 -0.1059 -0.2566  0.3120
  727loPI   C3B10283   5.353   8.189   7.531  0.2922  0.2093  0.3243
  727loPI   C4B10284   5.197   7.896   7.809  0.0705 -0.1942  0.1607
  728loPI    C110285  17.715  12.113   5.455  0.0874  0.3588 -0.3636
  728loPI    C210286  18.107  12.170   5.401  0.1734 -0.0112 -0.1621
  728loPI    C310287  17.900  11.948   5.141  0.1330  0.0404 -0.1740
  728loPI   PO410288  17.640  12.367   5.583  0.3110  0.1023 -0.1604
  728loPI   GL110289  17.779  12.423   5.975 -0.1447  0.0144 -0.0461
  728loPI   GL210290  17.980  12.065   5.883  0.1880  0.1360  0.0442
  728loPI   C1A10291  17.844  12.639   6.454  0.3108 -0.0003 -0.0951
  728loPI   C2A10292  17.887  12.718   6.837 -0.0593 -0.2401 -0.1541
  728loPI   C3A10293  17.949  12.731   7.232  0.3546 -0.2501 -0.0276
  728loPI   C4A10294  18.023  13.035   7.546  0.0166 -0.1212  0.0616
  728loPI   C5A10295  18.110  13.136   8.003 -0.0799 -0.2985 -0.0573
  728loPI   C6A10296  17.985  12.860   8.353  0.1012 -0.0419 -0.1678
  728loPI   C1B10297  17.815  12.155   6.372 -0.2998  0.1391 -0.1773
  728loPI   C2B10298  17.590  12.311   6.683  0.3112 -0.0203 -0.0797
  728loPI   C3B10299  17.577  12.389   7.026  0.0193  0.1494 -0.1150
  728loPI   C4B10300  17.548  12.570   7.558  0.0741 -0.3138  0.0022
  729loPI    C110301  14.202   3.604   5.435 -0.3155  0.1732 -0.0283
  729loPI    C210302  14.486   3.491   5.178 -0.1565  0.0661  0.1917
  729loPI    C310303  14.131   3.306   5.177 -0.0721 -0.0982  0.2117
  729loPI   PO410304  14.320   3.681   5.676  0.1367 -0.0030 -0.2035
  729loPI   GL110305  14.086   3.517   6.049  0.0290 -0.0959  0.2471
  729loPI   GL210306  13.952   3.179   6.115  0.1659 -0.1358  0.0062
  729loPI   C1A10307  13.884   3.753   6.279 -0.2383  0.0038 -0.0293
  729loPI   C2A10308  13.868   3.852   6.680 -0.0450 -0.2330  0.0004
  729loPI   C3A10309  13.733   3.803   7.102  0.0534 -0.2508 -0.1041
  729loPI   C4A10310  13.669   3.680   7.501 -0.0699  0.0989 -0.0695
  729loPI   C5A10311  13.675   3.620   7.852  0.1069 -0.0751  0.1080
  729loPI   C6A10312  13.257   3.612   8.094  0.0933 -0.2444 -0.0152
  729loPI   C1B10313  13.882   3.301   6.586 -0.3060  0.0013 -0.1118
  729loPI   C2B10314  13.767   3.238   7.083  0.0748 -0.2039  0.2852
  729loPI   C3B10315  13.817   3.200   7.547 -0.1977 -0.0994 -0.1091
  729loPI   C4B10316  13.895   3.122   7.988 -0.1838  0.1913 -0.1245
  730loPI    C110317   7.171  17.843   5.164  0.0749 -0.1050  0.1610
  730loPI    C210318   7.279  17.496   4.995 -0.0319 -0.0280 -0.0688
  730loPI    C310319   7.282  17.834   4.780 -0.3894  0.0343  0.0179
  730loPI   PO410320   7.082  17.725   5.372  0.1396  0.0570 -0.0670
  730loPI   GL110321   7.219  17.821   5.731  0.3583 -0.0231  0.2088
  730loPI   GL210322   7.420  18.130   5.542  0.0820  0.0494 -0.1739
  730loPI   C1A10323   7.506  17.758   6.116 -0.4141  0.1952 -0.2419
  730loPI   C2A10324   7.494  17.699   6.586 -0.1505 -0.2606  0.2197
  730loPI   C3A10325   7.526  17.877   6.990  0.5967 -0.0487  0.1395
  730loPI   C4A10326   7.541  17.957   7.473 -0.2752  0.1646 -0.0794
  730loPI   C5A10327   7.724  18.221   7.712 -0.0331 -0.0735 -0.0563
  730loPI   C6A10328   7.535  18.330   8.087 -0.1446  0.0236  0.0431
  730loPI   C1B10329   7.620  18.245   5.935  0.2348  0.3136 -0.0934
  730loPI   C2B10330   7.527  18.255   6.384 -0.1513  0.0550  0.1999
  730loPI   C3B10331   7.249  18.363   6.689  0.0616 -0.0321 -0.2792
  730loPI   C4B10332   7.183  18.289   7.175  0.2939  0.2930  0.0173
  731loPI    C110333  14.424  12.611   5.862  0.1382  0.0206 -0.1041
  731loPI    C210334  14.725  12.482   5.633  0.2018  0.1898 -0.1172
  731loPI    C310335  14.355  12.504   5.483  0.1082 -0.3753  0.0087
  731loPI   PO410336  14.573  12.832   5.997 -0.0836 -0.1420 -0.1486
  731loPI   GL110337  14.656  13.019   6.417  0.0286 -0.4073  0.0395
  731loPI   GL210338  14.610  12.664   6.475  0.0956 -0.3855  0.1646
  731loPI   C1A10339  14.714  12.955   6.860 -0.1824 -0.0591 -0.0514
  731loPI   C2A10340  14.786  12.911   7.251  0.0625  0.0317  0.4246
  731loPI   C3A10341  14.437  12.984   7.569 -0.1085 -0.1006 -0.1219
  731loPI   C4A10342  14.392  12.824   7.967 -0.0558  0.0172  0.2809
  731loPI   C5A10343  14.592  12.557   8.217 -0.0991 -0.1812 -0.2377
  731loPI   C6A10344  14.391  12.434   8.705 -0.2679  0.2990  0.1987
  731loPI   C1B10345  14.287  12.784   6.796  0.2666 -0.0745  0.0533
  731loPI   C2B10346  13.961  12.382   7.011 -0.0187 -0.2415  0.2391
  731loPI   C3B10347  13.936  12.314   7.390  0.1149 -0.0193  0.1701
  731loPI   C4B10348  14.106  12.494   7.756 -0.0310  0.0958 -0.0598
  732loPI    C110349  17.201   0.646   5.477 -0.0187  0.1349  0.0929
  732loPI    C210350  17.403   0.991   5.487  0.0612  0.0890  0.0753
  732loPI    C310351  17.379   0.784   5.146  0.2225 -0.0460  0.1442
  732loPI   PO410352  17.249   0.520   5.707 -0.0137 -0.0400  0.0917
  732loPI   GL110353  17.179   0.565   6.147 -0.2004  0.2989 -0.1707
  732loPI   GL210354  17.196   0.197   6.115  0.3616 -0.0296  0.2207
  732loPI   C1A10355  17.360   0.550   6.435 -0.0039  0.0182  0.1024
  732loPI   C2A10356  17.300   0.560   6.887 -0.3692  0.1771  0.5166
  732loPI   C3A10357  17.166   0.425   7.217 -0.1459  0.0187 -0.4433
  732loPI   C4A10358  17.378   0.485   7.580 -0.1974  0.0240 -0.0954
  732loPI   C5A10359  17.555   0.585   8.005 -0.2514  0.2492  0.3039
  732loPI   C6A10360  17.620   0.309   8.298  0.1642  0.2215  0.1437
  732loPI   C1B10361  16.987   0.259   6.513  0.2712 -0.1297 -0.0194
  732loPI   C2B10362  16.807   0.499   6.788 -0.1324  0.0526 -0.0411
  732loPI   C3B10363  16.693   0.604   7.170 -0.0273  0.1079  0.0917
  732loPI   C4B10364  16.834   0.629   7.631  0.1111  0.1951 -0.0614
  733loPI    C110365   2.814   4.821   5.771  0.0894 -0.0006  0.0319
  733loPI    C210366   3.098   4.619   5.575  0.0576  0.1312 -0.1520
  733loPI    C310367   2.916   4.929   5.400 -0.3704 -0.1009 -0.1295
  733loPI   PO410368   2.835   4.615   5.987 -0.1050 -0.1812 -0.2120
  733loPI   GL110369   2.822   4.662   6.434 -0.1680  0.3299 -0.0220
  733loPI   GL210370   2.430   4.735   6.385 -0.0156 -0.1627  0.0088
  733loPI   C1A10371   2.993   4.505   6.799  0.1817  0.1334  0.0183
  733loPI   C2A10372   3.168   4.404   7.169  0.2343  0.0965  0.4131
  733loPI   C3A10373   3.313   4.416   7.496  0.0332  0.0754 -0.1826
  733loPI   C4A10374   3.390   4.579   7.880 -0.0259  0.0713 -0.0108
  733loPI   C5A10375   3.420   4.973   8.205  0.0231 -0.0057 -0.2085
  733loPI   C6A10376   3.770   5.279   8.102  0.2793 -0.2615 -0.0618
  733loPI   C1B10377   2.518   4.758   6.855 -0.0607  0.0850  0.2319
  733loPI   C2B10378   2.698   4.561   7.175 -0.2094  0.1375 -0.1815
  733loPI   C3B10379   2.654   4.673   7.543 -0.1177  0.0864 -0.0543
  733loPI   C4B10380   2.910   4.559   7.860 -0.2969  0.0803 -0.4674
  734loPI    C110381  14.423   6.795   5.878 -0.1391  0.1271  0.1639
  734loPI    C210382  14.422   7.001   5.536 -0.0225  0.1830  0.1966
  734loPI    C310383  14.100   6.790   5.643  0.1265 -0.2699 -0.2094
  734loPI   PO410384  14.693   6.690   5.840  0.0188  0.4039 -0.0525
  734loPI   GL110385  14.779   6.492   6.216 -0.1552 -0.2804  0.2381
  734loPI   GL210386  14.863   6.334   6.367 -0.2632 -0.1344  0.0096
  734loPI   C1A10387  14.576   6.559   6.701 -0.3586  0.3979 -0.2218
  734loPI   C2A10388  14.383   6.520   7.091 -0.1775  0.0761 -0.2230
  734loPI   C3A10389  14.430   6.636   7.506  0.0095 -0.0143  0.2396
  734loPI   C4A10390  14.271   6.580   7.858 -0.0772 -0.2105 -0.1439
  734loPI   C5A10391  13.876   6.580   8.130 -0.1370 -0.1232 -0.1514
  734loPI   C6A10392  13.358   6.418   8.187 -0.0749  0.2670 -0.1895
  734loPI   C1B10393  15.045   6.205   6.568 -0.1606 -0.0182  0.0150
  734loPI   C2B10394  15.023   6.199   6.984 -0.0437  0.1547  0.0252
  734loPI   C3B10395  14.860   6.263   7.354 -0.1659  0.0396  0.1516
  734loPI   C4B10396  14.818   6.178   7.793 -0.3557  0.3446 -0.3681
  735loPI    C110397  15.327   3.188   5.871 -0.2659  0.0844 -0.1674
  735loPI    C210398  15.235   3.231   5.484 -0.2289  0.3400 -0.1495
  735loPI    C310399  15.542   3.434   5.640  0.0314 -0.0915 -0.0838
  735loPI   PO410400  15.083   3.161   5.993  0.0402 -0.0627 -0.0400
  735loPI   GL110401  15.036   3.018   6.375 -0.1428  0.2270 -0.0519
  735loPI   GL210402  14.807   3.280   6.421  0.0001  0.2726  0.2184
  735loPI   C1A10403  15.054   2.814   6.775 -0.0100 -0.2604 -0.0467
  735loPI   C2A10404  15.175   2.611   7.083 -0.3613 -0.3826 -0.0029
  735loPI   C3A10405  15.266   2.582   7.519 -0.2105  0.2945 -0.3761
  735loPI   C4A10406  15.104   2.496   7.939  0.1373  0.1552  0.0549
  735loPI   C5A10407  15.271   2.596   8.301 -0.0850 -0.2336  0.3489
  735loPI   C6A10408  15.527   2.610   8.730  0.0144 -0.2274 -0.0041
  735loPI   C1B10409  14.933   3.265   6.819  0.2071  0.2518 -0.1842
  735loPI   C2B10410  15.042   3.163   7.161 -0.1833 -0.1525 -0.1876
  735loPI   C3B10411  15.156   3.089   7.582  0.0143  0.0716  0.1286
  735loPI   C4B10412  15.180   2.972   7.963 -0.0669 -0.2512  0.2488
  736loPI    C110413  15.027   0.979   5.280 -0.0098  0.0480 -0.1098
  736loPI    C210414  14.953   0.615   5.428  0.0899 -0.0131 -0.2089
  736loPI    C310415  15.329   0.730   5.358  0.0669  0.1556 -0.0614
  736loPI   PO410416  14.920   1.159   5.459  0.0102 -0.2425 -0.2392
  736loPI   GL110417  14.946   1.131   5.888  0.0079 -0.2442 -0.3623
  736loPI   GL210418  15.033   0.864   5.856  0.0211 -0.1221  0.2761
  736loPI   C1A10419  14.628   1.231   6.249 -0.0782  0.2527 -0.2105
  736loPI   C2A10420  14.495   1.227   6.622  0.1695 -0.0630 -0.1082
  736loPI   C3A10421  14.487   1.248   7.121 -0.2096  0.0459 -0.1150
  736loPI   C4A10422  14.477   1.199   7.559  0.3248 -0.0907  0.0722
  736loPI   C5A10423  14.393   1.497   7.913 -0.2302  0.0515 -0.1041
  736loPI   C6A10424  14.333   1.821   8.208 -0.2716  0.0739 -0.0170
  736loPI   C1B10425  15.305   0.658   6.177 -0.1500 -0.0472  0.1440
  736loPI   C2B10426  15.231   0.773   6.634 -0.1391 -0.1732  0.0797
  736loPI   C3B10427  15.164   0.745   7.068  0.0156  0.2657 -0.2932
  736loPI   C4B10428  15.189   0.708   7.426 -0.1441  0.3546 -0.0997
  737loPI    C110429   8.450   1.828   5.236 -0.1450  0.0977  0.0261
  737loPI    C210430   8.591   2.132   5.454 -0.1162  0.0607  0.0590
  737loPI    C310431   8.740   2.062   5.090 -0.0902  0.0575  0.0702
  737loPI   PO410432   8.369   1.670   5.441  0.0925  0.0900  0.3385
  737loPI   GL110433   8.425   1.436   5.841  0.0216  0.0408  0.1479
  737loPI   GL210434   8.072   1.457   5.748  0.1489  0.1329  0.0605
  737loPI   C1A10435   8.244   1.337   6.204  0.0536  0.1660 -0.1337
  737loPI   C2A10436   8.258   1.188   6.612 -0.2412  0.3332 -0.2245
  737loPI   C3A10437   8.152   1.147   6.966 -0.2755  0.1799  0.1324
  737loPI   C4A10438   7.939   1.200   7.377 -0.1384  0.2699  0.3068
  737loPI   C5A10439   8.108   1.362   7.767  0.0322 -0.2088 -0.1055
  737loPI   C6A10440   8.167   1.632   8.181 -0.0896  0.0066  0.2193
  737loPI   C1B10441   7.889   1.630   6.113 -0.0715 -0.0901 -0.1166
  737loPI   C2B10442   7.853   1.672   6.480  0.1489 -0.2138  0.0550
  737loPI   C3B10443   7.905   1.550   6.898  0.0799 -0.1296  0.2223
  737loPI   C4B10444   8.164   1.692   7.159 -0.4894 -0.1252 -0.1946
  738loPI    C110445  17.673   6.029   6.110  0.1805 -0.0777 -0.0087
  738loPI    C210446  17.701   6.428   6.094  0.1015 -0.0700  0.0372
  738loPI    C310447  17.607   6.220   5.765 -0.1990 -0.0222  0.0898
  738loPI   PO410448  17.411   5.983   6.331 -0.2207 -0.0683 -0.0151
  738loPI   GL110449  17.172   6.009   6.660  0.2260  0.1007  0.0598
  738loPI   GL210450  17.490   5.829   6.776  0.1353  0.2746 -0.0039
  738loPI   C1A10451  16.996   5.943   7.039  0.0282  0.1014  0.1852
  738loPI   C2A10452  16.820   5.796   7.477  0.0900 -0.1122  0.2689
  738loPI   C3A10453  16.827   5.708   7.931  0.0025  0.0899 -0.1008
  738loPI   C4A10454  16.777   5.621   8.372  0.3606 -0.0730 -0.0805
  738loPI   C5A10455  17.017   5.481   8.742 -0.2337 -0.0437 -0.0910
  738loPI   C6A10456  16.912   5.100   9.000  0.0530  0.2579  0.0353
  738loPI   C1B10457  17.434   5.770   7.235 -0.0181 -0.1224  0.0029
  738loPI   C2B10458  17.470   5.689   7.558 -0.0259 -0.2023 -0.2195
  738loPI   C3B10459  17.269   5.476   7.904 -0.0879 -0.1336 -0.0033
  738loPI   C4B10460  17.219   5.417   8.255 -0.0457 -0.0002 -0.0799
  739loPI    C110461   4.188   1.919   5.013  0.0710 -0.0113  0.0756
  739loPI    C210462   3.856   1.880   4.795  0.0835  0.1825  0.0204
  739loPI    C310463   4.171   1.644   4.723 -0.0925 -0.1044  0.1722
  739loPI   PO410464   4.061   2.005   5.239  0.1725  0.1976  0.1446
  739loPI   GL110465   3.825   1.952   5.731 -0.0341  0.4949 -0.0115
  739loPI   GL210466   3.619   2.194   5.832  0.1469 -0.3546 -0.3240
  739loPI   C1A10467   4.135   2.136   6.161 -0.1792  0.2309  0.0431
  739loPI   C2A10468   4.115   2.252   6.595 -0.1589  0.2423 -0.1873
  739loPI   C3A10469   4.216   2.099   6.952  0.3049  0.2568  0.3471
  739loPI   C4A10470   4.404   2.107   7.351 -0.2335 -0.0554  0.3164
  739loPI   C5A10471   4.273   1.996   7.781  0.4002  0.0293  0.0393
  739loPI   C6A10472   4.187   2.015   8.249 -0.1658 -0.1856  0.0345
  739loPI   C1B10473   3.705   2.274   6.361 -0.0629  0.2023 -0.0416
  739loPI   C2B10474   3.708   1.992   6.718 -0.2186 -0.2292  0.4593
  739loPI   C3B10475   3.840   1.756   6.932  0.2363  0.2955 -0.0541
  739loPI   C4B10476   3.847   1.495   7.267  0.0287  0.2927  0.1040
  740loPI    C110477  12.656  14.535   5.897 -0.0433  0.1676 -0.4093
  740loPI    C210478  12.568  14.397   5.532 -0.1082 -0.2546 -0.2391
  740loPI    C310479  12.373  14.256   5.852  0.0098  0.0471 -0.0302
  740loPI   PO410480  12.695  14.766   5.860 -0.1474 -0.0164 -0.0331
  740loPI   GL110481  12.894  15.042   6.118 -0.0334 -0.1936 -0.1552
  740loPI   GL210482  12.609  15.179   6.252  0.0663 -0.1767 -0.1957
  740loPI   C1A10483  13.035  15.032   6.555  0.0522  0.3083 -0.1692
  740loPI   C2A10484  12.953  15.117   6.934 -0.0258  0.2213 -0.4328
  740loPI   C3A10485  12.862  15.263   7.259 -0.1263  0.0389 -0.0147
  740loPI   C4A10486  12.558  15.211   7.644 -0.2420 -0.0860 -0.1887
  740loPI   C5A10487  12.505  15.137   8.042  0.1052 -0.0603 -0.0377
  740loPI   C6A10488  12.479  14.824   8.316 -0.2823 -0.2179  0.1179
  740loPI   C1B10489  12.427  15.330   6.663  0.4820  0.0069 -0.3896
  740loPI   C2B10490  12.354  15.379   6.988  0.5093  0.0090  0.0226
  740loPI   C3B10491  12.469  15.650   7.273 -0.0376 -0.1043 -0.2202
  740loPI   C4B10492  12.625  15.768   7.615 -0.2628 -0.1015  0.1123
  741loPI    C110493  12.356   4.625   5.175  0.0748 -0.0322 -0.2562
  741loPI    C210494  12.722   4.695   5.029  0.2152 -0.1901  0.0121
  741loPI    C310495  12.452   4.501   4.807  0.3043 -0.1029 -0.1744
  741loPI   PO410496  12.410   4.706   5.504  0.0719  0.1564  0.1982
  741loPI   GL110497  12.506   4.871   5.873  0.2168 -0.1017 -0.0860
  741loPI   GL210498  12.635   5.131   5.983 -0.3444  0.0007 -0.0299
  741loPI   C1A10499  12.370   4.681   6.194  0.1101  0.0950 -0.0488
  741loPI   C2A10500  12.604   4.609   6.663  0.0232 -0.0743  0.0522
  741loPI   C3A10501  12.627   4.625   7.074 -0.0272 -0.4797  0.1532
  741loPI   C4A10502  12.580   4.590   7.443 -0.2281 -0.1024 -0.2303
  741loPI   C5A10503  12.610   4.793   7.836 -0.0219 -0.1305  0.1136
  741loPI   C6A10504  12.548   4.704   8.187  0.1820  0.1483  0.0791
  741loPI   C1B10505  12.632   5.047   6.430  0.1243  0.1638 -0.0385
  741loPI   C2B10506  12.549   5.106   6.823 -0.0728  0.2281 -0.1918
  741loPI   C3B10507  12.419   5.087   7.243 -0.0566 -0.0219  0.1169
  741loPI   C4B10508  12.624   5.241   7.574 -0.0362  0.0283 -0.1458
  742loPI    C110509  14.313  15.402   5.709 -0.1607  0.0389  0.1139
  742loPI    C210510  14.443  15.536   5.355 -0.0255 -0.2365  0.0561
  742loPI    C310511  14.089  15.351   5.381 -0.0229 -0.2409  0.0598
  742loPI   PO410512  14.546  15.303   5.806  0.5106  0.4292  0.0861
  742loPI   GL110513  14.552  15.367   6.186 -0.2597  0.0902  0.6068
  742loPI   GL210514  14.896  15.345   6.375 -0.0309 -0.2027  0.1366
  742loPI   C1A10515  14.401  15.447   6.649  0.0986  0.1672 -0.3705
  742loPI   C2A10516  14.105  15.583   6.847 -0.2182  0.4431  0.0107
  742loPI   C3A10517  13.799  15.621   7.167 -0.5689 -0.3275  0.0596
  742loPI   C4A10518  13.799  15.783   7.632  0.0124 -0.1007 -0.2449
  742loPI   C5A10519  13.513  15.937   8.038  0.0521 -0.3025  0.0884
  742loPI   C6A10520  13.304  16.054   8.308  0.2515  0.0786 -0.0188
  742loPI   C1B10521  14.941  15.574   6.713  0.0936 -0.0400  0.1712
  742loPI   C2B10522  15.098  15.896   7.095  0.1671  0.0652 -0.0920
  742loPI   C3B10523  15.205  15.999   7.515 -0.1767  0.1718 -0.0421
  742loPI   C4B10524  15.129  16.325   7.813  0.0187  0.2329  0.0603
  743loPI    C110525   7.107   4.869   5.344 -0.0022 -0.0802 -0.0164
  743loPI    C210526   7.360   5.126   5.171 -0.2124  0.0451 -0.1409
  743loPI    C310527   7.008   5.044   4.999 -0.2827 -0.0834  0.0603
  743loPI   PO410528   7.190   4.570   5.434  0.0482 -0.0381 -0.0494
  743loPI   GL110529   7.142   4.280   5.769 -0.2629  0.0044 -0.0723
  743loPI   GL210530   6.904   4.251   5.946 -0.3988 -0.2574 -0.1014
  743loPI   C1A10531   7.337   4.211   6.194  0.0060 -0.0795 -0.2518
  743loPI   C2A10532   7.381   4.129   6.592 -0.1754 -0.1455 -0.2885
  743loPI   C3A10533   7.416   4.367   6.970  0.1326 -0.0593 -0.0297
  743loPI   C4A10534   7.410   4.326   7.407 -0.1809 -0.1185 -0.0366
  743loPI   C5A10535   7.801   4.290   7.731 -0.2246 -0.2142 -0.0926
  743loPI   C6A10536   8.314   4.335   7.652 -0.1814 -0.1970 -0.3641
  743loPI   C1B10537   6.871   4.203   6.424  0.2305  0.1609  0.1596
  743loPI   C2B10538   6.941   4.164   6.789 -0.2499 -0.1340 -0.4408
  743loPI   C3B10539   6.859   4.227   7.289 -0.0780  0.0311 -0.0650
  743loPI   C4B10540   6.908   4.051   7.770 -0.0271  0.2695 -0.1123
  744loPI    C110541  12.041  13.753   5.606  0.1849 -0.0720  0.0440
  744loPI    C210542  12.422  13.845   5.528  0.1174  0.1674 -0.0105
  744loPI    C310543  12.219  13.608   5.278  0.2779 -0.0962  0.1048
  744loPI   PO410544  11.999  13.909   5.855  0.1859  0.1099 -0.2724
  744loPI   GL110545  12.127  14.118   6.244 -0.0152 -0.1698  0.3718
  744loPI   GL210546  11.908  14.322   6.416  0.1641 -0.2230  0.0431
  744loPI   C1A10547  12.176  13.952   6.604  0.0981  0.2063 -0.0656
  744loPI   C2A10548  12.057  13.936   6.972 -0.0557  0.0053 -0.4569
  744loPI   C3A10549  11.929  14.149   7.355 -0.1331 -0.1274  0.1834
  744loPI   C4A10550  11.973  14.140   7.779  0.1378  0.0502  0.2218
  744loPI   C5A10551  11.987  13.891   8.173 -0.2812  0.1984  0.2642
  744loPI   C6A10552  11.632  14.055   8.393  0.1087 -0.1460 -0.0010
  744loPI   C1B10553  11.766  14.369   6.798 -0.1890 -0.1609 -0.2218
  744loPI   C2B10554  11.463  14.389   7.160 -0.1648 -0.2046  0.0602
  744loPI   C3B10555  11.390  14.354   7.536 -0.1572  0.1321  0.1693
  744loPI   C4B10556  11.189  14.318   8.026 -0.0714  0.3138 -0.3932
  745loPI    C110557   3.013  13.421   5.678  0.0827 -0.2782 -0.2044
  745loPI    C210558   2.980  13.743   5.443 -0.2383 -0.0419  0.1518
  745loPI    C310559   3.302  13.697   5.676 -0.1137 -0.0674 -0.0235
  745loPI   PO410560   2.831  13.290   5.541 -0.3274 -0.1500  0.2267
  745loPI   GL110561   2.655  13.069   5.836  0.0897 -0.0700  0.0138
  745loPI   GL210562   2.934  12.901   5.988 -0.2175 -0.1296  0.1695
  745loPI   C1A10563   2.493  12.838   6.239 -0.1276 -0.1222  0.3906
  745loPI   C2A10564   2.447  12.830   6.651  0.1975 -0.1172  0.0351
  745loPI   C3A10565   2.188  12.832   6.988  0.2002  0.0932 -0.0550
  745loPI   C4A10566   2.229  12.834   7.387 -0.0699 -0.0264  0.2689
  745loPI   C5A10567   2.064  12.567   7.658 -0.1547  0.0574  0.1269
  745loPI   C6A10568   2.016  12.198   7.953 -0.0777  0.0229 -0.3091
  745loPI   C1B10569   2.955  13.075   6.397 -0.1810  0.0111 -0.2177
  745loPI   C2B10570   2.973  13.102   6.812 -0.0162  0.4139  0.1568
  745loPI   C3B10571   2.899  13.026   7.305  0.1517  0.1834 -0.0534
  745loPI   C4B10572   2.969  12.955   7.784  0.0966  0.1937 -0.0524
  746loPI    C110573   2.972   2.206   5.052  0.1378 -0.0836  0.1576
  746loPI    C210574   2.771   2.543   4.977  0.1422 -0.0358  0.3556
  746loPI    C310575   2.946   2.344   4.677  0.1130  0.1204  0.2334
  746loPI   PO410576   3.077   2.315   5.296 -0.0367  0.1240 -0.1290
  746loPI   GL110577   3.186   2.093   5.628  0.0369  0.1391 -0.0784
  746loPI   GL210578   3.092   2.458   5.816  0.3869 -0.0047  0.3002
  746loPI   C1A10579   3.272   2.069   6.134  0.0261  0.0956  0.5422
  746loPI   C2A10580   3.232   2.424   6.344  0.0512  0.0090  0.1093
  746loPI   C3A10581   3.430   2.417   6.795 -0.0183 -0.1574  0.1383
  746loPI   C4A10582   3.682   2.298   7.131 -0.0027 -0.3453  0.2057
  746loPI   C5A10583   3.929   1.987   7.404  0.0890  0.0757  0.3080
  746loPI   C6A10584   3.739   1.822   7.784  0.1072  0.3858  0.0403
  746loPI   C1B10585   3.422   2.827   6.099 -0.0234 -0.1044  0.2879
  746loPI   C2B10586   3.637   2.926   6.523  0.0569 -0.1047 -0.1266
  746loPI   C3B10587   3.535   2.875   6.986  0.0896  0.0511 -0.0773
  746loPI   C4B10588   3.522   2.939   7.451  0.1491 -0.2513 -0.0263
  747loPI    C110589   0.248  15.894   5.386 -0.0986 -0.0694  0.0804
  747loPI    C210590   0.011  15.615   5.225 -0.0483 -0.0566 -0.0170
  747loPI    C310591   0.088  15.952   5.024  0.1008 -0.0872 -0.0121
  747loPI   PO410592   0.161  15.977   5.657  0.0363  0.0022  0.2469
  747loPI   GL110593   0.069  15.776   6.004  0.2362  0.0990  0.3577
  747loPI   GL210594  -0.165  15.917   6.073  0.1156 -0.0068 -0.2248
  747loPI   C1A10595   0.137  15.502   6.398  0.2990 -0.2689  0.0364
  747loPI   C2A10596   0.122  15.632   6.847  0.2365  0.2323 -0.4361
  747loPI   C3A10597   0.181  15.731   7.219  0.1291  0.1052 -0.0157
  747loPI   C4A10598   0.346  15.785   7.684  0.3197  0.2331  0.0040
  747loPI   C5A10599   0.179  15.582   7.995 -0.0498  0.0627 -0.0733
  747loPI   C6A10600   0.013  15.458   8.331 -0.1546 -0.0151 -0.0512
  747loPI   C1B10601  -0.224  15.852   6.531 -0.2034 -0.0930 -0.0965
  747loPI   C2B10602  -0.328  15.859   7.063 -0.0207  0.0039 -0.0335
  747loPI   C3B10603  -0.283  15.789   7.553  0.1217  0.0753 -0.0639
  747loPI   C4B10604  -0.495  15.628   7.946 -0.0899 -0.3776  0.1627
  748loPI    C110605   2.088   1.853   5.640 -0.0081  0.1704  0.3425
  748loPI    C210606   1.963   2.223   5.552 -0.2836  0.0671  0.2911
  748loPI    C310607   1.901   1.924   5.294 -0.1154 -0.0278  0.3590
  748loPI   PO410608   2.329   1.918   5.761  0.0100  0.0227  0.0413
  748loPI   GL110609   2.314   2.095   6.242  0.1053  0.0095 -0.1926
  748loPI   GL210610   2.075   2.257   6.030 -0.1677  0.0839 -0.1017
  748loPI   C1A10611   2.354   2.176   6.714  0.4134 -0.0718 -0.3082
  748loPI   C2A10612   2.363   2.224   7.205 -0.0824 -0.2625 -0.2695
  748loPI   C3A10613   2.348   2.080   7.676  0.1168 -0.2426 -0.3168
  748loPI   C4A10614   2.009   1.756   7.791 -0.1755  0.0342 -0.0648
  748loPI   C5A10615   1.993   1.321   7.987  0.1177  0.0145 -0.4568
  748loPI   C6A10616   1.890   0.883   8.167  0.2052  0.2210  0.3691
  748loPI   C1B10617   2.033   2.449   6.447  0.2541 -0.1468 -0.0802
  748loPI   C2B10618   1.991   2.548   6.895  0.0932 -0.2474 -0.1283
  748loPI   C3B10619   2.074   2.573   7.271 -0.2240  0.0258 -0.0951
  748loPI   C4B10620   2.176   2.573   7.644  0.1896  0.1345  0.1632
  749loPI    C110621  11.237   4.559   4.917  0.0901  0.1983  0.1812
  749loPI    C210622  10.861   4.423   4.934  0.1951 -0.1008  0.1720
  749loPI    C310623  11.041   4.470   4.580  0.1593  0.0669  0.1751
  749loPI   PO410624  11.383   4.389   5.073 -0.0757  0.0606 -0.0981
  749loPI   GL110625  11.392   4.221   5.536 -0.0579  0.0911  0.0574
  749loPI   GL210626  11.397   4.563   5.688  0.0027 -0.0287 -0.0934
  749loPI   C1A10627  11.463   3.965   5.901 -0.0406  0.0944 -0.0543
  749loPI   C2A10628  11.370   3.846   6.338  0.2672  0.1314 -0.2961
  749loPI   C3A10629  11.354   3.776   6.815 -0.1502  0.0568 -0.0651
  749loPI   C4A10630  11.405   3.698   7.219  0.2246  0.0168 -0.0589
  749loPI   C5A10631  11.204   3.906   7.492 -0.3029 -0.1702 -0.1888
  749loPI   C6A10632  11.169   4.174   7.867 -0.3699 -0.2009  0.1959
  749loPI   C1B10633  11.498   4.451   6.037 -0.0966  0.0659  0.0430
  749loPI   C2B10634  11.776   4.331   6.341  0.1922  0.1365  0.3016
  749loPI   C3B10635  11.896   4.520   6.747 -0.0451  0.1199 -0.1451
  749loPI   C4B10636  12.105   4.652   7.121 -0.1973  0.2198  0.1882
  750loPI    C110637  17.569   0.036   5.448  0.1812  0.0840 -0.0354
  750loPI    C210638  17.332  -0.118   5.165  0.0426  0.0400  0.1029
  750loPI    C310639  17.439   0.268   5.149 -0.1058  0.0807  0.0839
  750loPI   PO410640  17.368  -0.026   5.691  0.0065  0.3450 -0.2730
  750loPI   GL110641  17.539  -0.177   6.089 -0.0328  0.2019  0.4844
  750loPI   GL210642  17.952  -0.112   6.020  0.1426  0.0639  0.0984
  750loPI   C1A10643  17.441   0.062   6.486 -0.1786 -0.1147  0.0087
  750loPI   C2A10644  17.495   0.043   6.931  0.0906 -0.1843  0.2551
  750loPI   C3A10645  17.347   0.003   7.417 -0.0790  0.2317 -0.0831
  750loPI   C4A10646  17.268   0.115   7.910  0.3164  0.1226  0.0588
  750loPI   C5A10647  17.101   0.027   8.353 -0.2757 -0.1082  0.0589
  750loPI   C6A10648  16.984  -0.365   8.487  0.0278 -0.2015  0.1101
  750loPI   C1B10649  17.898   0.012   6.434 -0.0467 -0.0710  0.3794
  750loPI   C2B10650  17.965  -0.119   6.832 -0.2032 -0.0589  0.2123
  750loPI   C3B10651  17.986  -0.036   7.298 -0.1040 -0.1186  0.2264
  750loPI   C4B10652  17.798  -0.188   7.597 -0.1106  0.5901 -0.0563
  751loPI    C110653   8.661   6.600   5.130 -0.0056 -0.0640 -0.0188
  751loPI    C210654   8.464   6.361   4.877  0.0099  0.0403 -0.1301
  751loPI    C310655   8.493   6.753   4.801  0.0045  0.0743  0.0397
  751loPI   PO410656   8.640   6.456   5.306 -0.0379 -0.2252 -0.0722
  751loPI   GL110657   8.439   6.400   5.597 -0.1068 -0.0613  0.0792
  751loPI   GL210658   8.182   6.554   5.629  0.1535 -0.1689  0.0845
  751loPI   C1A10659   8.424   6.100   5.885 -0.0970  0.0414 -0.2828
  751loPI   C2A10660   8.346   6.143   6.363 -0.1529 -0.0100  0.2509
  751loPI   C3A10661   8.546   5.898   6.722  0.1564 -0.1250 -0.0420
  751loPI   C4A10662   8.617   6.085   7.245  0.4611  0.1027  0.1477
  751loPI   C5A10663   8.750   5.928   7.529 -0.0286 -0.1190 -0.2445
  751loPI   C6A10664   8.802   5.834   8.016  0.0180  0.0146  0.0319
  751loPI   C1B10665   8.195   6.572   6.041  0.2480  0.0937  0.0219
  751loPI   C2B10666   8.070   6.567   6.453 -0.1266  0.1142  0.0456
  751loPI   C3B10667   8.089   6.619   6.854  0.0606 -0.0088  0.1543
  751loPI   C4B10668   8.279   6.602   7.258 -0.0959 -0.0141  0.0301
  752loPI    C110669  14.253   7.293   5.904 -0.1317 -0.1700  0.1751
  752loPI    C210670  13.995   7.598   5.904  0.0158 -0.0437  0.1364
  752loPI    C310671  14.169   7.485   5.563 -0.1343 -0.2544  0.1280
  752loPI   PO410672  14.468   7.317   6.148 -0.3143  0.0410  0.0608
  752loPI   GL110673  14.434   7.482   6.502  0.1518  0.0108 -0.4537
  752loPI   GL210674  14.357   7.776   6.652 -0.1056  0.1557  0.0274
  752loPI   C1A10675  14.375   7.348   6.887  0.2629  0.2532  0.1657
  752loPI   C2A10676  14.183   7.444   7.355 -0.0761 -0.3396  0.1219
  752loPI   C3A10677  14.170   7.475   7.781  0.1836 -0.2033  0.1627
  752loPI   C4A10678  14.164   7.576   8.196  0.0872  0.2555 -0.2320
  752loPI   C5A10679  14.277   7.448   8.728  0.1159 -0.0796 -0.0087
  752loPI   C6A10680  14.229   7.481   9.205 -0.0288 -0.2927 -0.1303
  752loPI   C1B10681  14.363   7.849   6.947 -0.0194 -0.3960  0.0290
  752loPI   C2B10682  14.349   7.871   7.393  0.1516 -0.1561  0.2952
  752loPI   C3B10683  14.657   8.160   7.765 -0.0372  0.4637  0.1016
  752loPI   C4B10684  15.044   8.347   7.981 -0.0421  0.1649  0.1191
  753loPI    C110685   9.019   7.264   5.369 -0.4212 -0.2021 -0.3441
  753loPI    C210686   9.332   7.093   5.189 -0.0144 -0.0792  0.2169
  753loPI    C310687   9.198   7.448   5.063  0.0529 -0.1435 -0.0421
  753loPI   PO410688   8.869   6.975   5.394 -0.0359  0.0502 -0.2724
  753loPI   GL110689   8.653   6.835   5.641  0.0043  0.0644  0.0746
  753loPI   GL210690   8.436   6.949   5.745  0.1800 -0.1679  0.1264
  753loPI   C1A10691   8.695   6.638   5.995 -0.0537 -0.2604 -0.0076
  753loPI   C2A10692   8.589   6.575   6.446 -0.1939  0.0234  0.1743
  753loPI   C3A10693   8.546   6.436   6.798 -0.1468 -0.2297  0.0606
  753loPI   C4A10694   8.231   6.184   6.979  0.0560  0.3323 -0.0019
  753loPI   C5A10695   7.794   6.169   7.157  0.0471 -0.2315 -0.1722
  753loPI   C6A10696   7.521   5.891   7.364 -0.0961  0.0018  0.2442
  753loPI   C1B10697   8.380   6.976   6.234 -0.2711 -0.0923 -0.0634
  753loPI   C2B10698   8.168   7.088   6.632 -0.2491  0.0163 -0.1066
  753loPI   C3B10699   8.260   7.106   7.071  0.2025  0.2696  0.0155
  753loPI   C4B10700   7.982   7.340   7.369 -0.0498 -0.0163  0.2424
  754loPI    C110701  16.530  13.556   5.413  0.0255 -0.0319  0.0918
  754loPI    C210702  16.168  13.442   5.288  0.0021  0.0965  0.0401
  754loPI    C310703  16.420  13.622   5.034  0.1345 -0.0667  0.0535
  754loPI   PO410704  16.451  13.633   5.617 -0.1175  0.1710 -0.2007
  754loPI   GL110705  16.464  13.545   6.064 -0.3142 -0.1451 -0.3858
  754loPI   GL210706  16.289  13.297   6.006 -0.0096  0.1053  0.1657
  754loPI   C1A10707  16.360  13.647   6.454  0.1381  0.1073  0.1692
  754loPI   C2A10708  16.513  13.706   6.922  0.1439  0.2449  0.0071
  754loPI   C3A10709  16.684  13.566   7.266  0.0913 -0.0392  0.0783
  754loPI   C4A10710  16.721  13.522   7.586  0.1412 -0.0509  0.1140
  754loPI   C5A10711  16.909  13.325   7.972  0.3572  0.2956 -0.3104
  754loPI   C6A10712  17.009  12.971   8.196 -0.0678  0.2685 -0.2236
  754loPI   C1B10713  16.020  13.225   6.323  0.0541  0.0760 -0.1237
  754loPI   C2B10714  15.986  12.921   6.772  0.0736  0.0096  0.0372
  754loPI   C3B10715  15.817  13.157   7.167 -0.0116 -0.0507 -0.2226
  754loPI   C4B10716  15.618  13.582   7.088 -0.0412  0.0810  0.0396
  755loPI    C110717   1.054  10.900   5.529 -0.1282  0.0739  0.1524
  755loPI    C210718   0.873  11.203   5.341  0.0408  0.1644  0.1329
  755loPI    C310719   0.725  10.832   5.312  0.1467  0.1512 -0.3014
  755loPI   PO410720   1.059  11.065   5.805  0.0696  0.2986 -0.3271
  755loPI   GL110721   0.846  11.267   6.207  0.1061  0.1172  0.2084
  755loPI   GL210722   1.159  11.126   6.351  0.0576 -0.0850  0.1702
  755loPI   C1A10723   0.628  11.568   6.543 -0.3550 -0.1814  0.0022
  755loPI   C2A10724   0.703  11.578   7.023 -0.1602 -0.0454 -0.1828
  755loPI   C3A10725   0.560  11.633   7.430  0.0388  0.1335 -0.0680
  755loPI   C4A10726   0.440  12.028   7.733  0.1496  0.0537  0.1285
  755loPI   C5A10727   0.415  12.340   7.996 -0.1703 -0.0674 -0.2658
  755loPI   C6A10728   0.331  12.646   8.237 -0.3307  0.1672 -0.0014
  755loPI   C1B10729   1.047  11.088   6.792  0.5266  0.1234  0.3526
  755loPI   C2B10730   1.017  11.147   7.242  0.0826  0.0068 -0.0830
  755loPI   C3B10731   0.966  11.244   7.636  0.1871 -0.0505  0.0697
  755loPI   C4B10732   0.957  11.651   7.794  0.2455 -0.0760  0.1709
  756loPI    C110733  16.299   5.937   6.048  0.4267  0.0419 -0.1917
  756loPI    C210734  16.153   6.273   6.208  0.0470 -0.2300  0.0484
  756loPI    C310735  16.520   6.270   6.050  0.1189  0.2522  0.1910
  756loPI   PO410736  16.285   5.781   6.259  0.0922  0.0132 -0.0898
  756loPI   GL110737  16.333   5.838   6.585 -0.2517 -0.1326  0.3646
  756loPI   GL210738  16.594   5.692   6.742 -0.0467  0.1562  0.5015
  756loPI   C1A10739  16.221   5.579   7.030 -0.1317  0.0691  0.1386
  756loPI   C2A10740  16.177   5.494   7.413  0.2634  0.0458  0.1542
  756loPI   C3A10741  16.166   5.373   7.780  0.0929  0.1458  0.2989
  756loPI   C4A10742  15.965   5.431   8.221 -0.2320  0.0442 -0.1921
  756loPI   C5A10743  15.943   5.716   8.581 -0.4070 -0.1495 -0.0129
  756loPI   C6A10744  15.677   5.624   8.989  0.1817 -0.4046  0.2198
  756loPI   C1B10745  16.723   5.476   7.142  0.2946  0.1155  0.3766
  756loPI   C2B10746  16.693   5.307   7.590  0.2300 -0.1267 -0.0178
  756loPI   C3B10747  16.555   5.238   8.060  0.0142 -0.0790 -0.0812
  756loPI   C4B10748  16.822   5.110   8.422 -0.0533  0.0360 -0.0871
  757loPI    C110749   1.116   8.624   5.359 -0.0707 -0.0132 -0.2368
  757loPI    C210750   1.365   8.936   5.360  0.2493 -0.2555  0.3392
  757loPI    C310751   1.484   8.586   5.208 -0.1018 -0.1174 -0.2874
  757loPI   PO410752   1.050   8.657   5.727 -0.0218 -0.0926  0.3180
  757loPI   GL110753   0.918   8.839   6.028 -0.4476 -0.2913  0.0904
  757loPI   GL210754   1.026   8.989   6.259 -0.1988 -0.0845  0.0677
  757loPI   C1A10755   0.619   8.773   6.450 -0.2367  0.1292  0.1686
  757loPI   C2A10756   0.665   8.890   6.890 -0.2667  0.2185  0.1026
  757loPI   C3A10757   0.787   9.100   7.228  0.0621  0.1543 -0.0772
  757loPI   C4A10758   0.682   9.195   7.589 -0.3736  0.0214 -0.1627
  757loPI   C5A10759   0.542   8.924   7.937  0.3024 -0.2334 -0.1879
  757loPI   C6A10760   0.367   8.826   8.334 -0.2398  0.2655 -0.2377
  757loPI   C1B10761   0.982   9.282   6.683  0.0972 -0.1282  0.1664
  757loPI   C2B10762   0.984   9.632   6.930 -0.1208  0.0014  0.0301
  757loPI   C3B10763   1.197   9.661   7.239 -0.0923 -0.3272  0.0123
  757loPI   C4B10764   1.093   9.470   7.541  0.0056 -0.0117  0.1463
  758loPI    C110765   4.849   9.418   5.456 -0.1311 -0.0774  0.1191
  758loPI    C210766   4.592   9.643   5.249 -0.0580 -0.0143  0.0962
  758loPI    C310767   4.973   9.759   5.286 -0.0112 -0.1527  0.0542
  758loPI   PO410768   4.683   9.319   5.615  0.1507  0.2938  0.0258
  758loPI   GL110769   4.694   9.209   6.067  0.3061 -0.0775  0.1509
  758loPI   GL210770   5.004   9.261   5.981  0.0583  0.1238  0.2656
  758loPI   C1A10771   4.779   9.131   6.472  0.1741 -0.3076  0.0124
  758loPI   C2A10772   4.609   8.944   6.809 -0.3456  0.0461 -0.2250
  758loPI   C3A10773   4.882   9.022   7.166  0.0501  0.1828  0.1603
  758loPI   C4A10774   4.981   8.963   7.621  0.3108 -0.0771  0.1225
  758loPI   C5A10775   4.989   9.302   7.900 -0.1831  0.1951 -0.1951
  758loPI   C6A10776   5.050   9.718   8.133  0.0354  0.0062  0.1908
  758loPI   C1B10777   5.191   9.394   6.389  0.0444  0.0373 -0.0382
  758loPI   C2B10778   5.314   9.826   6.533  0.0848  0.1877 -0.0531
  758loPI   C3B10779   5.452  10.256   6.499  0.0678 -0.2680  0.4342
  758loPI   C4B10780   5.616  10.686   6.457 -0.2725 -0.0219  0.0328
  759loPI    C110781   6.108   9.263   5.219 -0.1324 -0.3149 -0.0319
  759loPI    C210782   5.895   9.341   5.549 -0.0744 -0.0357 -0.0577
  759loPI    C310783   5.734   9.125   5.253 -0.3415  0.2116 -0.0979
  759loPI   PO410784   6.191   9.455   5.211 -0.0748 -0.1702  0.4631
  759loPI   GL110785   6.511   9.556   5.441  0.2424 -0.1128 -0.1064
  759loPI   GL210786   6.321   9.586   5.712  0.1034  0.3837 -0.1534
  759loPI   C1A10787   6.809   9.735   5.827  0.0740  0.1176 -0.0835
  759loPI   C2A10788   6.702   9.688   6.299  0.0747  0.1105 -0.0043
  759loPI   C3A10789   6.737   9.724   6.686  0.0676  0.1921 -0.2405
  759loPI   C4A10790   6.657   9.734   6.927  0.0091  0.0979  0.0252
  759loPI   C5A10791   6.433   9.527   7.310  0.2116  0.1917 -0.0009
  759loPI   C6A10792   6.397   9.375   7.835  0.1056 -0.2025  0.3465
  759loPI   C1B10793   6.582   9.261   6.008  0.0976 -0.2229 -0.1628
  759loPI   C2B10794   6.607   9.220   6.464  0.0982  0.1700  0.2803
  759loPI   C3B10795   6.640   9.260   6.792  0.0542  0.2521  0.1479
  759loPI   C4B10796   6.800   9.046   7.116 -0.0145  0.1563  0.1618
  760loPI    C110797   6.038   6.036   5.289 -0.0907  0.2375  0.2167
  760loPI    C210798   6.330   6.108   5.026  0.0010  0.1464  0.2931
  760loPI    C310799   6.015   6.353   5.045 -0.1040  0.0436 -0.0387
  760loPI   PO410800   6.166   5.985   5.568  0.0821 -0.1745 -0.1312
  760loPI   GL110801   6.359   5.692   5.909  0.1842 -0.0938  0.2149
  760loPI   GL210802   6.683   5.549   5.801  0.2165 -0.0947  0.2909
  760loPI   C1A10803   6.575   5.607   6.261  0.0204 -0.1057  0.2275
  760loPI   C2A10804   6.684   5.571   6.797 -0.0558 -0.1248 -0.0125
  760loPI   C3A10805   6.643   5.864   7.161  0.1222  0.0409 -0.0252
  760loPI   C4A10806   6.851   6.198   7.395  0.0652 -0.0100  0.0976
  760loPI   C5A10807   7.198   6.214   7.798 -0.3211 -0.0364 -0.0546
  760loPI   C6A10808   7.188   6.111   8.196 -0.2476 -0.0525  0.2044
  760loPI   C1B10809   7.019   5.587   6.125  0.4163 -0.1282  0.0606
  760loPI   C2B10810   7.040   5.513   6.505 -0.1315 -0.1377  0.0780
  760loPI   C3B10811   7.316   5.499   6.897  0.0391  0.3667 -0.1805
  760loPI   C4B10812   7.154   5.518   7.323 -0.3571  0.0661 -0.1812
  761loPI    C110813  15.320  14.979   5.696 -0.1155  0.0908  0.0096
  761loPI    C210814  15.316  14.727   5.385 -0.1525  0.1927 -0.0727
  761loPI    C310815  15.626  14.975   5.438 -0.1590  0.1946 -0.0442
  761loPI   PO410816  15.246  14.838   5.916  0.0112  0.3774  0.0995
  761loPI   GL110817  15.316  14.765   6.239 -0.0757 -0.1807 -0.1108
  761loPI   GL210818  15.027  14.840   6.395  0.0285 -0.0649  0.1481
  761loPI   C1A10819  15.524  14.666   6.648 -0.0170  0.0988 -0.1516
  761loPI   C2A10820  15.462  14.772   7.109 -0.1495 -0.0951 -0.2658
  761loPI   C3A10821  15.635  14.995   7.504 -0.1090  0.1760 -0.0028
  761loPI   C4A10822  15.916  15.188   7.856 -0.3553  0.1415 -0.1884
  761loPI   C5A10823  15.810  15.572   8.190  0.1168 -0.1306 -0.0483
  761loPI   C6A10824  15.601  15.380   8.473 -0.0887 -0.2893  0.1124
  761loPI   C1B10825  14.995  14.990   6.879  0.2623 -0.1335  0.1036
  761loPI   C2B10826  15.030  14.965   7.245 -0.2146  0.0207  0.0525
  761loPI   C3B10827  15.169  14.728   7.610  0.1124  0.2578 -0.0178
  761loPI   C4B10828  15.047  14.643   8.068 -0.2188 -0.1726 -0.2459
  762loPI    C110829   9.797  18.176   4.932 -0.1310 -0.0039  0.0480
  762loPI    C210830   9.444  18.364   4.939 -0.0705  0.1103  0.0471
  762loPI    C310831   9.765  18.547   4.785  0.0067  0.0375  0.1205
  762loPI   PO410832   9.861  18.133   5.260  0.1528  0.1052  0.1631
  762loPI   GL110833  10.061  18.234   5.612 -0.0282  0.2179 -0.1219
  762loPI   GL210834   9.939  18.510   5.703  0.2510  0.0589  0.1508
  762loPI   C1A10835  10.107  18.195   5.996 -0.2263  0.0096 -0.2340
  762loPI   C2A10836  10.089  18.138   6.421 -0.0267 -0.0940  0.2706
  762loPI   C3A10837  10.111  17.892   6.773  0.0038  0.3304 -0.3610
  762loPI   C4A10838  10.056  17.815   7.182 -0.0057 -0.0543 -0.1099
  762loPI   C5A10839   9.905  17.876   7.600 -0.1971  0.1165 -0.0579
  762loPI   C6A10840  10.064  17.793   7.923  0.0624 -0.0598 -0.3626
  762loPI   C1B10841   9.883  18.610   6.132  0.2068 -0.0260 -0.0753
  762loPI   C2B10842   9.787  18.552   6.550  0.1197 -0.0271  0.3095
  762loPI   C3B10843   9.921  18.426   6.943 -0.0991 -0.2442 -0.0508
  762loPI   C4B10844  10.092  18.485   7.461 -0.1959 -0.0926 -0.0387
  763loPI    C110845   5.600   1.368   5.144 -0.2437  0.0963 -0.1645
  763loPI    C210846   5.283   1.129   5.097 -0.0115 -0.2111 -0.1984
  763loPI    C310847   5.459   1.292   4.777 -0.1405 -0.0294 -0.1786
  763loPI   PO410848   5.638   1.209   5.406  0.1923  0.0262 -0.2275
  763loPI   GL110849   5.657   0.943   5.843 -0.0752  0.2501  0.1316
  763loPI   GL210850   5.595   0.675   5.779 -0.0388 -0.0856 -0.2905
  763loPI   C1A10851   5.671   0.975   6.260 -0.4655 -0.2338 -0.0501
  763loPI   C2A10852   5.629   0.977   6.742 -0.0276 -0.0461 -0.0095
  763loPI   C3A10853   5.507   0.939   7.233 -0.0914  0.1462 -0.0252
  763loPI   C4A10854   5.174   0.818   7.514 -0.3094 -0.3775 -0.0970
  763loPI   C5A10855   5.214   0.512   7.886  0.1471  0.0424 -0.0522
  763loPI   C6A10856   4.947   0.404   8.236  0.0710 -0.0756  0.2860
  763loPI   C1B10857   5.515   0.475   6.067 -0.2729 -0.2617 -0.2673
  763loPI   C2B10858   5.537   0.564   6.424  0.1036 -0.0061 -0.0394
  763loPI   C3B10859   5.435   0.517   6.871  0.3848 -0.3051 -0.2320
  763loPI   C4B10860   5.319   0.424   7.257  0.2384 -0.0749  0.3825
  764loPI    C110861  13.216  14.742   5.705 -0.0622 -0.0035  0.0783
  764loPI    C210862  13.387  15.059   5.878  0.2418  0.0199 -0.2543
  764loPI    C310863  13.068  15.108   5.642 -0.0928  0.0023  0.1833
  764loPI   PO410864  13.252  14.560   5.891  0.0171  0.0429  0.1036
  764loPI   GL110865  13.053  14.531   6.222  0.1489 -0.0411  0.3706
  764loPI   GL210866  12.764  14.676   6.374 -0.0813 -0.0283  0.0395
  764loPI   C1A10867  13.301  14.574   6.603 -0.1062  0.0702 -0.1532
  764loPI   C2A10868  13.437  14.726   6.987 -0.0343  0.1776  0.0477
  764loPI   C3A10869  13.246  14.703   7.218  0.0542 -0.1603 -0.0096
  764loPI   C4A10870  13.182  14.884   7.578 -0.0850  0.4898 -0.0165
  764loPI   C5A10871  13.020  15.202   7.771  0.0690 -0.1656  0.1756
  764loPI   C6A10872  12.830  15.515   8.011  0.0530  0.1837 -0.1008
  764loPI   C1B10873  12.594  14.893   6.721 -0.0402  0.2107  0.1326
  764loPI   C2B10874  12.446  14.888   7.155  0.3833  0.0069 -0.2766
  764loPI   C3B10875  12.199  15.050   7.422 -0.2102 -0.3165 -0.3553
  764loPI   C4B10876  11.765  15.228   7.459 -0.0919 -0.0418  0.1977
  765loPI    C110877   5.455   1.836   5.045  0.1942 -0.0567 -0.0561
  765loPI    C210878   5.766   1.731   4.816  0.0948  0.1839 -0.3073
  765loPI    C310879   5.486   1.978   4.672 -0.2342 -0.0577 -0.0972
  765loPI   PO410880   5.571   1.827   5.280 -0.2523  0.1217  0.2022
  765loPI   GL110881   5.805   1.695   5.563  0.0700 -0.1743 -0.3222
  765loPI   GL210882   5.575   1.522   5.766  0.0773  0.0838 -0.1417
  765loPI   C1A10883   5.761   1.924   6.007 -0.1275  0.1454 -0.1983
  765loPI   C2A10884   5.718   1.993   6.371 -0.3593  0.3620 -0.0234
  765loPI   C3A10885   5.706   1.959   6.796  0.2198 -0.2547  0.2419
  765loPI   C4A10886   5.749   1.989   7.208  0.1442  0.0196  0.3207
  765loPI   C5A10887   5.581   2.087   7.709  0.0500 -0.2131  0.1495
  765loPI   C6A10888   5.652   2.462   7.934  0.0038 -0.0814  0.1387
  765loPI   C1B10889   5.473   1.487   6.214 -0.0430 -0.0514  0.0007
  765loPI   C2B10890   5.452   1.487   6.652  0.0588 -0.0361  0.1098
  765loPI   C3B10891   5.341   1.368   7.004  0.0290 -0.0069 -0.1368
  765loPI   C4B10892   5.143   1.377   7.417  0.1515  0.1240  0.1684
  766loPI    C110893   5.108  14.352   5.202  0.1056  0.0381 -0.0834
  766loPI    C210894   5.341  14.308   4.879  0.1847  0.0570 -0.0293
  766loPI    C310895   5.006  14.092   4.916  0.1896  0.0353 -0.1111
  766loPI   PO410896   5.146  14.255   5.466 -0.4916 -0.2097 -0.1889
  766loPI   GL110897   5.393  13.962   5.671  0.0067 -0.2428  0.1273
  766loPI   GL210898   5.190  13.804   5.831 -0.1854 -0.1626 -0.2753
  766loPI   C1A10899   5.640  13.834   5.983 -0.3133  0.0053  0.0309
  766loPI   C2A10900   5.659  13.757   6.448 -0.0351 -0.2313  0.1573
  766loPI   C3A10901   5.558  13.859   6.807 -0.1896  0.1012  0.0740
  766loPI   C4A10902   5.536  13.797   7.234 -0.4226 -0.0067  0.2063
  766loPI   C5A10903   5.627  14.004   7.507  0.0392 -0.0589 -0.2579
  766loPI   C6A10904   5.326  13.839   7.907  0.0693  0.4524 -0.0696
  766loPI   C1B10905   5.123  13.764   6.286  0.1427  0.3465  0.1554
  766loPI   C2B10906   5.057  13.979   6.789 -0.1755  0.1157 -0.2871
  766loPI   C3B10907   5.100  14.045   7.134  0.5547 -0.1096  0.0730
  766loPI   C4B10908   5.105  14.190   7.591  0.2730 -0.3695  0.0769
  767loPI    C110909   5.644   6.336   5.401  0.0745 -0.1449  0.0748
  767loPI    C210910   5.754   6.146   5.736 -0.0931 -0.1915  0.1047
  767loPI    C310911   5.367   6.181   5.644 -0.0607  0.0701  0.0597
  767loPI   PO410912   5.833   6.630   5.446  0.2527  0.0248  0.0214
  767loPI   GL110913   5.986   6.831   5.836  0.3607  0.0561  0.2385
  767loPI   GL210914   6.151   6.571   5.945 -0.0620  0.1948  0.0040
  767loPI   C1A10915   5.982   7.040   6.192  0.1830  0.1751 -0.1125
  767loPI   C2A10916   5.880   7.024   6.550  0.0634  0.0409  0.2552
  767loPI   C3A10917   5.826   6.972   6.941 -0.2240 -0.0861  0.0163
  767loPI   C4A10918   6.102   6.946   7.372  0.1272  0.0593 -0.2032
  767loPI   C5A10919   6.158   6.633   7.734  0.4402  0.0869  0.2642
  767loPI   C6A10920   6.468   6.533   8.131  0.2285  0.0079 -0.1542
  767loPI   C1B10921   6.023   6.521   6.307  0.2107  0.2916  0.0447
  767loPI   C2B10922   5.945   6.445   6.681 -0.0800  0.0112 -0.1751
  767loPI   C3B10923   5.746   6.472   7.102 -0.3227 -0.2571  0.2517
  767loPI   C4B10924   5.495   6.699   7.421 -0.2798 -0.0954 -0.0105
  768loPI    C110925   4.339   7.208   5.518  0.1721  0.0853  0.1558
  768loPI    C210926   4.624   7.470   5.620  0.2670  0.0085  0.0894
  768loPI    C310927   4.693   7.201   5.333  0.1068  0.0271  0.0323
  768loPI   PO410928   4.278   7.059   5.804  0.2149  0.0923  0.1195
  768loPI   GL110929   4.435   7.077   6.190 -0.2175 -0.0455  0.0954
  768loPI   GL210930   4.216   7.289   6.322 -0.3237  0.0226  0.0061
  768loPI   C1A10931   4.737   6.997   6.444  0.3540 -0.0601 -0.1954
  768loPI   C2A10932   4.780   6.878   6.881 -0.0536 -0.3621  0.0328
  768loPI   C3A10933   4.841   7.026   7.185 -0.1326 -0.0201 -0.2675
  768loPI   C4A10934   5.119   7.140   7.486 -0.0426 -0.0401  0.1465
  768loPI   C5A10935   5.288   7.397   7.816  0.2671  0.1390  0.0381
  768loPI   C6A10936   5.134   7.535   8.173  0.0717 -0.0115 -0.0254
  768loPI   C1B10937   4.311   7.183   6.786 -0.1876  0.1112 -0.0121
  768loPI   C2B10938   4.352   7.009   7.211 -0.3316  0.1069 -0.0833
  768loPI   C3B10939   4.095   7.136   7.534  0.2577 -0.2129 -0.3106
  768loPI   C4B10940   3.680   7.266   7.744  0.0462  0.0508  0.1579
  769loPI    C110941   4.316   1.454   5.176  0.0692  0.0279 -0.0994
  769loPI    C210942   4.382   1.687   5.495  0.1683 -0.0387 -0.0710
  769loPI    C310943   4.622   1.712   5.176 -0.1968  0.3521 -0.3252
  769loPI   PO410944   4.038   1.453   5.199  0.1591 -0.0049  0.1132
  769loPI   GL110945   3.931   1.418   5.606 -0.0408 -0.0188  0.3895
  769loPI   GL210946   4.164   1.218   5.640  0.3576 -0.0092  0.1444
  769loPI   C1A10947   4.149   1.672   5.950  0.2220 -0.1255  0.0426
  769loPI   C2A10948   4.007   1.699   6.471  0.0683 -0.4533  0.1346
  769loPI   C3A10949   4.314   1.591   6.839  0.1601 -0.1484 -0.0111
  769loPI   C4A10950   4.358   1.582   7.344 -0.1071 -0.0816  0.0914
  769loPI   C5A10951   4.675   1.672   7.660  0.1305  0.1597 -0.0285
  769loPI   C6A10952   4.951   1.617   7.975  0.1472  0.0027 -0.1596
  769loPI   C1B10953   4.119   1.156   6.013 -0.2158  0.0691 -0.1655
  769loPI   C2B10954   3.764   1.316   6.097 -0.1971 -0.1689 -0.2957
  769loPI   C3B10955   3.441   1.542   6.326  0.1079 -0.1348 -0.1295
  769loPI   C4B10956   3.209   1.865   6.611  0.0762 -0.3273  0.2386
  770loPI    C110957  16.038   7.541   6.073  0.1484  0.1008  0.0482
  770loPI    C210958  16.182   7.485   5.704 -0.0270  0.1836 -0.0337
  770loPI    C310959  16.414   7.648   5.986  0.0872  0.1794 -0.1245
  770loPI   PO410960  15.783   7.499   6.053 -0.5851  0.0561  0.3187
  770loPI   GL110961  15.510   7.321   6.405  0.2057  0.1222  0.0590
  770loPI   GL210962  15.876   7.201   6.494  0.0428  0.1808 -0.1888
  770loPI   C1A10963  15.601   7.500   6.792 -0.4196  0.3098 -0.0492
  770loPI   C2A10964  15.677   7.427   7.211 -0.2052  0.2119  0.1140
  770loPI   C3A10965  15.752   7.301   7.522  0.1649 -0.4212  0.2183
  770loPI   C4A10966  15.512   7.487   7.951  0.0050  0.1147  0.2645
  770loPI   C5A10967  15.419   7.289   8.389  0.1288  0.0115 -0.1011
  770loPI   C6A10968  15.189   6.975   8.606 -0.0429  0.0378 -0.1674
  770loPI   C1B10969  15.994   7.137   6.947 -0.2274 -0.6393  0.2293
  770loPI   C2B10970  16.165   6.978   7.294  0.0239  0.2702 -0.2803
  770loPI   C3B10971  16.092   6.848   7.770  0.0403 -0.1009  0.1574
  770loPI   C4B10972  16.081   6.793   8.231 -0.2059  0.0454 -0.0818
  771loPI    C110973  15.774   0.377   5.287  0.2095  0.1024  0.0517
  771loPI    C210974  16.045   0.100   5.187  0.1809  0.1135 -0.0582
  771loPI    C310975  16.108   0.484   5.094  0.1526  0.1234 -0.0361
  771loPI   PO410976  15.630   0.208   5.542  0.0497 -0.2040  0.2853
  771loPI   GL110977  15.691   0.025   5.973 -0.0010  0.0462  0.0789
  771loPI   GL210978  15.399   0.122   6.113  0.0031 -0.1699 -0.3514
  771loPI   C1A10979  15.609  -0.137   6.461 -0.0965  0.2270 -0.1874
  771loPI   C2A10980  15.559  -0.331   6.788 -0.0234  0.0199  0.0722
  771loPI   C3A10981  15.465  -0.244   7.189  0.1091  0.1693 -0.3165
  771loPI   C4A10982  15.574  -0.154   7.612  0.3188  0.0527  0.0817
  771loPI   C5A10983  15.509  -0.417   7.934 -0.4012 -0.2885 -0.0861
  771loPI   C6A10984  15.400  -0.724   8.275  0.1970 -0.2064  0.1267
  771loPI   C1B10985  15.346   0.312   6.566 -0.0189  0.2333 -0.1094
  771loPI   C2B10986  15.412   0.227   6.989  0.1124 -0.0089  0.2591
  771loPI   C3B10987  15.294   0.202   7.401 -0.1310  0.3054  0.2549
  771loPI   C4B10988  15.176   0.133   7.889 -0.4049  0.0378 -0.0515
  772loPI    C110989  15.033   1.608   5.554 -0.0728 -0.2099 -0.1677
  772loPI    C210990  15.129   1.630   5.166 -0.1739 -0.2034 -0.1924
  772loPI    C310991  14.745   1.618   5.277 -0.1451 -0.2127 -0.0928
  772loPI   PO410992  15.301   1.681   5.686  0.3432  0.3854  0.2235
  772loPI   GL110993  15.381   1.474   6.013  0.3650  0.3057  0.0325
  772loPI   GL210994  15.499   1.151   6.117 -0.4005 -0.0376  0.1418
  772loPI   C1A10995  15.309   1.682   6.378  0.0595  0.0162 -0.1591
  772loPI   C2A10996  15.292   1.739   6.737 -0.0555 -0.0383  0.1459
  772loPI   C3A10997  15.243   1.725   7.121 -0.0978 -0.2598  0.1583
  772loPI   C4A10998  15.183   1.542   7.602 -0.0104  0.1444  0.0645
  772loPI   C5A10999  15.272   1.606   8.027 -0.0480  0.1350  0.1718
  772loPI   C6A11000  15.333   1.752   8.373  0.1432 -0.2460 -0.0452
  772loPI   C1B11001  15.164   1.131   6.326 -0.1920  0.2361  0.0934
  772loPI   C2B11002  14.990   1.168   6.800  0.3018 -0.2839 -0.0596
  772loPI   C3B11003  14.996   1.185   7.313  0.1251  0.1563 -0.0586
  772loPI   C4B11004  15.031   1.058   7.758  0.0613 -0.1999 -0.2132
  773loPI    C111005   8.044  15.382   5.469  0.0999 -0.0895  0.1405
  773loPI    C211006   8.197  15.305   5.108  0.0074  0.0035  0.0807
  773loPI    C311007   7.937  15.050   5.273 -0.2163  0.1311 -0.0702
  773loPI   PO411008   8.292  15.471   5.688  0.2603 -0.0178 -0.0302
  773loPI   GL111009   8.595  15.326   6.020  0.1657  0.1443 -0.0010
  773loPI   GL211010   8.629  15.019   6.189 -0.1398 -0.1570  0.1767
  773loPI   C1A11011   8.739  15.470   6.346  0.1196  0.1387 -0.2507
  773loPI   C2A11012   8.835  15.543   6.689  0.2058  0.0071  0.1261
  773loPI   C3A11013   8.856  15.789   7.014  0.2529  0.1430  0.3249
  773loPI   C4A11014   8.866  15.667   7.361 -0.2070 -0.2468 -0.1615
  773loPI   C5A11015   8.677  15.419   7.702  0.1666 -0.3196 -0.1113
  773loPI   C6A11016   8.856  15.266   8.091 -0.0761  0.0053 -0.2463
  773loPI   C1B11017   8.610  14.840   6.613  0.1498  0.0093  0.0043
  773loPI   C2B11018   8.634  14.722   7.033  0.3223  0.2494  0.1397
  773loPI   C3B11019   8.484  14.523   7.427 -0.0580  0.1607 -0.0623
  773loPI   C4B11020   8.575  14.644   7.805  0.0172  0.0378 -0.1808
  774loPI    C111021   0.661   1.452   5.569  0.2216  0.0453 -0.0149
  774loPI    C211022   0.965   1.508   5.315  0.0559 -0.0631 -0.2411
  774loPI    C311023   0.612   1.379   5.179 -0.0531 -0.0673  0.0383
  774loPI   PO411024   0.807   1.374   5.826  0.2376 -0.1321 -0.0250
  774loPI   GL111025   1.053   1.341   6.235 -0.0321 -0.2886  0.0805
  774loPI   GL211026   1.348   1.471   6.061  0.0355 -0.1420  0.0704
  774loPI   C1A11027   1.338   1.094   6.562  0.1096 -0.0475 -0.0186
  774loPI   C2A11028   1.455   1.073   7.004 -0.2860  0.1641  0.2043
  774loPI   C3A11029   1.664   0.889   7.281  0.0772 -0.2258  0.0994
  774loPI   C4A11030   1.738   0.846   7.705 -0.0993 -0.0725  0.0933
  774loPI   C5A11031   2.150   0.974   7.760  0.0860  0.1250 -0.0370
  774loPI   C6A11032   2.441   1.071   8.039  0.2422 -0.1641  0.1355
  774loPI   C1B11033   1.645   1.530   6.413  0.0851  0.0369  0.0041
  774loPI   C2B11034   1.636   1.497   6.826 -0.1663  0.3641 -0.0391
  774loPI   C3B11035   1.728   1.465   7.209  0.0480 -0.2712 -0.3081
  774loPI   C4B11036   1.955   1.287   7.448 -0.2998  0.2518  0.0853
  775loPI    C111037  12.322   3.733   5.231  0.1956  0.1036 -0.1858
  775loPI    C211038  12.549   3.531   4.970 -0.1073 -0.1563 -0.2550
  775loPI    C311039  12.159   3.581   4.898 -0.1148  0.1156 -0.0420
  775loPI   PO411040  12.196   3.631   5.441  0.0391  0.2874  0.2223
  775loPI   GL111041  12.274   3.324   5.703 -0.1134 -0.1287  0.5609
  775loPI   GL211042  11.963   3.213   5.635  0.0703  0.0686 -0.1606
  775loPI   C1A11043  12.402   3.325   6.115 -0.2444 -0.0672  0.1293
  775loPI   C2A11044  12.495   3.627   6.420  0.2770  0.0463 -0.1446
  775loPI   C3A11045  12.421   3.706   6.849  0.0858 -0.0480  0.0541
  775loPI   C4A11046  12.378   3.722   7.281  0.0392 -0.0540  0.2099
  775loPI   C5A11047  12.504   3.659   7.764  0.0786 -0.4007  0.2062
  775loPI   C6A11048  12.755   3.338   7.929  0.1113  0.1513  0.0450
  775loPI   C1B11049  11.859   3.299   6.103 -0.2174 -0.4716  0.1574
  775loPI   C2B11050  12.025   3.301   6.568  0.3614 -0.0459 -0.0212
  775loPI   C3B11051  11.984   3.357   7.058 -0.0049 -0.2523 -0.1326
  775loPI   C4B11052  12.066   3.412   7.525 -0.0159  0.0153  0.1744
  776loPI    C111053  12.118   9.693   5.839 -0.0606 -0.1216 -0.0702
  776loPI    C211054  11.971   9.593   5.481  0.0330 -0.0823 -0.1198
  776loPI    C311055  12.127   9.957   5.539 -0.1250 -0.0333  0.0049
  776loPI   PO411056  12.322   9.494   5.914  0.2588  0.0186  0.3694
  776loPI   GL111057  12.556   9.623   6.288  0.0461 -0.1353  0.0950
  776loPI   GL211058  12.485   9.231   6.283 -0.2704  0.0175  0.1869
  776loPI   C1A11059  12.474   9.617   6.819 -0.0093 -0.2834  0.0037
  776loPI   C2A11060  12.346   9.458   7.193 -0.1700  0.2485  0.0178
  776loPI   C3A11061  12.101   9.256   7.470 -0.0183  0.1553  0.1130
  776loPI   C4A11062  11.746   9.118   7.697  0.2278 -0.5118 -0.1052
  776loPI   C5A11063  11.392   8.978   7.991  0.1007  0.2575 -0.0583
  776loPI   C6A11064  11.100   8.684   8.120  0.1072 -0.0616 -0.3524
  776loPI   C1B11065  12.789   9.329   6.651  0.3396 -0.1990 -0.1390
  776loPI   C2B11066  12.887   9.316   6.971  0.0550 -0.2365 -0.2069
  776loPI   C3B11067  13.117   9.270   7.252  0.0675  0.0387  0.0379
  776loPI   C4B11068  13.143   8.945   7.659 -0.0636 -0.4109  0.2323
  777loPI    C111069   0.756  15.778   5.527 -0.0208 -0.0264  0.1123
  777loPI    C211070   0.928  16.077   5.324  0.0432 -0.0874  0.0762
  777loPI    C311071   1.110  15.722   5.350 -0.0936 -0.1633  0.0082
  777loPI   PO411072   0.648  15.902   5.795 -0.2279 -0.3262  0.0980
  777loPI   GL111073   0.605  15.701   6.304 -0.1918  0.0374  0.0406
  777loPI   GL211074   0.887  15.853   6.229 -0.3206 -0.0596 -0.2435
  777loPI   C1A11075   0.667  15.699   6.783 -0.0750 -0.0769 -0.0813
  777loPI   C2A11076   0.656  15.574   7.182 -0.5944 -0.2766 -0.2145
  777loPI   C3A11077   0.833  15.739   7.573 -0.0644  0.3014  0.1696
  777loPI   C4A11078   1.126  15.810   8.019  0.2246  0.1164  0.0060
  777loPI   C5A11079   1.332  16.128   8.054 -0.0504 -0.2297 -0.0891
  777loPI   C6A11080   1.604  16.443   7.829  0.0821 -0.0895  0.1934
  777loPI   C1B11081   1.133  15.814   6.538 -0.0459  0.3114 -0.0389
  777loPI   C2B11082   1.197  15.825   7.032 -0.0420 -0.0774 -0.1062
  777loPI   C3B11083   1.287  15.857   7.405  0.2702  0.3402  0.2587
  777loPI   C4B11084   1.596  15.674   7.721  0.0425 -0.3936 -0.0545
  778loPI    C111085   8.186   1.325   5.118  0.1967  0.1077  0.1808
  778loPI    C211086   7.999   1.566   4.860  0.2280  0.0064  0.0629
  778loPI    C311087   8.296   1.330   4.734  0.2085 -0.0819  0.1808
  778loPI   PO411088   8.076   1.236   5.237  0.0345 -0.2565 -0.0783
  778loPI   GL111089   7.906   1.012   5.540  0.5060  0.0134 -0.0093
  778loPI   GL211090   8.160   0.939   5.692 -0.3304 -0.2393 -0.1012
  778loPI   C1A11091   7.786   1.077   6.037 -0.3565 -0.1354 -0.1897
  778loPI   C2A11092   7.749   1.179   6.475 -0.1899  0.1000  0.0353
  778loPI   C3A11093   7.647   1.118   6.895 -0.2450 -0.1340 -0.1232
  778loPI   C4A11094   7.534   0.974   7.222  0.0934  0.2222  0.0911
  778loPI   C5A11095   7.090   0.895   7.442 -0.3451  0.3264 -0.0765
  778loPI   C6A11096   6.884   1.004   7.864  0.0816 -0.1316  0.4760
  778loPI   C1B11097   8.267   0.835   6.096  0.0977  0.0740 -0.4457
  778loPI   C2B11098   8.469   0.720   6.488  0.1375 -0.0708  0.0902
  778loPI   C3B11099   8.505   0.790   6.920 -0.0021  0.1089 -0.1355
  778loPI   C4B11100   8.345   0.891   7.344  0.2050 -0.0020  0.1380
  779loPI    C111101  16.840   8.064   5.737  0.1390  0.0305 -0.1212
  779loPI    C211102  17.132   8.320   5.830  0.2999 -0.2272  0.0966
  779loPI    C311103  17.133   8.138   5.474  0.1604  0.1031 -0.0773
  779loPI   PO411104  16.750   8.056   6.049  0.3001 -0.3738  0.2715
  779loPI   GL111105  16.916   8.028   6.445  0.0616  0.0905 -0.0222
  779loPI   GL211106  16.875   8.228   6.685 -0.1584  0.2602 -0.0140
  779loPI   C1A11107  16.676   7.811   6.797 -0.0417 -0.0264 -0.4289
  779loPI   C2A11108  16.420   7.666   7.086  0.1700  0.2397  0.0078
  779loPI   C3A11109  16.206   7.548   7.354  0.1020 -0.3925  0.0076
  779loPI   C4A11110  16.302   7.347   7.752  0.1030  0.1076 -0.0105
  779loPI   C5A11111  16.444   7.167   8.095  0.2034 -0.0778  0.1138
  779loPI   C6A11112  16.806   6.962   8.304 -0.2211 -0.2926 -0.2651
  779loPI   C1B11113  16.337   8.269   6.762 -0.0057  0.0680  0.0663
  779loPI   C2B11114  16.286   8.173   7.250  0.0510 -0.2260 -0.0900
  779loPI   C3B11115  16.008   8.249   7.578  0.3151 -0.1501 -0.3567
  779loPI   C4B11116  15.641   8.248   7.776 -0.0993  0.0283 -0.1546
  780loPI    C111117   8.200   5.329   5.236  0.0314 -0.2356 -0.0414
  780loPI    C211118   8.244   5.590   4.936  0.0384 -0.1196  0.0596
  780loPI    C311119   7.979   5.292   4.904 -0.1512  0.0481  0.0445
  780loPI   PO411120   8.267   5.561   5.419 -0.0137 -0.3859  0.0333
  780loPI   GL111121   8.198   5.559   5.797  0.2122  0.1731  0.2848
  780loPI   GL211122   8.004   5.528   6.095  0.1048 -0.2003  0.1422
  780loPI   C1A11123   8.453   5.647   6.221 -0.1625 -0.3482 -0.0952
  780loPI   C2A11124   8.790   5.517   6.521  0.0639  0.1611  0.2123
  780loPI   C3A11125   8.884   5.253   6.816 -0.1136 -0.1595 -0.1957
  780loPI   C4A11126   9.005   5.098   7.271  0.0224  0.1344 -0.1683
  780loPI   C5A11127   9.174   5.106   7.665  0.0082 -0.0466  0.0243
  780loPI   C6A11128   9.591   5.136   7.845 -0.4113  0.4443  0.0139
  780loPI   C1B11129   7.997   5.746   6.489  0.1897 -0.0705 -0.0479
  780loPI   C2B11130   7.885   5.669   6.899  0.0308 -0.0550  0.1346
  780loPI   C3B11131   7.873   5.556   7.331 -0.0452 -0.1153 -0.2694
  780loPI   C4B11132   7.721   5.694   7.780 -0.0171 -0.3502  0.0838
  781loPI    C111133   2.347  11.424   6.002  0.0248 -0.1156  0.1345
  781loPI    C211134   2.365  11.767   6.206 -0.1120 -0.0726  0.0760
  781loPI    C311135   2.196  11.759   5.843  0.1904 -0.1345 -0.0671
  781loPI   PO411136   2.577  11.351   5.953 -0.0384 -0.1867 -0.0645
  781loPI   GL111137   3.001  11.287   6.137 -0.0173 -0.1077  0.0058
  781loPI   GL211138   2.827  11.502   6.319 -0.1883 -0.0863 -0.0000
  781loPI   C1A11139   3.176  11.213   6.459  0.0261  0.1785  0.3036
  781loPI   C2A11140   3.357  11.099   6.888 -0.2614  0.0133  0.3535
  781loPI   C3A11141   3.363  11.014   7.325  0.1346 -0.0028 -0.1321
  781loPI   C4A11142   3.141  10.880   7.670 -0.1924 -0.1927 -0.0573
  781loPI   C5A11143   2.817  11.014   7.979  0.1301 -0.1270 -0.1936
  781loPI   C6A11144   2.448  11.227   8.073  0.3354  0.0713  0.0391
  781loPI   C1B11145   2.821  11.457   6.791  0.0059  0.5043 -0.1304
  781loPI   C2B11146   2.987  11.487   7.251  0.2840  0.0655  0.1786
  781loPI   C3B11147   3.205  11.392   7.683 -0.1329 -0.0087  0.0371
  781loPI   C4B11148   3.435  11.243   7.884 -0.1487 -0.0647  0.2241
  782loPI    C111149   3.916   2.546   5.243 -0.4059 -0.2063 -0.0165
  782loPI    C211150   4.239   2.441   5.032 -0.0369  0.3039  0.2728
  782loPI    C311151   3.875   2.326   4.911  0.2505 -0.3793  0.0041
  782loPI   PO411152   3.987   2.446   5.484 -0.2755  0.1019  0.0305
  782loPI   GL111153   4.258   2.621   5.883  0.2089 -0.0639  0.1518
  782loPI   GL211154   3.883   2.666   5.916 -0.1185 -0.0535 -0.2852
  782loPI   C1A11155   4.536   2.475   6.264 -0.1692 -0.1603 -0.0571
  782loPI   C2A11156   4.488   2.522   6.667  0.5618 -0.1689 -0.0029
  782loPI   C3A11157   4.522   2.440   6.984  0.1681 -0.3421  0.1075
  782loPI   C4A11158   4.450   2.569   7.433  0.1394 -0.1210 -0.0280
  782loPI   C5A11159   4.196   2.834   7.761 -0.0043 -0.1596 -0.0528
  782loPI   C6A11160   4.178   2.890   8.220  0.1627  0.1658 -0.0753
  782loPI   C1B11161   4.005   2.682   6.338 -0.1502 -0.0484 -0.2751
  782loPI   C2B11162   4.011   2.694   6.829 -0.1929  0.1030  0.0717
  782loPI   C3B11163   3.968   2.725   7.216 -0.1070 -0.1605 -0.1041
  782loPI   C4B11164   3.903   2.446   7.522 -0.1021  0.1494  0.1052
  783loPI    C111165  13.775  15.476   5.772  0.0976  0.0251  0.1648
  783loPI    C211166  13.594  15.267   5.483  0.2339  0.1857 -0.0393
  783loPI    C311167  13.387  15.536   5.694  0.0897 -0.0592  0.1377
  783loPI   PO411168  13.851  15.255   5.946 -0.2035  0.0064  0.1068
  783loPI   GL111169  13.893  15.200   6.360 -0.0080 -0.0294  0.0393
  783loPI   GL211170  13.970  14.763   6.380 -0.0404 -0.1193  0.3050
  783loPI   C1A11171  13.600  15.144   6.692  0.0826 -0.2948  0.0407
  783loPI   C2A11172  13.388  15.193   7.154 -0.3138 -0.0180 -0.1398
  783loPI   C3A11173  13.531  15.291   7.497 -0.1427  0.0223 -0.2961
  783loPI   C4A11174  13.543  15.339   7.967  0.0168  0.1558 -0.1073
  783loPI   C5A11175  13.359  15.526   8.300 -0.0703  0.0321 -0.0882
  783loPI   C6A11176  13.474  15.466   8.786  0.0135 -0.1389 -0.1109
  783loPI   C1B11177  14.036  14.878   6.729 -0.0209  0.1284 -0.0754
  783loPI   C2B11178  13.971  15.041   7.230 -0.1643  0.0790  0.3599
  783loPI   C3B11179  14.185  15.437   7.484 -0.0759  0.0299 -0.0382
  783loPI   C4B11180  14.382  15.811   7.853 -0.0323 -0.0807  0.1885
  784loPI    C111181  11.959   0.231   5.150  0.0620 -0.5549  0.0441
  784loPI    C211182  12.156   0.128   4.817  0.1798  0.0959 -0.1009
  784loPI    C311183  12.350   0.308   5.117 -0.0958  0.3073 -0.0451
  784loPI   PO411184  11.840  -0.032   5.318 -0.3348  0.2029 -0.2932
  784loPI   GL111185  11.634  -0.087   5.779 -0.0495  0.1485 -0.2144
  784loPI   GL211186  11.569   0.225   5.878 -0.1867 -0.4774 -0.2917
  784loPI   C1A11187  11.508  -0.522   6.012  0.1662  0.1005  0.0349
  784loPI   C2A11188  11.440  -0.563   6.448  0.1002  0.1111  0.0549
  784loPI   C3A11189  11.662  -0.326   6.765 -0.1250  0.1284  0.4323
  784loPI   C4A11190  11.713  -0.348   7.200  0.2140  0.1330  0.0083
  784loPI   C5A11191  11.383  -0.428   7.486  0.1361  0.1433 -0.3480
  784loPI   C6A11192  10.923  -0.468   7.485  0.0172  0.1027  0.1237
  784loPI   C1B11193  11.782   0.335   6.201 -0.1659  0.0590 -0.0497
  784loPI   C2B11194  11.909   0.311   6.578 -0.0305  0.2703  0.1048
  784loPI   C3B11195  12.001   0.337   6.975  0.0927 -0.1165  0.0513
  784loPI   C4B11196  11.911   0.540   7.297 -0.1119 -0.3079  0.4874
  785loPI    C111197  10.050   7.596   5.363  0.2574  0.1535 -0.2785
  785loPI    C211198  10.210   7.304   5.142  0.0797 -0.2306  0.0856
  785loPI    C311199   9.847   7.445   5.053  0.1616 -0.1238 -0.0850
  785loPI   PO411200  10.071   7.540   5.618 -0.1273  0.0464  0.0544
  785loPI   GL111201  10.087   7.576   6.113  0.1100  0.2823  0.0321
  785loPI   GL211202   9.782   7.323   5.942  0.0965 -0.1467  0.1526
  785loPI   C1A11203  10.039   7.482   6.520 -0.1446  0.0303 -0.0685
  785loPI   C2A11204  10.319   7.564   6.828  0.1298 -0.1922  0.0801
  785loPI   C3A11205  10.723   7.589   7.036  0.2544 -0.0600  0.1565
  785loPI   C4A11206  10.646   7.433   7.417  0.4149 -0.0442  0.0888
  785loPI   C5A11207  10.829   7.339   7.735 -0.2341 -0.2326  0.0461
  785loPI   C6A11208  10.801   7.113   8.064  0.0813  0.0065 -0.2593
  785loPI   C1B11209   9.695   7.209   6.302  0.3280  0.0261 -0.1334
  785loPI   C2B11210   9.377   6.989   6.626 -0.3435 -0.0695 -0.2801
  785loPI   C3B11211   9.169   7.030   7.041 -0.0529 -0.0926 -0.1564
  785loPI   C4B11212   9.232   6.852   7.334 -0.1778  0.0851 -0.2004
  786loPI    C111213   1.128   7.014   5.741  0.0589 -0.1033  0.0846
  786loPI    C211214   1.308   7.026   5.384  0.0731 -0.2286  0.0873
  786loPI    C311215   0.955   7.206   5.435  0.2535  0.1264  0.1153
  786loPI   PO411216   1.265   7.089   5.911 -0.3800 -0.2424  0.1768
  786loPI   GL111217   1.135   7.232   6.327  0.1818 -0.1560 -0.0799
  786loPI   GL211218   0.888   7.468   6.364  0.1694 -0.0371 -0.0932
  786loPI   C1A11219   1.327   7.363   6.586 -0.0934  0.2409  0.0115
  786loPI   C2A11220   1.327   7.265   7.058  0.2311 -0.1780  0.0755
  786loPI   C3A11221   1.486   7.129   7.422  0.0711  0.0468 -0.0151
  786loPI   C4A11222   1.276   6.959   7.741  0.4900  0.1802 -0.0005
  786loPI   C5A11223   1.232   7.006   8.141 -0.1070 -0.0486 -0.1061
  786loPI   C6A11224   0.825   6.880   8.370 -0.0830 -0.1576  0.0356
  786loPI   C1B11225   0.764   7.351   6.721 -0.2321  0.0046 -0.0505
  786loPI   C2B11226   0.799   7.145   7.042 -0.0086 -0.0967  0.0634
  786loPI   C3B11227   0.415   7.188   7.471 -0.0599  0.1285 -0.2048
  786loPI   C4B11228   0.592   7.045   7.899 -0.0932  0.0238  0.2110
  787loPI    C111229   7.859  16.455   5.249  0.0458  0.1418 -0.0338
  787loPI    C211230   7.499  16.556   5.391  0.0007 -0.0967  0.0254
  787loPI    C311231   7.560  16.537   4.996  0.0267  0.2156  0.0125
  787loPI   PO411232   7.980  16.303   5.432 -0.0349 -0.0652 -0.0895
  787loPI   GL111233   7.732  16.210   5.724  0.0718  0.2857 -0.1249
  787loPI   GL211234   7.428  16.089   5.827  0.0443  0.3392  0.1822
  787loPI   C1A11235   7.748  16.428   6.133  0.0628 -0.1121 -0.2685
  787loPI   C2A11236   7.719  16.433   6.649  0.1301 -0.1528  0.0739
  787loPI   C3A11237   7.666  16.510   7.046  0.0570 -0.3482  0.2503
  787loPI   C4A11238   7.791  16.644   7.400  0.1361  0.1154 -0.2601
  787loPI   C5A11239   7.697  17.004   7.578 -0.0531 -0.1904  0.3739
  787loPI   C6A11240   7.186  17.126   7.794  0.1282 -0.2329 -0.1210
  787loPI   C1B11241   7.264  16.123   6.253  0.0132  0.1640  0.2380
  787loPI   C2B11242   7.331  16.016   6.669 -0.1523  0.0024  0.0579
  787loPI   C3B11243   7.075  15.804   7.048  0.3049 -0.0418  0.0985
  787loPI   C4B11244   6.968  15.927   7.524  0.1319 -0.0238  0.3717
  788loPI    C111245  12.231  13.309   5.770 -0.0317 -0.0379 -0.1316
  788loPI    C211246  12.392  13.143   5.443  0.0097  0.0037 -0.1323
  788loPI    C311247  12.606  13.399   5.664  0.0743 -0.2263  0.0754
  788loPI   PO411248  12.112  13.153   5.871  0.1921  0.6115 -0.0468
  788loPI   GL111249  11.926  13.212   6.233  0.0815  0.2153  0.1610
  788loPI   GL211250  12.058  13.571   6.318 -0.0933 -0.1461 -0.0029
  788loPI   C1A11251  11.712  13.157   6.466  0.0599  0.4048 -0.0817
  788loPI   C2A11252  11.452  13.365   6.724  0.2173 -0.0287  0.0376
  788loPI   C3A11253  11.277  13.289   7.147  0.0916 -0.0772  0.0525
  788loPI   C4A11254  11.330  13.442   7.479 -0.0572  0.0183  0.1159
  788loPI   C5A11255  11.157  13.558   7.930 -0.1067 -0.2028 -0.1688
  788loPI   C6A11256  11.143  13.845   8.278 -0.1695 -0.1851 -0.3245
  788loPI   C1B11257  11.901  13.512   6.728  0.3010  0.3998 -0.0856
  788loPI   C2B11258  11.787  13.461   7.175 -0.1649  0.2461 -0.3245
  788loPI   C3B11259  11.684  13.103   7.408  0.4400 -0.0011  0.1372
  788loPI   C4B11260  11.275  12.869   7.523 -0.1756 -0.3589 -0.1748
  789loPI    C111261  15.794   1.501   5.625  0.1008  0.1320  0.2961
  789loPI    C211262  15.866   1.311   5.281 -0.0452  0.3424  0.1469
  789loPI    C311263  16.074   1.639   5.376  0.1810  0.1336  0.3868
  789loPI   PO411264  15.910   1.224   5.876  0.2290  0.0500  0.2917
  789loPI   GL111265  16.231   1.095   6.279  0.2691  0.0934 -0.1734
  789loPI   GL211266  16.388   1.329   6.412 -0.0961 -0.1052 -0.1959
  789loPI   C1A11267  16.055   0.963   6.682 -0.0056  0.1124 -0.1170
  789loPI   C2A11268  15.965   1.071   7.141 -0.0612 -0.4199 -0.1232
  789loPI   C3A11269  16.038   1.256   7.472  0.0819  0.1676  0.4381
  789loPI   C4A11270  16.026   1.286   7.825  0.2572 -0.1012  0.0354
  789loPI   C5A11271  16.151   1.246   8.234  0.2632  0.2307  0.3131
  789loPI   C6A11272  16.378   1.346   8.581 -0.1272  0.2301  0.4328
  789loPI   C1B11273  16.186   1.479   6.695 -0.1497  0.0258 -0.0976
  789loPI   C2B11274  15.988   1.679   7.052 -0.1240  0.1568  0.0033
  789loPI   C3B11275  15.710   1.630   7.374  0.3018  0.0271 -0.1394
  789loPI   C4B11276  15.705   1.639   7.829 -0.1202 -0.0188  0.2732
  790loPI    C111277  11.083   3.162   5.193 -0.1631 -0.0261 -0.1280
  790loPI    C211278  11.184   2.776   5.176 -0.0741 -0.0198  0.1919
  790loPI    C311279  11.430   3.053   5.026 -0.1301 -0.0844 -0.0226
  790loPI   PO411280  10.908   3.174   5.445  0.0889 -0.0816  0.1798
  790loPI   GL111281  10.901   2.978   5.855 -0.2148 -0.0474  0.4034
  790loPI   GL211282  11.169   2.850   5.755  0.1682 -0.0427 -0.0401
  790loPI   C1A11283  11.107   3.001   6.216 -0.2127 -0.3636 -0.1932
  790loPI   C2A11284  11.096   2.991   6.677  0.1347  0.2355  0.0982
  790loPI   C3A11285  10.812   2.859   7.047 -0.1768  0.3150 -0.0967
  790loPI   C4A11286  10.860   2.855   7.454  0.2577  0.1002 -0.0870
  790loPI   C5A11287  11.021   2.754   7.836  0.0174 -0.0954 -0.0519
  790loPI   C6A11288  11.122   2.403   7.917  0.1777  0.2438  0.1973
  790loPI   C1B11289  11.295   2.508   6.006 -0.1848 -0.4068  0.0450
  790loPI   C2B11290  11.262   2.524   6.415 -0.0592  0.3271  0.2823
  790loPI   C3B11291  11.229   2.463   6.875  0.0711  0.2411 -0.0683
  790loPI   C4B11292  11.161   2.482   7.362  0.3093 -0.0124 -0.1156
  791loPI    C111293  14.435   8.830   5.757  0.0879 -0.1219 -0.2028
  791loPI    C211294  14.724   8.711   5.507  0.1731 -0.0214 -0.1527
  791loPI    C311295  14.376   8.515   5.518  0.3046 -0.2553 -0.0848
  791loPI   PO411296  14.448   8.842   6.027  0.1931  0.1280  0.0209
  791loPI   GL111297  14.456   8.537   6.339  0.0257 -0.3462 -0.0342
  791loPI   GL211298  14.376   8.329   6.544 -0.2589 -0.4210 -0.0371
  791loPI   C1A11299  14.501   8.824   6.710  0.1005  0.3212 -0.1107
  791loPI   C2A11300  14.549   8.838   7.090 -0.0519 -0.1969 -0.3145
  791loPI   C3A11301  14.792   9.113   7.306 -0.2209 -0.1137  0.0219
  791loPI   C4A11302  14.778   9.453   7.518  0.1073  0.3138 -0.1625
  791loPI   C5A11303  14.955   9.458   7.969  0.0983 -0.2826 -0.1204
  791loPI   C6A11304  15.126   9.791   8.320  0.0609  0.1549  0.0322
  791loPI   C1B11305  14.472   8.372   7.010  0.1502  0.2983  0.0884
  791loPI   C2B11306  14.626   8.378   7.328 -0.1142  0.0121  0.1084
  791loPI   C3B11307  14.504   8.636   7.618  0.2923 -0.0682  0.1333
  791loPI   C4B11308  14.664   8.695   8.045 -0.0920  0.3942 -0.1442
  792loPI    C111309  17.108   3.835   5.562 -0.0703  0.0436 -0.0676
  792loPI    C211310  17.500   3.867   5.489 -0.0519  0.1437  0.0697
  792loPI    C311311  17.247   3.780   5.191  0.0728  0.0897 -0.0215
  792loPI   PO411312  17.114   3.664   5.786 -0.1749  0.1155 -0.0865
  792loPI   GL111313  17.127   3.631   6.262 -0.2531 -0.2265 -0.3303
  792loPI   GL211314  16.817   3.451   6.122  0.4391  0.1460 -0.1293
  792loPI   C1A11315  17.288   3.748   6.603 -0.2157 -0.0861 -0.0024
  792loPI   C2A11316  17.347   3.814   7.036  0.2974  0.2250  0.1703
  792loPI   C3A11317  17.305   3.658   7.428 -0.0367  0.2672 -0.0622
  792loPI   C4A11318  17.517   3.491   7.724  0.1366 -0.1884 -0.1187
  792loPI   C5A11319  17.574   3.517   8.128  0.1900  0.2754 -0.0149
  792loPI   C6A11320  17.715   3.407   8.412 -0.0292  0.2058  0.0508
  792loPI   C1B11321  16.691   3.713   6.491 -0.1013 -0.1905  0.1916
  792loPI   C2B11322  16.739   3.784   6.896 -0.1655  0.0392  0.2515
  792loPI   C3B11323  16.786   3.818   7.283 -0.3043  0.2536  0.1561
  792loPI   C4B11324  16.818   3.566   7.588  0.0496 -0.4019  0.0188
  793loPI    C111325   7.196  10.805   5.275 -0.0822  0.2226 -0.1319
  793loPI    C211326   7.294  10.558   4.976  0.2784 -0.0073  0.1678
  793loPI    C311327   7.228  10.946   4.902  0.2484 -0.0834 -0.2245
  793loPI   PO411328   7.496  10.757   5.566 -0.0401  0.1677  0.0522
  793loPI   GL111329   7.553  10.837   6.023  0.2176  0.2485  0.0254
  793loPI   GL211330   7.860  10.696   6.203 -0.0348  0.0359  0.0050
  793loPI   C1A11331   7.376  10.863   6.371 -0.2739  0.5700 -0.3737
  793loPI   C2A11332   7.391  10.771   6.826  0.0685  0.1726  0.2963
  793loPI   C3A11333   7.303  10.648   7.279  0.1860 -0.1859  0.0622
  793loPI   C4A11334   7.144  10.846   7.655  0.2049 -0.2586  0.2970
  793loPI   C5A11335   6.943  11.279   7.780 -0.0717  0.1240 -0.0818
  793loPI   C6A11336   6.704  11.688   7.744 -0.0040  0.0191 -0.5262
  793loPI   C1B11337   7.900  10.736   6.652  0.0901  0.0832 -0.1936
  793loPI   C2B11338   7.862  10.752   7.116  0.2776  0.1225  0.0805
  793loPI   C3B11339   7.656  10.911   7.559 -0.1702 -0.0868  0.1522
  793loPI   C4B11340   7.547  11.104   7.939  0.0962  0.0505 -0.1455
  794loPI    C111341  13.418   6.055   5.610 -0.0416  0.1703  0.1210
  794loPI    C211342  13.319   6.341   5.348  0.0205  0.0775 -0.0055
  794loPI    C311343  13.602   6.074   5.255 -0.0430 -0.0307  0.1081
  794loPI   PO411344  13.391   6.188   5.851  0.0058 -0.0153 -0.0212
  794loPI   GL111345  13.538   5.990   6.226 -0.0313 -0.0025 -0.0060
  794loPI   GL211346  13.392   5.761   6.377  0.0670 -0.1873 -0.1240
  794loPI   C1A11347  13.687   6.205   6.575  0.2057  0.1584  0.0426
  794loPI   C2A11348  13.610   6.207   6.960 -0.1865 -0.1826 -0.1062
  794loPI   C3A11349  13.420   6.432   7.326 -0.0941 -0.1495 -0.0949
  794loPI   C4A11350  13.206   6.276   7.738 -0.2129  0.0798  0.2787
  794loPI   C5A11351  12.893   6.025   8.095 -0.1950 -0.0047 -0.0308
  794loPI   C6A11352  12.523   5.729   8.111  0.3008  0.0826 -0.1709
  794loPI   C1B11353  13.359   5.816   6.762  0.0451 -0.1584 -0.0343
  794loPI   C2B11354  13.285   5.847   7.293 -0.3923 -0.2669 -0.0167
  794loPI   C3B11355  13.246   5.767   7.763 -0.0323 -0.4238  0.0685
  794loPI   C4B11356  13.381   5.563   8.075 -0.1170  0.0616 -0.1721
  795loPI    C111357   9.899  11.885   5.547 -0.1190  0.0423  0.0592
  795loPI    C211358   9.746  12.077   5.231 -0.0263  0.0398  0.0124
  795loPI    C311359   9.936  11.729   5.181  0.1022  0.1032  0.0542
  795loPI   PO411360  10.005  12.043   5.739  0.0356  0.1268 -0.1657
  795loPI   GL111361  10.220  12.158   6.129 -0.2031 -0.1478  0.1220
  795loPI   GL211362  10.368  12.391   6.240  0.1429 -0.0699  0.1942
  795loPI   C1A11363  10.181  12.043   6.568  0.1677  0.1774  0.1291
  795loPI   C2A11364  10.582  12.007   6.837 -0.4848  0.2579 -0.2045
  795loPI   C3A11365  10.828  12.023   7.172 -0.0186 -0.1817  0.2278
  795loPI   C4A11366  11.111  11.894   7.497 -0.3460 -0.0278  0.2983
  795loPI   C5A11367  11.234  11.588   7.954  0.2261  0.1060 -0.1740
  795loPI   C6A11368  11.062  11.183   8.105  0.0130 -0.2843 -0.0089
  795loPI   C1B11369  10.455  12.501   6.624 -0.0512 -0.3104  0.2097
  795loPI   C2B11370  10.755  12.479   6.898  0.1719 -0.0864  0.1857
  795loPI   C3B11371  10.965  12.562   7.263  0.1888 -0.3920  0.0714
  795loPI   C4B11372  10.862  12.539   7.716 -0.2316  0.0463 -0.0139
  796loPI    C111373  14.281   5.672   5.406 -0.2241 -0.1811 -0.0102
  796loPI    C211374  14.156   6.041   5.315 -0.1162 -0.1453 -0.0147
  796loPI    C311375  14.357   5.826   5.045  0.3545  0.0260  0.1876
  796loPI   PO411376  14.305   5.728   5.708  0.2691 -0.1818 -0.2764
  796loPI   GL111377  14.419   5.751   5.988  0.0791 -0.0191  0.5884
  796loPI   GL211378  14.657   5.973   6.151  0.0757  0.1544 -0.3755
  796loPI   C1A11379  14.519   5.596   6.429  0.3598 -0.0474 -0.1073
  796loPI   C2A11380  14.321   5.588   6.806 -0.0789 -0.2731 -0.3255
  796loPI   C3A11381  14.223   5.624   7.236 -0.0802 -0.0702 -0.0696
  796loPI   C4A11382  14.213   5.461   7.656 -0.0537 -0.2335 -0.2113
  796loPI   C5A11383  14.285   5.203   8.032 -0.3042  0.2068  0.0320
  796loPI   C6A11384  14.560   4.905   8.246  0.4249 -0.1789  0.4352
  796loPI   C1B11385  14.626   6.007   6.669 -0.3866  0.1223  0.0247
  796loPI   C2B11386  14.547   6.036   7.082 -0.2235  0.0122  0.2428
  796loPI   C3B11387  14.404   6.109   7.464 -0.0133 -0.3524  0.1187
  796loPI   C4B11388  14.119   6.028   7.798 -0.1281  0.0210  0.0457
  797loPI    C111389  12.518  12.405   5.766  0.0573 -0.1295 -0.1188
  797loPI    C211390  12.135  12.307   5.826 -0.0233  0.0819 -0.2760
  797loPI    C311391  12.228  12.644   5.630  0.2453  0.2405  0.1106
  797loPI   PO411392  12.608  12.356   6.043 -0.0733  0.2057 -0.0350
  797loPI   GL111393  12.420  12.311   6.333  0.0496  0.0549  0.0058
  797loPI   GL211394  12.054  12.268   6.348  0.2736  0.1266  0.1495
  797loPI   C1A11395  12.566  12.175   6.745  0.0304 -0.4007  0.0242
  797loPI   C2A11396  12.388  12.172   7.045 -0.2226 -0.0635  0.0025
  797loPI   C3A11397  12.347  12.346   7.463 -0.0745 -0.0750 -0.0025
  797loPI   C4A11398  12.172  12.539   7.832 -0.1526  0.1384 -0.2191
  797loPI   C5A11399  11.988  12.788   8.173 -0.1750  0.0187  0.0596
  797loPI   C6A11400  11.580  12.977   8.333  0.1114  0.2195 -0.0389
  797loPI   C1B11401  11.947  11.953   6.627  0.0696  0.0591 -0.3768
  797loPI   C2B11402  11.648  11.527   6.814  0.0785  0.2761  0.1502
  797loPI   C3B11403  11.548  11.116   7.005 -0.1421 -0.0961 -0.2368
  797loPI   C4B11404  11.309  10.930   7.317 -0.0673 -0.0260  0.0564
  798loPI    C111405   2.277   2.300   5.114  0.1251 -0.0299  0.0851
  798loPI    C211406   1.888   2.395   5.101  0.1026 -0.1235  0.0698
  798loPI    C311407   2.123   2.467   4.785  0.1150  0.0064  0.1081
  798loPI   PO411408   2.379   2.416   5.358 -0.1608  0.0843  0.0117
  798loPI   GL111409   2.287   2.604   5.693  0.1421  0.0865  0.4309
  798loPI   GL211410   2.576   2.352   5.840  0.0468 -0.2465 -0.2650
  798loPI   C1A11411   2.407   2.617   6.181 -0.0640  0.0139  0.3313
  798loPI   C2A11412   2.425   2.664   6.557 -0.0063 -0.2292  0.5797
  798loPI   C3A11413   2.500   2.582   6.890  0.0337 -0.1382  0.1002
  798loPI   C4A11414   2.656   2.608   7.304  0.1132 -0.1038  0.1856
  798loPI   C5A11415   2.897   2.282   7.560 -0.3652  0.1967  0.2592
  798loPI   C6A11416   3.366   2.285   7.625  0.2582 -0.2371 -0.0962
  798loPI   C1B11417   2.760   2.269   6.151 -0.2832 -0.1114 -0.1623
  798loPI   C2B11418   2.837   2.268   6.627 -0.1105 -0.0365 -0.2791
  798loPI   C3B11419   3.083   2.113   7.019 -0.2125 -0.0673  0.1285
  798loPI   C4B11420   3.365   1.883   7.265 -0.3895  0.1562  0.1578
  799loPI    C111421   9.725  16.743   5.239  0.1015  0.0856  0.1535
  799loPI    C211422  10.009  16.462   5.259  0.0774  0.0584  0.1172
  799loPI    C311423  10.048  16.768   5.004  0.1194  0.1057  0.1800
  799loPI   PO411424   9.684  16.838   5.484  0.0720 -0.0038  0.3526
  799loPI   GL111425   9.371  16.864   5.762 -0.0481 -0.3109  0.0317
  799loPI   GL211426   9.135  17.150   5.815  0.0586  0.1196  0.2565
  799loPI   C1A11427   9.473  16.614   6.174  0.1190 -0.1821  0.1579
  799loPI   C2A11428   9.448  16.579   6.608  0.0747 -0.0312 -0.0186
  799loPI   C3A11429   9.582  16.489   7.049  0.2566  0.1036  0.2148
  799loPI   C4A11430   9.725  16.441   7.467  0.2332 -0.3979 -0.2002
  799loPI   C5A11431   9.906  16.192   7.866  0.2586 -0.0353  0.0584
  799loPI   C6A11432   9.742  15.798   8.149  0.2804 -0.1792  0.1772
  799loPI   C1B11433   9.053  17.157   6.258  0.0521 -0.0314  0.3611
  799loPI   C2B11434   8.986  17.151   6.740  0.1167  0.0573 -0.2443
  799loPI   C3B11435   8.850  17.171   7.142 -0.3123 -0.0655 -0.0784
  799loPI   C4B11436   8.838  17.073   7.641  0.1659  0.0798  0.1513
  800loPI    C111437  13.885   9.570   5.725 -0.0708 -0.1191  0.0114
  800loPI    C211438  14.124   9.266   5.623  0.0231  0.0093 -0.1559
  800loPI    C311439  13.760   9.297   5.461 -0.0460 -0.0978 -0.0225
  800loPI   PO411440  13.908   9.610   5.935  0.0475 -0.0825 -0.1746
  800loPI   GL111441  13.939   9.633   6.350  0.0108  0.2356  0.0516
  800loPI   GL211442  13.714   9.359   6.453  0.2874  0.1615 -0.1043
  800loPI   C1A11443  13.979  10.022   6.584  0.2069  0.2241  0.0114
  800loPI   C2A11444  14.015  10.196   6.997 -0.0959  0.1499 -0.3883
  800loPI   C3A11445  13.982  10.100   7.454 -0.0314 -0.2461 -0.0356
  800loPI   C4A11446  13.892  10.137   7.920  0.0495  0.1844  0.0428
  800loPI   C5A11447  13.846  10.142   8.373  0.0060  0.3447 -0.1691
  800loPI   C6A11448  13.775  10.138   8.813  0.1640 -0.1508 -0.2084
  800loPI   C1B11449  13.800   9.559   6.821 -0.0684  0.0720 -0.0969
  800loPI   C2B11450  13.838   9.647   7.302  0.1593 -0.0142 -0.0842
  800loPI   C3B11451  13.785   9.699   7.683 -0.1246  0.1511 -0.1427
  800loPI   C4B11452  13.621   9.685   8.044 -0.0891  0.0647 -0.2447
  801loPI    C111453   3.701  11.200   5.372 -0.0211 -0.0065  0.1709
  801loPI    C211454   3.338  11.128   5.524 -0.1514  0.0715 -0.0964
  801loPI    C311455   3.485  10.892   5.237  0.0403 -0.0005  0.0580
  801loPI   PO411456   3.832  11.254   5.581 -0.0932  0.3468 -0.1178
  801loPI   GL111457   3.939  11.123   5.982  0.0982  0.0242 -0.1992
  801loPI   GL211458   4.126  11.329   6.052 -0.0093 -0.0940 -0.1279
  801loPI   C1A11459   3.837  10.867   6.293  0.0287  0.3097 -0.1171
  801loPI   C2A11460   3.738  10.836   6.687 -0.1455  0.2328 -0.0808
  801loPI   C3A11461   3.573  10.606   7.057  0.4426  0.3780 -0.2163
  801loPI   C4A11462   3.261  10.425   7.307 -0.2047  0.1145  0.3035
  801loPI   C5A11463   3.240  10.418   7.654 -0.1061  0.1774  0.1851
  801loPI   C6A11464   3.211  10.567   8.136 -0.0758  0.0058  0.0157
  801loPI   C1B11465   4.280  11.399   6.402 -0.3799  0.2377 -0.2016
  801loPI   C2B11466   4.369  11.535   6.825  0.1667 -0.1253  0.0076
  801loPI   C3B11467   4.082  11.623   7.175 -0.1370 -0.0819  0.2662
  801loPI   C4B11468   3.996  11.646   7.547  0.0044 -0.0625  0.1842
  802loPI    C111469  17.928   8.494   6.039 -0.3064  0.2966  0.0354
  802loPI    C211470  17.628   8.516   5.776 -0.5278  0.1504  0.2707
  802loPI    C311471  17.736   8.161   5.926  0.0656  0.1390 -0.1498
  802loPI   PO411472  17.820   8.697   6.277 -0.0259  0.0582  0.0113
  802loPI   GL111473  17.671   8.748   6.602 -0.1294 -0.0614 -0.1482
  802loPI   GL211474  17.298   8.624   6.686  0.1573  0.0264 -0.2045
  802loPI   C1A11475  17.551   8.800   7.085 -0.3248  0.1299  0.1820
  802loPI   C2A11476  17.580   8.886   7.538 -0.2218  0.0698 -0.2386
  802loPI   C3A11477  17.593   8.966   7.966 -0.1565 -0.1930 -0.0157
  802loPI   C4A11478  17.694   9.136   8.297 -0.0937  0.4330 -0.0848
  802loPI   C5A11479  17.701   9.458   8.584  0.2131 -0.1070 -0.1071
  802loPI   C6A11480  17.405   9.496   8.890 -0.0274  0.0985  0.0906
  802loPI   C1B11481  17.363   8.280   7.018  0.1989 -0.1608  0.1557
  802loPI   C2B11482  17.238   8.439   7.412 -0.0514  0.1041 -0.2401
  802loPI   C3B11483  17.268   8.575   7.915  0.1008  0.1878 -0.0899
  802loPI   C4B11484  17.573   8.647   8.336 -0.0242 -0.1017  0.0502
  803loPI    C111485   2.116   8.584   5.684 -0.1344  0.1071 -0.0431
  803loPI    C211486   1.773   8.769   5.594 -0.1465  0.0532 -0.1089
  803loPI    C311487   2.079   8.779   5.337 -0.1865 -0.1149 -0.1644
  803loPI   PO411488   2.110   8.345   5.784  0.2361  0.0905  0.0136
  803loPI   GL111489   2.302   8.369   6.179  0.3995 -0.1629 -0.0704
  803loPI   GL211490   2.631   8.456   6.302 -0.2819  0.3455  0.0186
  803loPI   C1A11491   2.166   8.326   6.607  0.1260 -0.3392 -0.0959
  803loPI   C2A11492   1.954   8.317   6.992 -0.2238 -0.1063 -0.1556
  803loPI   C3A11493   1.723   8.051   7.360 -0.1902  0.2031 -0.2433
  803loPI   C4A11494   1.419   8.056   7.733 -0.0620 -0.2781 -0.0611
  803loPI   C5A11495   1.109   8.117   8.027  0.0257  0.2415 -0.3723
  803loPI   C6A11496   1.021   8.223   8.446  0.2016  0.1522 -0.2930
  803loPI   C1B11497   2.698   8.470   6.689  0.0734 -0.1947 -0.4532
  803loPI   C2B11498   2.918   8.383   7.048 -0.2709 -0.2644  0.1249
  803loPI   C3B11499   3.069   8.443   7.424 -0.0927 -0.0459  0.1331
  803loPI   C4B11500   2.982   8.399   7.827  0.0916  0.0036  0.1953
  804loPI    C111501   8.043   2.138   5.245  0.1728  0.0349 -0.0612
  804loPI    C211502   7.964   2.085   4.857  0.1372 -0.2501 -0.0172
  804loPI    C311503   8.303   2.265   4.969  0.1249 -0.1229 -0.1801
  804loPI   PO411504   7.787   2.178   5.381  0.3453 -0.1164 -0.1242
  804loPI   GL111505   7.718   2.210   5.741  0.2410 -0.0336 -0.1918
  804loPI   GL211506   7.968   2.000   5.823  0.0599 -0.2295  0.0713
  804loPI   C1A11507   7.635   2.335   6.139 -0.0354 -0.1700  0.1545
  804loPI   C2A11508   7.505   2.451   6.507  0.2206 -0.1742  0.0500
  804loPI   C3A11509   7.380   2.532   6.879  0.0024 -0.2860  0.0814
  804loPI   C4A11510   7.335   2.967   7.109  0.2091  0.0280 -0.1663
  804loPI   C5A11511   7.215   3.118   7.565 -0.2672  0.0806  0.0350
  804loPI   C6A11512   7.481   3.130   7.912  0.1399  0.1310 -0.0355
  804loPI   C1B11513   8.061   2.114   6.214  0.0406 -0.2453  0.1824
  804loPI   C2B11514   8.057   2.123   6.667  0.0450 -0.0396 -0.0021
  804loPI   C3B11515   8.176   2.182   7.055  0.1754 -0.1278  0.1036
  804loPI   C4B11516   7.956   2.125   7.485  0.0084 -0.2146  0.1295
  805loPI    C111517   7.768   4.833   4.984 -0.0014 -0.0371 -0.1498
  805loPI    C211518   7.732   4.436   4.944  0.0294 -0.0686  0.1153
  805loPI    C311519   7.406   4.669   4.934 -0.0120 -0.1231  0.1848
  805loPI   PO411520   7.848   4.921   5.263 -0.2112 -0.0221 -0.0031
  805loPI   GL111521   7.602   4.868   5.660 -0.0395 -0.2682 -0.2144
  805loPI   GL211522   7.835   5.134   5.847  0.0449 -0.3293  0.2354
  805loPI   C1A11523   7.600   4.584   6.000 -0.0498  0.1110  0.0335
  805loPI   C2A11524   7.631   4.623   6.429  0.1742 -0.0658 -0.1319
  805loPI   C3A11525   7.744   4.699   6.887 -0.1549  0.0070  0.0247
  805loPI   C4A11526   7.710   4.696   7.315  0.0136  0.1594  0.2764
  805loPI   C5A11527   7.617   4.780   7.765 -0.3280  0.1761 -0.1950
  805loPI   C6A11528   7.483   5.186   7.960  0.1103 -0.0913 -0.4459
  805loPI   C1B11529   7.443   5.046   6.145  0.2987  0.0702  0.3126
  805loPI   C2B11530   7.315   5.029   6.639 -0.2122 -0.1505  0.0558
  805loPI   C3B11531   7.397   5.042   7.161  0.1496  0.3301 -0.1178
  805loPI   C4B11532   7.634   5.188   7.491 -0.0962 -0.0287  0.2878
  806loPI    C111533  10.402   3.231   5.281 -0.0648 -0.0801 -0.1281
  806loPI    C211534  10.215   3.160   4.935 -0.0746 -0.1092 -0.1168
  806loPI    C311535  10.343   3.529   5.021 -0.1997 -0.0718 -0.0886
  806loPI   PO411536  10.328   2.984   5.443  0.1572  0.2904  0.1328
  806loPI   GL111537  10.086   2.985   5.770 -0.0072  0.1393  0.0361
  806loPI   GL211538   9.883   3.056   5.784 -0.2103  0.1057  0.1655
  806loPI   C1A11539  10.250   2.633   6.052  0.1227  0.0519 -0.1764
  806loPI   C2A11540  10.339   2.693   6.390 -0.1137 -0.1095 -0.1161
  806loPI   C3A11541  10.359   2.716   6.834 -0.0914 -0.1877 -0.1965
  806loPI   C4A11542  10.357   2.576   7.238 -0.0864 -0.1630 -0.0129
  806loPI   C5A11543  10.158   2.277   7.536  0.0770 -0.4155  0.3987
  806loPI   C6A11544  10.387   1.822   7.696  0.1201 -0.0686 -0.1183
  806loPI   C1B11545   9.976   2.986   6.285 -0.1418  0.0493 -0.1323
  806loPI   C2B11546   9.922   2.940   6.716 -0.0117 -0.6817  0.0587
  806loPI   C3B11547  10.048   2.979   7.106 -0.0126  0.1987  0.1171
  806loPI   C4B11548  10.003   2.946   7.470  0.1113 -0.2775 -0.0011
  807loPI    C111549   5.391   2.877   4.929  0.1381 -0.0267  0.1011
  807loPI    C211550   5.359   3.274   4.893  0.2914  0.0105  0.3518
  807loPI    C311551   5.518   3.058   4.595  0.1153  0.1232  0.1732
  807loPI   PO411552   5.510   2.794   5.218 -0.0225 -0.2645  0.3549
  807loPI   GL111553   5.347   2.829   5.573 -0.2009 -0.0436  0.1086
  807loPI   GL211554   4.989   2.873   5.544  0.0050  0.1196  0.2862
  807loPI   C1A11555   5.497   2.842   6.046 -0.0661  0.1046 -0.3860
  807loPI   C2A11556   5.261   2.900   6.413 -0.1423 -0.4233 -0.0796
  807loPI   C3A11557   5.227   3.199   6.637  0.2250  0.0957  0.3181
  807loPI   C4A11558   5.232   3.647   6.540  0.1120 -0.2017 -0.0787
  807loPI   C5A11559   5.432   3.951   6.800 -0.2646 -0.0523  0.0168
  807loPI   C6A11560   5.598   4.414   6.779 -0.2581 -0.0982 -0.2600
  807loPI   C1B11561   4.846   2.902   6.080  0.2545  0.1533 -0.1744
  807loPI   C2B11562   4.799   2.830   6.494  0.1105 -0.2126  0.0756
  807loPI   C3B11563   4.973   2.798   6.883 -0.1289  0.1806 -0.2136
  807loPI   C4B11564   4.819   2.794   7.283 -0.2165  0.5310 -0.0162
  808loPI    C111565   1.537  14.599   5.476 -0.0826 -0.1915  0.0686
  808loPI    C211566   1.298  14.900   5.366 -0.1867 -0.2220  0.2085
  808loPI    C311567   1.454  14.657   5.089  0.2036  0.1852  0.0576
  808loPI   PO411568   1.729  14.745   5.655  0.1088 -0.4718 -0.2268
  808loPI   GL111569   1.956  15.000   5.954  0.1380  0.1164 -0.0800
  808loPI   GL211570   1.874  15.175   6.207 -0.3117  0.1814  0.0996
  808loPI   C1A11571   2.268  14.904   6.404  0.1867 -0.3430  0.0269
  808loPI   C2A11572   2.360  14.870   6.827 -0.5362 -0.0445  0.1761
  808loPI   C3A11573   2.542  14.846   7.239 -0.0658  0.0630  0.2545
  808loPI   C4A11574   2.679  14.548   7.515 -0.1391  0.0525  0.0594
  808loPI   C5A11575   2.777  14.517   7.912  0.2689  0.3987 -0.1515
  808loPI   C6A11576   3.049  14.830   8.071 -0.4071  0.1043 -0.0005
  808loPI   C1B11577   1.771  14.990   6.513 -0.2424  0.2117  0.0358
  808loPI   C2B11578   1.831  14.923   6.833 -0.1542 -0.0301 -0.5676
  808loPI   C3B11579   1.993  14.868   7.217 -0.0065 -0.0115 -0.2443
  808loPI   C4B11580   2.197  14.824   7.632  0.4131  0.1433  0.3591
  809loPI    C111581   7.658  15.737   5.465  0.1228 -0.1052 -0.0680
  809loPI    C211582   7.990  15.827   5.261  0.1176 -0.1653 -0.1035
  809loPI    C311583   7.718  15.581   5.101 -0.0364  0.0357 -0.1563
  809loPI   PO411584   7.776  15.698   5.740 -0.1765  0.0513  0.0741
  809loPI   GL111585   7.609  15.389   6.040  0.0738 -0.1628  0.1260
  809loPI   GL211586   7.440  15.651   6.169 -0.0934  0.1146  0.1317
  809loPI   C1A11587   7.871  15.405   6.368  0.1809 -0.1929 -0.0104
  809loPI   C2A11588   7.880  15.322   6.887 -0.1787 -0.0018 -0.0294
  809loPI   C3A11589   7.715  15.372   7.202 -0.0252 -0.0274  0.1015
  809loPI   C4A11590   7.425  15.721   7.402 -0.2460  0.1305 -0.0474
  809loPI   C5A11591   7.496  15.979   7.816 -0.0113 -0.5613 -0.0633
  809loPI   C6A11592   7.621  16.148   8.245  0.0248  0.0498 -0.3928
  809loPI   C1B11593   7.392  15.484   6.592 -0.2746 -0.0560  0.5679
  809loPI   C2B11594   7.275  15.334   6.941  0.0733  0.2681 -0.3010
  809loPI   C3B11595   7.180  15.291   7.354 -0.0769  0.1029  0.0758
  809loPI   C4B11596   6.900  15.409   7.573  0.3708 -0.0063 -0.0441
  810loPI    C111597  12.958   7.521   5.813 -0.0468  0.0023  0.0073
  810loPI    C211598  12.863   7.862   5.625 -0.1323 -0.1446 -0.2211
  810loPI    C311599  13.015   7.555   5.418 -0.1524 -0.2822 -0.0348
  810loPI   PO411600  12.998   7.536   6.102 -0.2723  0.1163  0.1888
  810loPI   GL111601  13.203   7.723   6.362  0.0564  0.0065 -0.0402
  810loPI   GL211602  13.387   7.948   6.455  0.3349 -0.0184  0.0876
  810loPI   C1A11603  13.038   7.679   6.753 -0.0374  0.2871  0.1831
  810loPI   C2A11604  12.923   7.651   7.193  0.0630  0.0671 -0.0675
  810loPI   C3A11605  12.879   7.933   7.607 -0.2064  0.2101  0.3162
  810loPI   C4A11606  12.953   8.109   7.985  0.0606 -0.1740  0.0675
  810loPI   C5A11607  13.126   8.477   8.119  0.2137 -0.1391 -0.0711
  810loPI   C6A11608  13.361   8.743   8.291  0.0613 -0.0244  0.1326
  810loPI   C1B11609  13.524   7.877   6.883 -0.0063  0.1839  0.1872
  810loPI   C2B11610  13.446   7.466   7.095 -0.0327 -0.3732 -0.0239
  810loPI   C3B11611  13.238   7.420   7.459 -0.0189 -0.2493 -0.1537
  810loPI   C4B11612  13.078   7.473   7.949  0.2840 -0.0100 -0.0050
  811loPI    C111613  17.702   5.191   5.987 -0.0900  0.1018 -0.2080
  811loPI    C211614  17.933   4.870   5.929  0.1041  0.1841  0.0850
  811loPI    C311615  17.944   5.174   5.670  0.2899  0.1663  0.0711
  811loPI   PO411616  17.599   5.112   6.223 -0.2383  0.0679 -0.0038
  811loPI   GL111617  17.804   4.948   6.544 -0.3696  0.0688 -0.1168
  811loPI   GL211618  17.865   4.587   6.484  0.2675  0.0423  0.2038
  811loPI   C1A11619  18.074   5.041   6.930 -0.1204 -0.0302 -0.0107
  811loPI   C2A11620  18.168   5.078   7.362 -0.0874 -0.3396  0.1083
  811loPI   C3A11621  18.151   5.182   7.759  0.1527  0.1395 -0.0590
  811loPI   C4A11622  18.057   5.376   8.154 -0.1936  0.0640 -0.0568
  811loPI   C5A11623  17.713   5.658   8.268  0.2845 -0.3148  0.3840
  811loPI   C6A11624  17.390   5.782   8.613 -0.0111 -0.1217 -0.0898
  811loPI   C1B11625  17.803   4.653   6.953  0.1456  0.0892 -0.3337
  811loPI   C2B11626  17.908   4.569   7.425 -0.0914 -0.0254  0.0524
  811loPI   C3B11627  17.940   4.745   7.879  0.0675  0.1849 -0.0177
  811loPI   C4B11628  18.177   4.915   8.224 -0.2176  0.1801 -0.0754
  812loPI    C111629   6.610   1.709   4.834 -0.0617 -0.0647  0.0197
  812loPI    C211630   6.272   1.848   4.672 -0.1227 -0.2914 -0.0508
  812loPI    C311631   6.615   1.871   4.468 -0.0602  0.0925  0.0882
  812loPI   PO411632   6.616   1.846   5.170  0.1222  0.2796  0.1892
  812loPI   GL111633   6.364   1.735   5.581 -0.1433 -0.3976  0.1943
  812loPI   GL211634   6.488   1.990   5.690 -0.5062  0.2531  0.2901
  812loPI   C1A11635   6.463   1.472   5.991  0.0926 -0.0351  0.1020
  812loPI   C2A11636   6.390   1.489   6.411 -0.1351 -0.0437  0.2724
  812loPI   C3A11637   6.368   1.381   6.876  0.1407  0.2777 -0.3310
  812loPI   C4A11638   6.366   1.380   7.222  0.2094 -0.0343  0.1856
  812loPI   C5A11639   6.500   1.291   7.614 -0.2349  0.2998  0.4379
  812loPI   C6A11640   6.452   1.066   8.048  0.2028  0.1329  0.2334
  812loPI   C1B11641   6.283   1.892   6.107 -0.1259 -0.1689 -0.1475
  812loPI   C2B11642   6.190   1.909   6.570 -0.0939  0.0324  0.0462
  812loPI   C3B11643   6.165   1.914   6.999 -0.1034 -0.2891  0.2411
  812loPI   C4B11644   6.169   1.882   7.488 -0.0837  0.0267  0.0698
  813loPI    C111645   1.568   6.342   5.514  0.1597 -0.0921 -0.1543
  813loPI    C211646   1.705   6.636   5.279  0.0929 -0.0723 -0.1688
  813loPI    C311647   1.380   6.429   5.172 -0.0303  0.0407 -0.0177
  813loPI   PO411648   1.556   6.535   5.807 -0.3236  0.0185  0.1204
  813loPI   GL111649   1.462   6.565   6.247 -0.3021 -0.0085  0.1112
  813loPI   GL211650   1.624   6.912   6.203 -0.1092  0.1029  0.2429
  813loPI   C1A11651   1.483   6.671   6.697 -0.0068 -0.2363  0.1289
  813loPI   C2A11652   1.570   6.719   7.215 -0.2631 -0.2229  0.0044
  813loPI   C3A11653   1.962   6.858   7.410  0.0244 -0.1993 -0.2139
  813loPI   C4A11654   2.300   7.080   7.741 -0.0802 -0.0801 -0.1956
  813loPI   C5A11655   2.727   7.150   7.794  0.3588  0.2969  0.2433
  813loPI   C6A11656   3.074   7.525   7.925 -0.0834 -0.3565 -0.2202
  813loPI   C1B11657   1.789   7.096   6.574 -0.2263  0.4533  0.2173
  813loPI   C2B11658   1.777   7.191   7.033  0.2953  0.5117  0.0797
  813loPI   C3B11659   1.886   7.387   7.448 -0.1414 -0.2557  0.0458
  813loPI   C4B11660   1.831   7.733   7.763 -0.0635  0.0320 -0.3757
  814loPI    C111661   1.489   5.588   5.638 -0.0620  0.0028  0.0985
  814loPI    C211662   1.285   5.245   5.666 -0.0335 -0.0545 -0.3248
  814loPI    C311663   1.305   5.438   5.316  0.3377  0.1399 -0.2028
  814loPI   PO411664   1.418   5.817   5.767 -0.1609 -0.0775 -0.1227
  814loPI   GL111665   1.639   5.992   6.122  0.1707  0.2086 -0.1542
  814loPI   GL211666   1.800   6.282   6.114 -0.0009  0.2879 -0.1882
  814loPI   C1A11667   1.573   6.155   6.591 -0.1100 -0.2806  0.3849
  814loPI   C2A11668   1.793   6.222   6.945  0.0853 -0.1621 -0.0754
  814loPI   C3A11669   1.937   6.342   7.340 -0.1822  0.0861 -0.2638
  814loPI   C4A11670   1.721   6.573   7.712  0.0688  0.1947  0.0339
  814loPI   C5A11671   1.784   6.999   7.880  0.0029 -0.0739 -0.2104
  814loPI   C6A11672   1.647   7.303   7.896 -0.0387  0.1827  0.4266
  814loPI   C1B11673   1.944   6.513   6.504  0.1413 -0.1721 -0.0579
  814loPI   C2B11674   2.010   6.727   6.859 -0.1418  0.0218 -0.3321
  814loPI   C3B11675   2.307   7.097   7.082 -0.0337 -0.0565  0.3870
  814loPI   C4B11676   2.691   7.106   7.268  0.0090 -0.1357  0.1308
  815loPI    C111677   6.661  13.225   4.994  0.3033 -0.1684  0.2123
  815loPI    C211678   6.828  13.587   4.957  0.1702 -0.1025  0.2480
  815loPI    C311679   6.765  13.362   4.633  0.3267 -0.1280  0.2342
  815loPI   PO411680   6.509  13.270   5.287 -0.0538 -0.0158 -0.3352
  815loPI   GL111681   6.527  13.207   5.739  0.1053 -0.3407  0.4239
  815loPI   GL211682   6.541  13.528   5.780 -0.0685 -0.0117  0.0209
  815loPI   C1A11683   6.692  12.883   6.077  0.1172  0.0245 -0.3768
  815loPI   C2A11684   6.617  12.760   6.561  0.0151 -0.1115 -0.0570
  815loPI   C3A11685   6.550  12.896   6.979  0.1028  0.1572 -0.5110
  815loPI   C4A11686   6.347  12.749   7.277  0.1577 -0.0464  0.0555
  815loPI   C5A11687   6.345  12.506   7.675  0.3313  0.0458  0.1923
  815loPI   C6A11688   6.034  12.435   7.951  0.0703  0.0596  0.0084
  815loPI   C1B11689   6.383  13.245   6.247  0.0866 -0.1463  0.0466
  815loPI   C2B11690   6.239  13.048   6.560  0.2230 -0.0989 -0.0000
  815loPI   C3B11691   5.956  12.876   7.022 -0.0480 -0.0592  0.0425
  815loPI   C4B11692   5.656  12.657   7.215 -0.1246 -0.2928 -0.1154
  816loPI    C111693  10.449  16.937   5.239 -0.1578 -0.0904 -0.0126
  816loPI    C211694  10.375  17.281   5.049 -0.1726 -0.1715 -0.1551
  816loPI    C311695  10.735  17.110   5.020 -0.0067  0.0817  0.3135
  816loPI   PO411696  10.191  16.933   5.436 -0.0206  0.0293 -0.2803
  816loPI   GL111697  10.264  17.038   5.906 -0.1768 -0.0017 -0.0382
  816loPI   GL211698  10.432  16.752   6.005 -0.0470  0.0596 -0.3109
  816loPI   C1A11699   9.799  17.005   6.088  0.2385 -0.2009  0.0051
  816loPI   C2A11700   9.908  16.695   6.463 -0.1481 -0.1136  0.1545
  816loPI   C3A11701   9.874  16.942   6.853 -0.2889 -0.2726  0.0147
  816loPI   C4A11702   9.759  16.889   7.292 -0.0462 -0.1585 -0.1200
  816loPI   C5A11703   9.834  16.920   7.766 -0.2352  0.0016  0.3590
  816loPI   C6A11704   9.983  16.674   8.007 -0.0038 -0.0715 -0.2654
  816loPI   C1B11705  10.626  16.476   6.300 -0.4166  0.1803  0.0040
  816loPI   C2B11706  10.805  16.544   6.765 -0.0800  0.0411 -0.1386
  816loPI   C3B11707  11.070  16.612   7.178  0.0976  0.0092  0.0477
  816loPI   C4B11708  10.989  16.751   7.575  0.0500  0.1955 -0.0457
  817loPI    C111709   6.764   8.136   5.274 -0.2841  0.0284 -0.0373
  817loPI    C211710   6.714   8.525   5.193  0.1423  0.1343  0.1770
  817loPI    C311711   6.880   8.283   4.921 -0.0157  0.1248  0.0880
  817loPI   PO411712   6.653   8.158   5.532  0.4067  0.0298  0.1718
  817loPI   GL111713   6.736   8.192   5.943 -0.1527 -0.0611 -0.0820
  817loPI   GL211714   6.472   8.416   6.108  0.2525  0.0447  0.1275
  817loPI   C1A11715   6.734   8.152   6.416  0.0694 -0.0669  0.1876
  817loPI   C2A11716   6.794   8.292   6.695 -0.0085  0.1009  0.0951
  817loPI   C3A11717   6.784   8.501   6.976  0.1159  0.1014  0.1152
  817loPI   C4A11718   6.954   8.660   7.349  0.1103  0.1744  0.1444
  817loPI   C5A11719   6.695   8.992   7.651 -0.0451 -0.3705  0.1586
  817loPI   C6A11720   6.624   8.946   8.066  0.3492  0.1300  0.1413
  817loPI   C1B11721   6.472   8.709   6.598  0.0218  0.1702  0.2182
  817loPI   C2B11722   6.327   8.944   6.981 -0.1852  0.0896  0.2946
  817loPI   C3B11723   6.276   9.025   7.397  0.1829 -0.1757  0.0034
  817loPI   C4B11724   6.176   8.928   7.798  0.0624 -0.1164  0.0002
  818loPI    C111725   1.269  13.779   5.246 -0.3350  0.1592  0.0685
  818loPI    C211726   1.326  14.153   5.117 -0.0865  0.1278  0.0828
  818loPI    C311727   1.236  13.863   4.856 -0.0055  0.1451  0.0351
  818loPI   PO411728   1.059  13.739   5.472 -0.3804  0.0788 -0.2361
  818loPI   GL111729   1.077  13.758   5.915  0.0594  0.1374  0.1854
  818loPI   GL211730   1.218  14.017   6.168  0.0796  0.1639  0.1900
  818loPI   C1A11731   1.367  13.538   6.316  0.0030 -0.2385 -0.5272
  818loPI   C2A11732   1.482  13.314   6.769  0.2729  0.3477 -0.1739
  818loPI   C3A11733   1.485  13.464   7.202  0.0702 -0.5046  0.3225
  818loPI   C4A11734   1.683  13.519   7.564  0.1442  0.3327  0.0973
  818loPI   C5A11735   2.019  13.453   7.760 -0.3903  0.2657 -0.1501
  818loPI   C6A11736   2.188  13.708   8.092 -0.0207 -0.0537  0.0360
  818loPI   C1B11737   1.145  13.990   6.551  0.0875  0.1481  0.1924
  818loPI   C2B11738   1.333  13.778   6.806 -0.1434  0.0521 -0.0583
  818loPI   C3B11739   1.293  13.968   7.265  0.0680 -0.2239  0.1064
  818loPI   C4B11740   1.391  13.930   7.641 -0.2783  0.1129 -0.2702
  819loPI    C111741   9.123   4.638   5.122 -0.2044  0.0617 -0.0715
  819loPI    C211742   9.462   4.464   5.000 -0.1113  0.2083 -0.0250
  819loPI    C311743   9.108   4.309   4.896 -0.0311  0.1355 -0.1924
  819loPI   PO411744   9.166   4.641   5.346  0.0274 -0.0729 -0.1438
  819loPI   GL111745   9.218   4.471   5.713 -0.1385  0.2105  0.0305
  819loPI   GL211746   8.963   4.435   5.860 -0.1995  0.2979 -0.0970
  819loPI   C1A11747   9.193   4.794   6.099  0.0767 -0.0795 -0.2997
  819loPI   C2A11748   9.109   4.546   6.476 -0.0700 -0.1734 -0.1021
  819loPI   C3A11749   8.753   4.366   6.551  0.0121 -0.0415  0.2580
  819loPI   C4A11750   8.399   4.360   6.703  0.1867  0.2756 -0.3722
  819loPI   C5A11751   8.223   4.395   7.047  0.2169 -0.0145 -0.3467
  819loPI   C6A11752   8.196   4.725   7.294  0.0312 -0.1072 -0.1661
  819loPI   C1B11753   9.119   4.155   6.126 -0.5576  0.2233 -0.0723
  819loPI   C2B11754   9.085   4.031   6.606 -0.1651  0.3547 -0.0229
  819loPI   C3B11755   8.969   4.128   6.990  0.2369  0.0907  0.1454
  819loPI   C4B11756   8.673   4.286   7.191 -0.0128  0.0505 -0.1664
  820loPI    C111757   8.221  17.198   5.318 -0.2585 -0.3156  0.0242
  820loPI    C211758   8.290  17.075   5.693 -0.0193 -0.0762  0.0612
  820loPI    C311759   8.269  16.808   5.396  0.0554 -0.2441  0.2051
  820loPI   PO411760   8.056  17.363   5.381 -0.2683 -0.1250 -0.2547
  820loPI   GL111761   8.141  17.555   5.670  0.3484 -0.2166  0.2226
  820loPI   GL211762   7.882  17.802   5.779 -0.0793  0.1322  0.4400
  820loPI   C1A11763   8.310  17.391   6.054 -0.0390 -0.1293 -0.0908
  820loPI   C2A11764   8.294  17.587   6.409 -0.5090 -0.1061 -0.0712
  820loPI   C3A11765   8.330  17.786   6.816 -0.1602 -0.2669  0.3867
  820loPI   C4A11766   8.564  18.047   6.989  0.1512  0.4742 -0.0886
  820loPI   C5A11767   8.605  18.077   7.418  0.0822  0.0293  0.2861
  820loPI   C6A11768   8.921  17.966   7.809  0.3713  0.1940  0.1543
  820loPI   C1B11769   7.960  17.916   6.167 -0.0367 -0.2274  0.1527
  820loPI   C2B11770   7.902  17.997   6.685 -0.2429 -0.0637 -0.2596
  820loPI   C3B11771   7.959  17.957   7.075 -0.1151 -0.1354 -0.1926
  820loPI   C4B11772   8.159  17.895   7.490  0.2218 -0.0876  0.3155
  821loPI    C111773   8.370  14.977   5.533  0.1725  0.1008 -0.1136
  821loPI    C211774   8.714  14.835   5.387  0.0161 -0.1816 -0.2173
  821loPI    C311775   8.378  14.803   5.173 -0.1221 -0.1370 -0.0100
  821loPI   PO411776   8.378  14.865   5.785 -0.1635  0.1738  0.0531
  821loPI   GL111777   7.870  14.995   5.799  0.1702 -0.0927  0.0083
  821loPI   GL211778   8.105  15.159   6.044  0.1825 -0.0349  0.0062
  821loPI   C1A11779   7.728  14.863   6.262  0.0825 -0.2848  0.0752
  821loPI   C2A11780   7.633  14.916   6.651  0.1005  0.0000  0.3977
  821loPI   C3A11781   7.496  14.844   7.041 -0.1901 -0.0170  0.0803
  821loPI   C4A11782   7.599  14.912   7.369  0.1065 -0.4070  0.0000
  821loPI   C5A11783   7.657  15.105   7.716 -0.2440  0.2642 -0.0122
  821loPI   C6A11784   7.686  15.513   7.837 -0.0396  0.0832  0.0900
  821loPI   C1B11785   8.298  15.211   6.430  0.1974 -0.1271  0.2254
  821loPI   C2B11786   8.443  15.288   6.833 -0.1714 -0.1386  0.1097
  821loPI   C3B11787   8.512  15.298   7.177  0.1815  0.1732 -0.1272
  821loPI   C4B11788   8.622  15.007   7.456 -0.0631 -0.2266  0.4155
  822loPI    C111789   6.108   0.508   4.944 -0.0895  0.1422 -0.0600
  822loPI    C211790   6.253   0.137   4.910 -0.1315  0.1156  0.0479
  822loPI    C311791   6.473   0.449   4.790 -0.0526  0.0636  0.0563
  822loPI   PO411792   6.044   0.501   5.199  0.1911 -0.1126  0.3213
  822loPI   GL111793   6.051   0.408   5.700  0.0256  0.2759  0.0119
  822loPI   GL211794   6.102   0.626   5.951 -0.0790  0.0638  0.1763
  822loPI   C1A11795   6.184   0.134   6.140  0.1414  0.3217  0.1494
  822loPI   C2A11796   6.193   0.090   6.504 -0.0736 -0.0440  0.0368
  822loPI   C3A11797   6.124  -0.087   6.943  0.4339  0.2258  0.2952
  822loPI   C4A11798   6.287  -0.283   7.267  0.1051  0.2317  0.1723
  822loPI   C5A11799   6.468  -0.319   7.696 -0.0629 -0.0233 -0.3430
  822loPI   C6A11800   6.592   0.020   7.942  0.2161  0.1102  0.0749
  822loPI   C1B11801   6.010   0.554   6.305 -0.1931  0.2079 -0.1687
  822loPI   C2B11802   6.001   0.411   6.802  0.3570  0.0471  0.0748
  822loPI   C3B11803   5.987   0.564   7.237 -0.1308  0.3431 -0.2476
  822loPI   C4B11804   5.714   0.582   7.594 -0.0745  0.2508 -0.0611
  823loPI    C111805   9.463   3.630   5.186 -0.2343 -0.1613 -0.2085
  823loPI    C211806   9.748   3.682   4.910 -0.0247  0.0157  0.0365
  823loPI    C311807   9.419   3.910   4.904  0.0893  0.1827  0.0725
  823loPI   PO411808   9.558   3.702   5.425  0.0508 -0.1428 -0.1566
  823loPI   GL111809   9.522   3.905   5.770 -0.1974  0.0505  0.4033
  823loPI   GL211810   9.670   4.151   5.703 -0.3295 -0.1376 -0.1402
  823loPI   C1A11811   9.590   3.906   6.181 -0.1614  0.1596 -0.2172
  823loPI   C2A11812   9.530   3.819   6.600  0.2891 -0.1486 -0.1369
  823loPI   C3A11813   9.489   3.811   7.045 -0.2651 -0.1246  0.1141
  823loPI   C4A11814   9.446   4.096   7.385  0.0170  0.2991  0.0544
  823loPI   C5A11815   9.058   4.242   7.608  0.0431 -0.0801  0.1853
  823loPI   C6A11816   8.866   4.123   7.911 -0.0934  0.1163  0.2811
  823loPI   C1B11817   9.593   4.435   6.068 -0.4725  0.0399  0.1959
  823loPI   C2B11818   9.561   4.354   6.481 -0.1134 -0.0435  0.0086
  823loPI   C3B11819   9.361   4.379   6.885 -0.2017 -0.1008 -0.0344
  823loPI   C4B11820   9.257   4.634   7.298 -0.0311 -0.2824  0.0374
  824loPI    C111821   4.128  16.098   5.298  0.1594 -0.0302  0.1720
  824loPI    C211822   3.884  15.800   5.187  0.0588 -0.0263  0.3776
  824loPI    C311823   4.254  15.823   5.036 -0.0496 -0.0602  0.1002
  824loPI   PO411824   4.064  16.137   5.531  0.3042 -0.1448 -0.1062
  824loPI   GL111825   4.193  16.159   5.976 -0.0303  0.0531  0.0862
  824loPI   GL211826   4.281  16.427   5.997 -0.0853 -0.0855 -0.4953
  824loPI   C1A11827   4.340  15.982   6.279 -0.1816 -0.0033 -0.1419
  824loPI   C2A11828   4.403  15.967   6.668 -0.2669 -0.3276  0.1237
  824loPI   C3A11829   4.535  15.954   7.066 -0.0349 -0.2571  0.0681
  824loPI   C4A11830   4.584  15.877   7.443 -0.3100  0.2291  0.0047
  824loPI   C5A11831   4.448  16.102   7.839 -0.0336 -0.2602 -0.0163
  824loPI   C6A11832   4.142  15.983   8.160  0.3570  0.1192  0.0288
  824loPI   C1B11833   4.286  16.529   6.501 -0.0725  0.0745 -0.0386
  824loPI   C2B11834   4.254  16.372   6.913 -0.0934  0.1032  0.0279
  824loPI   C3B11835   4.347  16.421   7.345 -0.0581  0.1288 -0.1141
  824loPI   C4B11836   4.012  16.532   7.664 -0.3148 -0.4336  0.2808
  825loPI    C111837  15.600  12.812   5.535  0.0338 -0.0184  0.1673
  825loPI    C211838  15.805  13.151   5.481  0.1174 -0.0711  0.1531
  825loPI    C311839  15.902  12.823   5.273 -0.1198 -0.0386 -0.0129
  825loPI   PO411840  15.526  12.778   5.797 -0.0333  0.0974 -0.0215
  825loPI   GL111841  15.598  12.501   6.144 -0.2160 -0.2183 -0.0019
  825loPI   GL211842  15.667  12.285   6.328 -0.2405  0.0885  0.1497
  825loPI   C1A11843  15.665  12.746   6.503  0.3718  0.0075 -0.0203
  825loPI   C2A11844  15.646  12.676   6.991 -0.1169 -0.2029  0.3117
  825loPI   C3A11845  15.667  12.684   7.453  0.4259  0.1088 -0.2355
  825loPI   C4A11846  15.906  12.858   7.787  0.3337  0.1189  0.1343
  825loPI   C5A11847  16.178  12.997   8.273 -0.0005 -0.1701  0.0305
  825loPI   C6A11848  16.257  13.177   8.656 -0.0955 -0.1934  0.0998
  825loPI   C1B11849  15.672  12.213   6.797 -0.4206  0.0325  0.0059
  825loPI   C2B11850  15.855  12.264   7.237 -0.1132  0.2179 -0.1933
  825loPI   C3B11851  16.019  12.318   7.677 -0.3497  0.2971  0.4355
  825loPI   C4B11852  16.213  12.476   8.047 -0.2398 -0.0004 -0.0467
  826loPI    C111853  14.333  10.866   5.730  0.0012  0.0474  0.0752
  826loPI    C211854  14.547  10.995   5.418 -0.0328  0.0129  0.0375
  826loPI    C311855  14.575  10.614   5.536  0.0220  0.0395  0.1113
  826loPI   PO411856  14.437  10.888   5.999  0.2006  0.0830 -0.0943
  826loPI   GL111857  14.419  10.799   6.441  0.1461  0.0770  0.0844
  826loPI   GL211858  14.210  10.545   6.575 -0.0844  0.0929 -0.1927
  826loPI   C1A11859  14.352  11.072   6.893 -0.1053 -0.2349  0.0300
  826loPI   C2A11860  14.541  11.304   7.122 -0.2329  0.0900  0.0718
  826loPI   C3A11861  14.692  11.549   7.457  0.3171 -0.0533 -0.1902
  826loPI   C4A11862  14.651  11.641   7.808  0.0117 -0.2762 -0.0166
  826loPI   C5A11863  14.330  11.677   8.183  0.1118 -0.2145 -0.0325
  826loPI   C6A11864  13.866  11.646   8.192  0.1026 -0.1473 -0.1605
  826loPI   C1B11865  14.084  10.659   6.934 -0.1192 -0.1923  0.4685
  826loPI   C2B11866  14.092  10.633   7.321 -0.1951  0.2206  0.0281
  826loPI   C3B11867  13.781  10.564   7.726  0.1522  0.1031  0.0785
  826loPI   C4B11868  13.758  10.557   8.122 -0.0049  0.1137 -0.0629
  827loPI    C111869  12.831  12.863   5.675  0.3646 -0.3298  0.0169
  827loPI    C211870  12.892  13.062   5.333 -0.0581 -0.0756  0.0836
  827loPI    C311871  13.085  12.719   5.401  0.0628 -0.1082 -0.3909
  827loPI   PO411872  12.799  12.959   5.902  0.1450  0.0936 -0.2725
  827loPI   GL111873  12.768  12.806   6.265  0.1091  0.2546  0.1097
  827loPI   GL211874  12.394  12.785   6.148 -0.0326  0.2892 -0.0180
  827loPI   C1A11875  12.572  12.710   6.661 -0.2341  0.0907  0.0744
  827loPI   C2A11876  12.337  12.666   7.006 -0.0070  0.0678  0.0517
  827loPI   C3A11877  12.076  12.748   7.316  0.2797 -0.1592  0.1910
  827loPI   C4A11878  11.733  12.679   7.630 -0.1617  0.2377 -0.2874
  827loPI   C5A11879  11.464  12.633   8.015  0.0287  0.0740 -0.1509
  827loPI   C6A11880  11.060  12.893   8.076 -0.1836 -0.1186 -0.2527
  827loPI   C1B11881  12.087  12.693   6.503  0.0636  0.3240 -0.1533
  827loPI   C2B11882  11.972  12.393   6.885  0.1412 -0.6663 -0.2391
  827loPI   C3B11883  11.889  12.202   7.205 -0.1831  0.0645  0.3173
  827loPI   C4B11884  11.866  12.204   7.583 -0.2528 -0.1725  0.0094
  828loPI    C111885   0.480  17.619   5.635 -0.0527  0.0929  0.1092
  828loPI    C211886   0.480  17.837   5.300 -0.1493 -0.2825 -0.1415
  828loPI    C311887   0.134  17.733   5.471 -0.1006 -0.1062  0.0695
  828loPI   PO411888   0.572  17.704   5.794 -0.1035  0.1923 -0.3422
  828loPI   GL111889   0.678  17.876   6.149 -0.3682  0.0603 -0.3287
  828loPI   GL211890   0.950  17.771   6.231 -0.2546 -0.1054 -0.2061
  828loPI   C1A11891   0.560  17.631   6.468 -0.3236  0.1119  0.3523
  828loPI   C2A11892   0.579  17.388   6.781  0.0919  0.5082  0.0460
  828loPI   C3A11893   0.612  17.201   7.178  0.2219 -0.1089 -0.1478
  828loPI   C4A11894   0.529  17.491   7.508  0.3815  0.0704  0.3159
  828loPI   C5A11895   0.305  17.709   7.829 -0.0461  0.0639 -0.1572
  828loPI   C6A11896  -0.121  17.690   8.063 -0.1526 -0.1193  0.0319
  828loPI   C1B11897   0.950  17.777   6.753  0.2727  0.0824 -0.0417
  828loPI   C2B11898   0.886  17.609   7.206 -0.0401 -0.1043  0.1940
  828loPI   C3B11899   1.006  17.678   7.622  0.0847  0.2613  0.2981
  828loPI   C4B11900   1.138  17.763   7.967  0.1884  0.0422 -0.0173
  829loPI    C111901  16.730  15.920   5.305 -0.1658 -0.1142 -0.1598
  829loPI    C211902  17.087  15.812   5.160 -0.2168  0.0069 -0.3800
  829loPI    C311903  16.875  16.097   4.977 -0.1741  0.3417  0.0746
  829loPI   PO411904  16.825  15.815   5.588 -0.0367 -0.0053  0.0088
  829loPI   GL111905  16.737  15.722   6.002  0.0999  0.0124 -0.1158
  829loPI   GL211906  17.042  15.736   6.037  0.1902  0.0469 -0.0124
  829loPI   C1A11907  16.611  16.024   6.386  0.0061 -0.2970  0.0439
  829loPI   C2A11908  16.582  15.917   6.858 -0.0394 -0.1522  0.2681
  829loPI   C3A11909  16.874  15.953   7.206  0.0501  0.1762  0.0755
  829loPI   C4A11910  16.929  15.932   7.647 -0.1604  0.0140  0.0701
  829loPI   C5A11911  17.188  15.687   7.874  0.0745  0.1167  0.3407
  829loPI   C6A11912  17.385  15.575   8.291 -0.0585 -0.2178  0.2796
  829loPI   C1B11913  16.994  15.683   6.428  0.0778  0.1493  0.0806
  829loPI   C2B11914  16.992  15.531   6.824  0.0757  0.2833 -0.1391
  829loPI   C3B11915  16.946  15.354   7.171 -0.1197  0.1115  0.0217
  829loPI   C4B11916  16.956  15.268   7.561  0.2617 -0.0480 -0.1708
  830loPI    C111917   4.763   4.246   5.310  0.4087 -0.1898  0.3194
  830loPI    C211918   4.651   3.950   5.066  0.0415  0.1065  0.1166
  830loPI    C311919   4.916   4.222   4.941 -0.0332  0.1728  0.1018
  830loPI   PO411920   4.427   4.302   5.487  0.0389  0.0666 -0.0118
  830loPI   GL111921   4.123   4.492   5.757 -0.1964 -0.2854  0.0157
  830loPI   GL211922   4.435   4.494   5.939 -0.3286 -0.0587  0.0645
  830loPI   C1A11923   3.921   4.420   6.185  0.1772 -0.0423  0.0627
  830loPI   C2A11924   3.872   4.662   6.517  0.0974  0.1701  0.0029
  830loPI   C3A11925   3.896   4.557   6.974  0.3745 -0.0322 -0.0587
  830loPI   C4A11926   4.132   4.284   7.197  0.2123  0.2971 -0.1345
  830loPI   C5A11927   4.300   4.235   7.553 -0.1729 -0.0994 -0.0233
  830loPI   C6A11928   4.397   4.037   7.833 -0.1509 -0.1615 -0.0006
  830loPI   C1B11929   4.885   4.364   6.285  0.2006  0.0348 -0.0546
  830loPI   C2B11930   5.136   4.274   6.644  0.0674 -0.1039  0.0681
  830loPI   C3B11931   5.106   4.333   7.049  0.1844  0.3993 -0.2959
  830loPI   C4B11932   5.490   4.210   7.329  0.2235  0.0565  0.0992
  831loPI    C111933  12.036  16.524   5.391 -0.1320  0.2561 -0.1550
  831loPI    C211934  11.652  16.453   5.480 -0.0238 -0.0920  0.0526
  831loPI    C311935  11.773  16.453   5.098 -0.2501  0.1360 -0.0214
  831loPI   PO411936  12.096  16.568   5.682 -0.2958  0.2564 -0.4480
  831loPI   GL111937  12.068  16.567   6.163  0.1257 -0.1029 -0.0353
  831loPI   GL211938  11.889  16.362   6.238  0.0561  0.1201  0.2859
  831loPI   C1A11939  12.309  16.864   6.416 -0.1202  0.0529  0.1634
  831loPI   C2A11940  12.315  16.915   6.812 -0.1178 -0.1226 -0.0944
  831loPI   C3A11941  12.209  17.023   7.258  0.1211 -0.0715 -0.0720
  831loPI   C4A11942  12.178  17.334   7.712  0.1666  0.2414 -0.2322
  831loPI   C5A11943  12.340  17.573   8.032 -0.0205  0.0218 -0.0300
  831loPI   C6A11944  12.244  17.963   7.953 -0.1384 -0.1567 -0.0490
  831loPI   C1B11945  11.836  16.591   6.595 -0.0333 -0.3478 -0.2937
  831loPI   C2B11946  11.925  16.654   7.001  0.0846  0.0741 -0.0969
  831loPI   C3B11947  12.053  16.601   7.473  0.0064 -0.1870 -0.0150
  831loPI   C4B11948  12.164  16.767   7.788 -0.3283  0.3199  0.0405
  832loPI    C111949  17.938   2.218   5.514  0.0045 -0.1729  0.1437
  832loPI    C211950  18.185   2.111   5.810  0.0754  0.0837  0.1790
  832loPI    C311951  18.327   2.163   5.440 -0.0055 -0.1939  0.1071
  832loPI   PO411952  17.624   2.035   5.533  0.0832  0.1626 -0.2776
  832loPI   GL111953  17.491   2.006   5.943  0.0765  0.0552  0.1412
  832loPI   GL211954  17.785   1.842   6.014  0.0795 -0.1606 -0.1006
  832loPI   C1A11955  17.433   2.050   6.438  0.1064 -0.0595 -0.1485
  832loPI   C2A11956  17.400   2.080   6.988  0.1672  0.0110  0.0744
  832loPI   C3A11957  17.455   1.909   7.306 -0.3434 -0.0796  0.0973
  832loPI   C4A11958  17.604   1.927   7.663  0.1093 -0.3953  0.1232
  832loPI   C5A11959  17.684   2.066   8.094 -0.0016  0.0910 -0.1513
  832loPI   C6A11960  17.910   2.381   8.288 -0.1292  0.2489  0.0643
  832loPI   C1B11961  17.732   1.627   6.417  0.1075  0.0348 -0.0375
  832loPI   C2B11962  17.721   1.667   6.899 -0.0197  0.0132 -0.0390
  832loPI   C3B11963  17.852   1.552   7.304  0.0563  0.1725  0.1220
  832loPI   C4B11964  17.894   1.451   7.673 -0.2578  0.0361  0.0481
  833loPI    C111965   6.464   3.296   5.064 -0.1648 -0.0387 -0.0752
  833loPI    C211966   6.635   3.103   4.758 -0.0377 -0.2732  0.1402
  833loPI    C311967   6.825   3.408   4.934 -0.0690 -0.1998  0.0471
  833loPI   PO411968   6.416   3.080   5.243  0.1909  0.2577 -0.0058
  833loPI   GL111969   6.463   2.894   5.610 -0.0633 -0.3508  0.0793
  833loPI   GL211970   6.483   2.578   5.596 -0.0472  0.1556  0.0927
  833loPI   C1A11971   6.452   2.954   6.102 -0.0624 -0.0508 -0.2058
  833loPI   C2A11972   6.403   2.768   6.471  0.0443  0.1105  0.1502
  833loPI   C3A11973   6.416   2.650   6.906  0.1061 -0.1308 -0.0433
  833loPI   C4A11974   6.334   2.736   7.387 -0.0018  0.1106 -0.0869
  833loPI   C5A11975   6.294   2.807   7.829  0.1056  0.1417 -0.1970
  833loPI   C6A11976   6.249   2.488   8.131  0.0999  0.0349 -0.1159
  833loPI   C1B11977   6.607   2.333   6.020  0.0794 -0.1214 -0.4828
  833loPI   C2B11978   6.652   2.298   6.502 -0.2769  0.1904 -0.1107
  833loPI   C3B11979   6.671   2.254   6.880 -0.0446  0.0182 -0.0628
  833loPI   C4B11980   6.509   2.252   7.264 -0.0907  0.1125  0.0208
  834loPI    C111981   0.182  16.995   5.651 -0.0065  0.3446  0.0918
  834loPI    C211982   0.564  16.877   5.649 -0.0542  0.1879 -0.1280
  834loPI    C311983   0.447  17.174   5.891  0.1894  0.1837 -0.0028
  834loPI   PO411984   0.025  16.735   5.695 -0.1596  0.0027  0.0729
  834loPI   GL111985   0.054  16.395   5.955 -0.2831 -0.0618 -0.1370
  834loPI   GL211986   0.367  16.187   6.119 -0.3196 -0.0662  0.1384
  834loPI   C1A11987  -0.045  16.349   6.286 -0.0504  0.2651 -0.0943
  834loPI   C2A11988  -0.137  16.550   6.673 -0.2455 -0.3759  0.2063
  834loPI   C3A11989  -0.167  16.688   7.072 -0.0245 -0.3239 -0.1109
  834loPI   C4A11990  -0.243  16.721   7.485  0.0231 -0.1238 -0.0373
  834loPI   C5A11991  -0.109  16.850   7.804 -0.1035  0.2248  0.0411
  834loPI   C6A11992  -0.039  17.224   8.022 -0.0131  0.0623 -0.3468
  834loPI   C1B11993   0.244  16.026   6.554  0.1345 -0.1651  0.0045
  834loPI   C2B11994   0.096  16.158   6.818 -0.0268  0.1959 -0.0035
  834loPI   C3B11995   0.103  16.302   7.271 -0.1137  0.0243 -0.1666
  834loPI   C4B11996   0.063  16.351   7.739  0.1456 -0.0732  0.3129
  835loPI    C111997   9.987  14.265   5.582 -0.1772 -0.3291  0.0741
  835loPI    C211998  10.267  14.539   5.501 -0.3811 -0.0707  0.2265
  835loPI    C311999  10.243  14.206   5.281 -0.1397  0.0399  0.0289
  835loPI   PO412000  10.114  14.229   5.903  0.2600  0.0919  0.0935
  835loPI   GL112001  10.149  13.904   6.163  0.0257  0.0475 -0.4535
  835loPI   GL212002  10.511  13.902   6.099 -0.0345 -0.2165 -0.1262
  835loPI   C1A12003  10.215  14.100   6.517 -0.4395  0.0301  0.0551
  835loPI   C2A12004  10.170  14.209   6.920 -0.0564  0.0033 -0.0776
  835loPI   C3A12005  10.037  13.833   7.218 -0.4260  0.1243  0.0877
  835loPI   C4A12006   9.901  14.070   7.517 -0.0002 -0.0200 -0.1745
  835loPI   C5A12007   9.646  13.886   7.832  0.2350 -0.0365  0.0546
  835loPI   C6A12008   9.630  13.820   8.258 -0.0132  0.0811 -0.0047
  835loPI   C1B12009  10.518  13.712   6.429  0.0740  0.1560 -0.0189
  835loPI   C2B12010  10.569  13.519   6.833 -0.1037 -0.1356  0.2412
  835loPI   C3B12011  10.478  13.427   7.196 -0.5177 -0.2114  0.4122
  835loPI   C4B12012  10.311  13.031   7.517  0.0451 -0.0566  0.0282
  836loPI    C112013  10.924  12.225   5.861  0.0238 -0.0144  0.0307
  836loPI    C212014  10.852  12.609   5.948  0.1780 -0.0282  0.2279
  836loPI    C312015  11.132  12.514   5.678 -0.1767  0.0093 -0.1628
  836loPI   PO412016  10.709  12.107   5.950 -0.1239  0.0282 -0.1085
  836loPI   GL112017  10.622  11.881   6.347 -0.0290  0.0241  0.0948
  836loPI   GL212018  10.734  11.680   6.222 -0.3794 -0.2342 -0.1978
  836loPI   C1A12019  11.082  11.815   6.609 -0.1710  0.2032  0.0357
  836loPI   C2A12020  11.319  11.917   6.943  0.0418 -0.2758 -0.0779
  836loPI   C3A12021  11.545  11.798   7.278 -0.0834 -0.1281 -0.0290
  836loPI   C4A12022  11.739  11.682   7.709 -0.0687 -0.0045  0.0596
  836loPI   C5A12023  11.964  11.684   8.132  0.0106 -0.2141  0.0483
  836loPI   C6A12024  12.050  11.905   8.533  0.2863 -0.0333  0.2690
  836loPI   C1B12025  10.687  11.404   6.543  0.0227  0.2061 -0.0142
  836loPI   C2B12026  10.678  11.485   6.953  0.2981 -0.1904  0.0899
  836loPI   C3B12027  10.802  11.541   7.426  0.2056 -0.1110  0.0702
  836loPI   C4B12028  10.761  11.660   7.920 -0.1424 -0.2616  0.5133
  837loPI    C112029  12.412   6.639   5.420 -0.0632 -0.1252 -0.0462
  837loPI    C212030  12.514   6.257   5.477  0.0001 -0.0925  0.0609
  837loPI    C312031  12.398   6.380   5.115  0.0470 -0.1976  0.0098
  837loPI   PO412032  12.357   6.679   5.676  0.0858 -0.1774 -0.3053
  837loPI   GL112033  12.617   6.536   5.973  0.1903  0.4366  0.1240
  837loPI   GL212034  12.212   6.486   6.138 -0.2619  0.1769 -0.3339
  837loPI   C1A12035  12.589   6.406   6.410  0.0343  0.0055  0.4473
  837loPI   C2A12036  12.514   6.525   6.822 -0.3261  0.2687  0.1337
  837loPI   C3A12037  12.412   6.480   7.215  0.2971  0.0486 -0.0425
  837loPI   C4A12038  12.273   6.534   7.566  0.1253  0.0383  0.1193
  837loPI   C5A12039  12.065   6.703   7.907  0.0952  0.0050 -0.0310
  837loPI   C6A12040  11.827   6.969   8.043  0.1748  0.2243 -0.3275
  837loPI   C1B12041  11.994   6.736   6.529 -0.0383  0.1254  0.1249
  837loPI   C2B12042  12.062   6.803   6.901 -0.0785  0.1031  0.0778
  837loPI   C3B12043  11.908   6.721   7.306  0.2290  0.0284  0.0626
  837loPI   C4B12044  11.683   6.913   7.513 -0.0158 -0.1370  0.0040
  838loPI    C112045  17.684   7.686   5.798 -0.0664 -0.1606 -0.2327
  838loPI    C212046  18.054   7.788   5.910 -0.1989  0.0720  0.0026
  838loPI    C312047  17.969   7.741   5.522  0.0554  0.0999 -0.0583
  838loPI   PO412048  17.546   7.432   5.955  0.3426  0.2226  0.2013
  838loPI   GL112049  17.460   7.213   6.314 -0.3893  0.0551 -0.1383
  838loPI   GL212050  17.266   7.535   6.376 -0.1167  0.0868 -0.1521
  838loPI   C1A12051  17.385   7.003   6.652  0.0109 -0.0305  0.1830
  838loPI   C2A12052  17.107   6.967   6.984  0.2699  0.2862  0.0750
  838loPI   C3A12053  17.029   6.817   7.392  0.0832 -0.0834 -0.0501
  838loPI   C4A12054  17.021   6.597   7.920  0.0516 -0.4368 -0.0567
  838loPI   C5A12055  16.867   6.472   8.290 -0.0654  0.1224  0.2935
  838loPI   C6A12056  16.476   6.587   8.526 -0.0932 -0.0069  0.1980
  838loPI   C1B12057  17.001   7.375   6.729 -0.1202  0.4581  0.0829
  838loPI   C2B12058  16.783   7.320   7.072  0.1407  0.1221 -0.1531
  838loPI   C3B12059  16.641   7.145   7.472  0.0237  0.0174 -0.1492
  838loPI   C4B12060  16.886   7.143   7.813 -0.0235 -0.1055  0.0755
  839loPI    C112061   4.807  12.658   5.240 -0.0392  0.0703 -0.1065
  839loPI    C212062   5.065  12.713   4.939  0.1342  0.2088  0.0651
  839loPI    C312063   4.803  13.000   5.033  0.1951  0.2358  0.1545
  839loPI   PO412064   4.962  12.550   5.465 -0.2005  0.0824  0.0172
  839loPI   GL112065   4.996  12.345   5.792 -0.2167  0.0433  0.0291
  839loPI   GL212066   5.316  12.397   5.820  0.1265 -0.3051  0.1744
  839loPI   C1A12067   4.939  12.133   6.267 -0.1954 -0.2490 -0.1946
  839loPI   C2A12068   5.212  11.886   6.618 -0.0329 -0.1041  0.0669
  839loPI   C3A12069   5.226  11.642   6.971 -0.0790  0.0856 -0.2006
  839loPI   C4A12070   5.068  11.666   7.409  0.0014 -0.1459  0.2241
  839loPI   C5A12071   4.826  11.871   7.767  0.2833 -0.2292  0.2608
  839loPI   C6A12072   4.734  11.719   8.207  0.1177  0.2940 -0.1171
  839loPI   C1B12073   5.440  12.458   6.295  0.0212 -0.0459 -0.0696
  839loPI   C2B12074   5.244  12.429   6.627 -0.1695 -0.2794  0.2088
  839loPI   C3B12075   5.138  12.215   6.994  0.1786 -0.3136 -0.0705
  839loPI   C4B12076   4.866  12.166   7.314 -0.1693 -0.2170  0.1824
  840loPI    C112077  15.713  17.944   5.571 -0.0154 -0.0015 -0.0731
  840loPI    C212078  16.044  17.812   5.389  0.0402  0.0568 -0.0148
  840loPI    C312079  16.065  18.120   5.644 -0.0506  0.0271  0.0288
  840loPI   PO412080  15.637  17.772   5.809 -0.2351 -0.3202 -0.0443
  840loPI   GL112081  15.672  17.559   6.278  0.0617  0.0511 -0.1175
  840loPI   GL212082  16.011  17.423   6.264 -0.0733  0.0859 -0.0278
  840loPI   C1A12083  15.586  17.382   6.763 -0.2468  0.0415 -0.1088
  840loPI   C2A12084  15.641  17.359   7.136 -0.3002  0.1171 -0.2761
  840loPI   C3A12085  15.599  17.471   7.526 -0.0296 -0.3968  0.0978
  840loPI   C4A12086  15.795  17.346   7.916  0.1324  0.1712 -0.1532
  840loPI   C5A12087  15.879  17.415   8.303  0.2882 -0.0260  0.2005
  840loPI   C6A12088  16.238  17.617   8.519  0.0580 -0.1262 -0.4044
  840loPI   C1B12089  16.102  17.369   6.684  0.1467 -0.0261  0.2241
  840loPI   C2B12090  16.187  17.380   7.179  0.1072  0.3936 -0.1183
  840loPI   C3B12091  16.232  17.302   7.639  0.0535 -0.0353  0.0575
  840loPI   C4B12092  16.320  17.554   8.071 -0.0543 -0.1204  0.0014
  841loPI    C112093  14.401  10.314   5.857 -0.2040  0.2233  0.0813
  841loPI    C212094  14.057  10.422   5.683 -0.2108  0.0839  0.0067
  841loPI    C312095  14.181  10.042   5.661 -0.1585  0.0877  0.2168
  841loPI   PO412096  14.363  10.394   6.093  0.1513 -0.2896  0.2201
  841loPI   GL112097  14.694  10.392   6.411 -0.1341  0.0935  0.3356
  841loPI   GL212098  14.780  10.088   6.492  0.0672  0.1509 -0.2127
  841loPI   C1A12099  14.574  10.283   6.861  0.1282 -0.2534  0.0206
  841loPI   C2A12100  14.457  10.289   7.289 -0.0939 -0.1757 -0.0280
  841loPI   C3A12101  14.406  10.267   7.780 -0.2221  0.0628 -0.0285
  841loPI   C4A12102  14.257  10.427   8.173 -0.0724 -0.3569  0.3485
  841loPI   C5A12103  14.418  10.781   8.437  0.0917 -0.2209  0.0581
  841loPI   C6A12104  14.406  10.820   8.917  0.1225 -0.1544  0.2030
  841loPI   C1B12105  15.007   9.992   6.800 -0.4649 -0.2510  0.0490
  841loPI   C2B12106  15.205   9.994   7.146 -0.2109  0.3670 -0.2778
  841loPI   C3B12107  15.234   9.807   7.636 -0.1701 -0.1727 -0.1832
  841loPI   C4B12108  15.512   9.552   7.874 -0.1389  0.3621 -0.1219
  842loPI    C112109   5.937  18.175   5.270  0.0575 -0.0980 -0.0299
  842loPI    C212110   5.711  17.970   5.011  0.0824 -0.0395 -0.0981
  842loPI    C312111   5.712  18.370   5.003  0.2455 -0.0401 -0.1476
  842loPI   PO412112   5.959  18.032   5.472 -0.1105  0.0614 -0.0289
  842loPI   GL112113   5.900  17.613   5.704  0.0647 -0.3988 -0.1660
  842loPI   GL212114   5.864  17.893   5.935 -0.0708  0.0008 -0.0668
  842loPI   C1A12115   6.221  17.493   5.956  0.1173 -0.0146  0.0736
  842loPI   C2A12116   6.333  17.450   6.326  0.1523 -0.0548 -0.2325
  842loPI   C3A12117   6.126  17.355   6.709  0.1101 -0.3371  0.1792
  842loPI   C4A12118   6.118  17.380   7.166  0.0021 -0.0223  0.3097
  842loPI   C5A12119   5.879  17.634   7.496  0.2852  0.0247 -0.0811
  842loPI   C6A12120   5.477  17.722   7.488 -0.0601 -0.1508  0.0120
  842loPI   C1B12121   5.697  18.204   6.209 -0.0837  0.2055 -0.2750
  842loPI   C2B12122   5.628  18.297   6.648 -0.2112  0.3563 -0.0172
  842loPI   C3B12123   5.723  18.331   7.136 -0.0909  0.0210 -0.0168
  842loPI   C4B12124   5.952  18.174   7.555  0.0747  0.1584 -0.0425
  843loPI    C112125  11.920   5.867   5.563 -0.2064  0.1447 -0.3090
  843loPI    C212126  12.116   6.133   5.787  0.0998 -0.1993 -0.1572
  843loPI    C312127  12.023   6.221   5.408  0.0102  0.1988 -0.0477
  843loPI   PO412128  11.744   5.767   5.764  0.1822  0.0062 -0.0433
  843loPI   GL112129  11.522   5.741   6.107 -0.0587  0.0050  0.0618
  843loPI   GL212130  11.253   5.479   6.090 -0.0312  0.0579  0.3446
  843loPI   C1A12131  11.567   5.831   6.469  0.2914 -0.0169  0.2428
  843loPI   C2A12132  11.411   5.973   6.986  0.0454 -0.1821  0.3134
  843loPI   C3A12133  11.393   6.010   7.457  0.1700 -0.3002 -0.0159
  843loPI   C4A12134  11.438   6.293   7.865  0.1298 -0.1102 -0.2009
  843loPI   C5A12135  11.486   6.571   8.279  0.2684 -0.1701 -0.0742
  843loPI   C6A12136  11.135   6.569   8.655  0.1567 -0.0758  0.2688
  843loPI   C1B12137  11.241   5.459   6.592 -0.1301 -0.2458  0.1936
  843loPI   C2B12138  11.353   5.349   6.982 -0.0044  0.0681  0.0149
  843loPI   C3B12139  11.444   5.490   7.369 -0.2444  0.1616 -0.0286
  843loPI   C4B12140  11.553   5.641   7.797  0.2820  0.1705 -0.4208
  844loPI    C112141  12.527   5.700   5.539  0.0140  0.0695  0.1805
  844loPI    C212142  12.230   5.508   5.352 -0.0482  0.2287  0.1135
  844loPI    C312143  12.358   5.861   5.214  0.2073  0.1376  0.1121
  844loPI   PO412144  12.392   5.638   5.804 -0.1962 -0.1534  0.0191
  844loPI   GL112145  12.516   5.587   6.210  0.0939 -0.1537 -0.0055
  844loPI   GL212146  12.283   5.408   6.340  0.2590 -0.0878  0.3307
  844loPI   C1A12147  12.633   5.924   6.501  0.2894 -0.0582 -0.3569
  844loPI   C2A12148  12.555   6.012   7.073 -0.3021 -0.0179  0.2674
  844loPI   C3A12149  12.329   6.016   7.506  0.0379  0.1195 -0.1589
  844loPI   C4A12150  12.400   6.206   7.874  0.0507  0.0236  0.0943
  844loPI   C5A12151  12.509   6.126   8.380 -0.3133 -0.0169 -0.0480
  844loPI   C6A12152  12.966   6.201   8.598 -0.0577  0.3485  0.0693
  844loPI   C1B12153  12.327   5.589   6.759  0.0455  0.0671  0.1433
  844loPI   C2B12154  12.300   5.599   7.202  0.3060 -0.4103  0.0869
  844loPI   C3B12155  12.230   5.484   7.690 -0.0867  0.0150 -0.3948
  844loPI   C4B12156  12.571   5.210   8.043  0.1210  0.3765 -0.2715
  845loPI    C112157  15.231   9.594   5.539 -0.1223  0.0609 -0.0165
  845loPI    C212158  15.333   9.966   5.647  0.1538 -0.0383  0.0719
  845loPI    C312159  15.438   9.827   5.287 -0.2101  0.0704 -0.0803
  845loPI   PO412160  15.074   9.499   5.829 -0.3528  0.0997  0.0213
  845loPI   GL112161  14.953   9.606   6.143 -0.0015 -0.2086  0.0484
  845loPI   GL212162  15.275   9.768   6.204 -0.1844 -0.3659  0.0956
  845loPI   C1A12163  14.810   9.611   6.552 -0.3918  0.0478 -0.3382
  845loPI   C2A12164  14.354   9.680   6.725 -0.2027  0.0336 -0.0678
  845loPI   C3A12165  14.296   9.829   7.153 -0.1892 -0.2567  0.1090
  845loPI   C4A12166  14.328   9.757   7.569 -0.2033  0.1269 -0.1040
  845loPI   C5A12167  14.437   9.696   7.982  0.1479  0.0883 -0.0439
  845loPI   C6A12168  14.664   9.666   8.364  0.0766  0.1177 -0.1908
  845loPI   C1B12169  15.409   9.888   6.561 -0.4833  0.2716  0.1708
  845loPI   C2B12170  15.548  10.176   6.842 -0.2026 -0.0169  0.2335
  845loPI   C3B12171  15.487  10.525   7.107 -0.1362  0.1355  0.1339
  845loPI   C4B12172  15.504  10.809   7.377 -0.0113  0.3982  0.0583
  846loPI    C112173   3.876   9.220   5.743 -0.1689 -0.0543  0.3008
  846loPI    C212174   4.148   9.441   5.551 -0.3167 -0.0932  0.0428
  846loPI    C312175   4.253   9.235   5.877 -0.0304 -0.1285 -0.0682
  846loPI   PO412176   3.723   9.389   5.768  0.2933 -0.1459 -0.2590
  846loPI   GL112177   3.563   9.766   5.991 -0.1218  0.0013 -0.0386
  846loPI   GL212178   3.533   9.505   6.223 -0.3161  0.0675  0.0345
  846loPI   C1A12179   3.332   9.970   6.251  0.3242  0.2205  0.1116
  846loPI   C2A12180   3.439  10.193   6.674  0.0134 -0.1526 -0.0032
  846loPI   C3A12181   3.535  10.053   7.178  0.2353  0.0010  0.0360
  846loPI   C4A12182   3.710  10.139   7.635  0.0038 -0.0890  0.0123
  846loPI   C5A12183   3.782  10.304   8.034  0.0653  0.2618 -0.4058
  846loPI   C6A12184   4.223  10.198   8.198  0.0796  0.1254  0.1156
  846loPI   C1B12185   3.903   9.456   6.444 -0.1335  0.2602  0.0485
  846loPI   C2B12186   4.051   9.521   6.816 -0.2499 -0.0177  0.0587
  846loPI   C3B12187   4.208   9.332   7.220  0.1839 -0.1084 -0.2139
  846loPI   C4B12188   3.929   9.028   7.440 -0.2436  0.1453  0.0358
  847loPI    C112189  14.183   8.355   5.931 -0.1166  0.1051  0.1430
  847loPI    C212190  14.280   8.041   5.702 -0.0610 -0.0067  0.3174
  847loPI    C312191  13.958   8.262   5.613  0.2974  0.3223 -0.2241
  847loPI   PO412192  14.087   8.240   6.122 -0.0907 -0.0778  0.0617
  847loPI   GL112193  13.954   7.990   6.544 -0.0808 -0.0914 -0.2451
  847loPI   GL212194  13.925   7.684   6.402  0.1263 -0.2521 -0.0254
  847loPI   C1A12195  13.970   8.172   6.890 -0.2723  0.0103 -0.0700
  847loPI   C2A12196  14.073   8.318   7.314  0.0126 -0.1474 -0.0023
  847loPI   C3A12197  14.054   8.359   7.673  0.1383  0.0843 -0.1155
  847loPI   C4A12198  13.674   8.259   7.999 -0.1032 -0.1593  0.2052
  847loPI   C5A12199  13.411   8.092   8.262 -0.1253 -0.1700 -0.1026
  847loPI   C6A12200  13.215   7.753   8.362 -0.1351  0.2210 -0.2142
  847loPI   C1B12201  13.958   7.575   6.863  0.1434 -0.0095 -0.3087
  847loPI   C2B12202  13.856   7.829   7.233  0.1804  0.1161 -0.2010
  847loPI   C3B12203  13.873   7.888   7.686 -0.1282 -0.0457 -0.1768
  847loPI   C4B12204  14.205   8.003   7.992 -0.0290 -0.1399  0.0667
  848loPI    C112205   8.493  13.885   5.540 -0.1750  0.0005  0.0273
  848loPI    C212206   8.217  13.599   5.586 -0.1052 -0.0414  0.1945
  848loPI    C312207   8.498  13.561   5.304  0.0185 -0.2309  0.3412
  848loPI   PO412208   8.567  13.966   5.773  0.0247  0.0897  0.2013
  848loPI   GL112209   8.609  13.963   6.153  0.2141  0.2711  0.1642
  848loPI   GL212210   8.880  13.917   6.249 -0.1864  0.0400  0.1277
  848loPI   C1A12211   8.457  13.711   6.506  0.0346 -0.0542  0.2415
  848loPI   C2A12212   8.024  13.477   6.466 -0.1100 -0.0851  0.1880
  848loPI   C3A12213   7.917  13.713   6.792  0.3121 -0.1053  0.0927
  848loPI   C4A12214   7.786  13.705   7.195 -0.3137  0.1421  0.2459
  848loPI   C5A12215   7.738  13.600   7.598 -0.1524 -0.4332 -0.0709
  848loPI   C6A12216   7.737  13.834   7.999  0.1328  0.3314 -0.2851
  848loPI   C1B12217   9.030  13.781   6.639  0.0547  0.1930  0.0513
  848loPI   C2B12218   8.914  13.626   7.098  0.0078 -0.1140 -0.1516
  848loPI   C3B12219   8.643  13.471   7.341 -0.2305  0.1526  0.1250
  848loPI   C4B12220   8.582  13.124   7.556  0.3191 -0.1039  0.2653
  849loPI    C112221   8.165   6.843   5.166 -0.0396  0.2732 -0.2866
  849loPI    C212222   7.902   6.696   4.903  0.2007  0.0598 -0.4131
  849loPI    C312223   8.096   6.449   5.150  0.1095  0.2409 -0.1562
  849loPI   PO412224   8.009   7.043   5.341  0.0566  0.2177 -0.3185
  849loPI   GL112225   8.137   7.324   5.681  0.0237  0.1906  0.2119
  849loPI   GL212226   7.859   7.061   5.805 -0.3760  0.0996 -0.1811
  849loPI   C1A12227   8.111   7.375   6.201 -0.1313 -0.2538  0.0290
  849loPI   C2A12228   7.813   7.456   6.542  0.4119 -0.3937 -0.1075
  849loPI   C3A12229   7.757   7.259   6.919 -0.0239 -0.1344 -0.1695
  849loPI   C4A12230   7.826   6.884   7.168  0.1204 -0.2027 -0.2700
  849loPI   C5A12231   7.886   6.754   7.583  0.2553  0.1434 -0.0073
  849loPI   C6A12232   8.288   6.690   7.723 -0.0140  0.1399 -0.2979
  849loPI   C1B12233   7.893   6.952   6.217  0.2440 -0.1677 -0.1083
  849loPI   C2B12234   7.617   6.869   6.530 -0.1023 -0.1585  0.1186
  849loPI   C3B12235   7.168   6.886   6.511  0.0586 -0.1813  0.3214
  849loPI   C4B12236   6.912   7.133   6.212 -0.2538  0.1179  0.2120
  850loPI    C112237   1.904   3.524   5.767  0.0558 -0.1028 -0.1920
  850loPI    C212238   1.776   3.901   5.726  0.0619 -0.0728  0.0474
  850loPI    C312239   1.884   3.690   5.404  0.1192  0.1512 -0.0823
  850loPI   PO412240   1.758   3.448   5.960  0.0386  0.0926 -0.3429
  850loPI   GL112241   1.575   3.506   6.338  0.1237  0.1561 -0.0522
  850loPI   GL212242   1.444   3.248   6.335  0.0573  0.1265 -0.2639
  850loPI   C1A12243   1.631   3.552   6.845  0.1894  0.1500  0.2465
  850loPI   C2A12244   1.326   3.580   7.035  0.1143 -0.2160 -0.2785
  850loPI   C3A12245   1.201   3.474   7.411  0.1406 -0.0183  0.0120
  850loPI   C4A12246   1.285   3.696   7.749 -0.0581 -0.2703 -0.1402
  850loPI   C5A12247   1.385   3.877   8.136 -0.0605  0.0924 -0.0298
  850loPI   C6A12248   1.428   4.269   8.232  0.0516  0.1426  0.2343
  850loPI   C1B12249   1.523   3.057   6.721  0.3365  0.1265  0.2083
  850loPI   C2B12250   1.513   3.096   7.252 -0.2000  0.0864 -0.4432
  850loPI   C3B12251   1.405   3.090   7.717 -0.2925 -0.0332  0.3513
  850loPI   C4B12252   1.372   3.356   8.137 -0.0712 -0.0775 -0.2945
  851loPI    C112253  16.553   1.511   5.992  0.0783  0.0398 -0.0845
  851loPI    C212254  16.371   1.360   5.669 -0.1924 -0.2539  0.1985
  851loPI    C312255  16.185   1.634   5.894 -0.1048 -0.2298  0.2422
  851loPI   PO412256  16.683   1.161   6.075  0.0166  0.2057 -0.2384
  851loPI   GL112257  16.802   0.953   6.398 -0.2448  0.1549 -0.0999
  851loPI   GL212258  17.031   0.983   6.483 -0.4023  0.3204 -0.1273
  851loPI   C1A12259  16.511   1.011   6.749 -0.1222  0.0605 -0.1113
  851loPI   C2A12260  16.385   1.268   7.090 -0.1660 -0.2698  0.0818
  851loPI   C3A12261  16.463   1.030   7.498  0.0283 -0.1368  0.1965
  851loPI   C4A12262  16.465   0.895   7.935  0.2571 -0.0472  0.1914
  851loPI   C5A12263  16.624   1.005   8.189 -0.3226 -0.0553 -0.1610
  851loPI   C6A12264  16.871   0.889   8.479  0.1594  0.1562  0.1037
  851loPI   C1B12265  17.015   0.983   6.944  0.3568  0.0423  0.1127
  851loPI   C2B12266  17.171   0.898   7.286 -0.2547 -0.0842 -0.0536
  851loPI   C3B12267  17.342   0.950   7.626  0.1214 -0.1078  0.1930
  851loPI   C4B12268  17.128   0.918   7.926 -0.0421 -0.0163  0.3596
  852loPI    C112269  14.503  17.682   5.290  0.2306  0.0567  0.0146
  852loPI    C212270  14.622  18.055   5.212  0.2750  0.0734  0.1593
  852loPI    C312271  14.548  17.802   4.911 -0.0176  0.2798  0.0527
  852loPI   PO412272  14.370  17.724   5.581  0.0681  0.3597  0.1800
  852loPI   GL112273  14.218  17.871   5.874  0.0721  0.1740 -0.2030
  852loPI   GL212274  13.879  17.831   5.922 -0.0554  0.0619 -0.1396
  852loPI   C1A12275  14.046  18.071   6.328 -0.1988  0.0036 -0.4413
  852loPI   C2A12276  13.939  18.038   6.717  0.2090  0.1128 -0.4144
  852loPI   C3A12277  13.959  18.178   7.130 -0.0559 -0.1125 -0.2460
  852loPI   C4A12278  14.088  18.038   7.588 -0.1232 -0.0388  0.0877
  852loPI   C5A12279  14.370  18.188   7.930 -0.0721  0.1871 -0.1048
  852loPI   C6A12280  14.716  18.289   8.183 -0.1852 -0.1629  0.3943
  852loPI   C1B12281  13.729  17.639   6.158  0.2831 -0.0952 -0.4848
  852loPI   C2B12282  13.566  17.685   6.502 -0.1652 -0.3089  0.0125
  852loPI   C3B12283  13.612  17.766   6.937  0.0302  0.1879 -0.1226
  852loPI   C4B12284  13.620  17.862   7.436 -0.1857  0.3716 -0.1298
  853loPI    C112285  16.180   4.016   5.774 -0.2422  0.0742 -0.0040
  853loPI    C212286  16.267   4.253   5.463 -0.2105  0.0916  0.0180
  853loPI    C312287  16.222   3.860   5.408 -0.2315  0.0983 -0.0131
  853loPI   PO412288  16.374   4.041   5.976 -0.1057 -0.1452  0.2105
  853loPI   GL112289  16.312   4.200   6.386 -0.0927 -0.0292  0.0708
  853loPI   GL212290  16.551   4.367   6.344 -0.0265  0.2387 -0.3032
  853loPI   C1A12291  16.194   3.922   6.683 -0.1410  0.1921 -0.2688
  853loPI   C2A12292  16.093   3.579   6.957  0.2800 -0.2264  0.3554
  853loPI   C3A12293  15.945   3.168   7.182  0.0642 -0.1233 -0.3979
  853loPI   C4A12294  16.076   3.039   7.569 -0.2761 -0.1637  0.0091
  853loPI   C5A12295  16.067   3.101   7.967  0.2246  0.1382  0.3708
  853loPI   C6A12296  16.243   3.241   8.315 -0.0243 -0.0699 -0.0407
  853loPI   C1B12297  16.587   4.241   6.821  0.1430 -0.2659 -0.1209
  853loPI   C2B12298  16.339   3.986   7.186  0.1314 -0.0541 -0.0732
  853loPI   C3B12299  16.439   3.885   7.708  0.5304 -0.1555 -0.0617
  853loPI   C4B12300  16.809   3.986   8.067 -0.1622  0.1388 -0.0065
  854loPI    C112301   3.249  15.612   5.390 -0.0091 -0.1617 -0.0299
  854loPI    C212302   3.042  15.436   5.096 -0.0812  0.0600 -0.1136
  854loPI    C312303   3.373  15.644   5.011 -0.1779  0.2402 -0.0559
  854loPI   PO412304   3.130  15.668   5.592 -0.0337  0.2100 -0.1212
  854loPI   GL112305   3.308  15.448   5.970  0.2049  0.1168  0.0790
  854loPI   GL212306   3.566  15.371   5.983 -0.2862  0.0106  0.1824
  854loPI   C1A12307   3.103  15.452   6.347  0.0584 -0.1197 -0.0047
  854loPI   C2A12308   3.126  15.424   6.793  0.1507 -0.0684  0.1423
  854loPI   C3A12309   3.202  15.400   7.136 -0.3185 -0.3520 -0.1974
  854loPI   C4A12310   3.246  15.339   7.550 -0.2837 -0.1522 -0.1289
  854loPI   C5A12311   3.464  15.254   7.937 -0.2298 -0.2559  0.2266
  854loPI   C6A12312   3.840  15.011   8.143 -0.1317  0.5280  0.1239
  854loPI   C1B12313   3.649  15.412   6.466 -0.0407  0.2075 -0.2722
  854loPI   C2B12314   3.614  15.383   6.837  0.2056 -0.2036  0.0476
  854loPI   C3B12315   3.903  15.409   7.130 -0.1993  0.0503  0.1184
  854loPI   C4B12316   4.270  15.580   7.283  0.1262  0.1564 -0.2402
  855loPI    C112317  16.073  10.457   5.815  0.1282  0.0877 -0.2246
  855loPI    C212318  16.382  10.402   5.567  0.2807  0.4002 -0.1092
  855loPI    C312319  16.104  10.677   5.482 -0.0481  0.0234 -0.2844
  855loPI   PO412320  16.205  10.279   6.012 -0.1227  0.1198  0.1008
  855loPI   GL112321  16.388  10.418   6.382 -0.1673  0.2591 -0.1135
  855loPI   GL212322  16.415  10.074   6.461  0.0171  0.0016  0.0383
  855loPI   C1A12323  16.760  10.365   6.702 -0.1996 -0.0481  0.0449
  855loPI   C2A12324  16.800  10.476   7.068  0.2125  0.2190  0.0366
  855loPI   C3A12325  16.755  10.565   7.446 -0.1406 -0.0828  0.0969
  855loPI   C4A12326  16.625  10.684   7.859  0.1407 -0.2186 -0.1777
  855loPI   C5A12327  16.243  10.732   7.998  0.1906  0.0960  0.1921
  855loPI   C6A12328  15.825  10.939   7.756 -0.0591  0.2218 -0.3349
  855loPI   C1B12329  16.353  10.243   6.933  0.1290  0.1108  0.3039
  855loPI   C2B12330  16.400  10.208   7.334  0.0132  0.2678 -0.3721
  855loPI   C3B12331  16.308  10.272   7.762  0.3722 -0.3010 -0.1700
  855loPI   C4B12332  16.304  10.158   8.206  0.1185  0.0315  0.1684
  856loPI    C112333   9.189  17.376   5.150 -0.2624  0.2431  0.2327
  856loPI    C212334   9.442  17.269   5.440 -0.1433  0.1154  0.0836
  856loPI    C312335   9.194  16.998   5.282 -0.0259  0.1208 -0.1122
  856loPI   PO412336   9.065  17.601   5.229  0.0055 -0.1796 -0.1110
  856loPI   GL112337   8.912  17.756   5.586 -0.2660 -0.0866 -0.1192
  856loPI   GL212338   9.135  17.883   5.788  0.4202  0.1233 -0.0345
  856loPI   C1A12339   8.800  17.491   5.929  0.2280  0.0790 -0.0817
  856loPI   C2A12340   8.755  17.571   6.263 -0.3812 -0.1099 -0.0021
  856loPI   C3A12341   8.757  17.544   6.701  0.2254  0.0316 -0.3547
  856loPI   C4A12342   8.641  17.607   7.188  0.3353 -0.0435 -0.0863
  856loPI   C5A12343   8.547  17.555   7.682  0.0142 -0.2327  0.1834
  856loPI   C6A12344   8.444  17.297   7.972 -0.2670  0.0541  0.0417
  856loPI   C1B12345   9.232  17.839   6.162 -0.0092  0.1128 -0.0671
  856loPI   C2B12346   9.285  17.622   6.539  0.1751  0.2437  0.2149
  856loPI   C3B12347   9.219  17.517   6.988  0.1227  0.1054  0.0386
  856loPI   C4B12348   9.084  17.585   7.463 -0.0648 -0.5097 -0.0827
  857loPI    C112349  12.550   1.745   5.105  0.3885 -0.0504 -0.0700
  857loPI    C212350  12.856   1.986   5.014  0.2182  0.0776 -0.3135
  857loPI    C312351  12.555   1.938   4.755 -0.1251  0.2004  0.0512
  857loPI   PO412352  12.693   1.503   5.329  0.1336 -0.4114 -0.1379
  857loPI   GL112353  12.712   1.521   5.659  0.0099  0.4051  0.1735
  857loPI   GL212354  12.898   1.620   5.968  0.1304 -0.0859  0.1817
  857loPI   C1A12355  12.467   1.417   6.076  0.0845  0.0550  0.1952
  857loPI   C2A12356  12.486   1.555   6.613 -0.0531  0.1580 -0.0047
  857loPI   C3A12357  12.625   1.683   7.055  0.0411  0.1227  0.2112
  857loPI   C4A12358  12.583   1.756   7.541 -0.1363  0.3895 -0.0417
  857loPI   C5A12359  12.653   2.104   7.855  0.2821 -0.1368  0.0913
  857loPI   C6A12360  12.431   2.389   8.148  0.1280  0.0531 -0.1317
  857loPI   C1B12361  12.943   1.527   6.361 -0.1614 -0.1869  0.0371
  857loPI   C2B12362  12.974   1.484   6.767  0.1247 -0.1315  0.1689
  857loPI   C3B12363  13.076   1.557   7.155 -0.0957  0.1110  0.1677
  857loPI   C4B12364  13.033   1.883   7.377 -0.2336  0.3259  0.1017
  858loPI    C112365   7.193  15.466   5.162  0.1423 -0.3972  0.0156
  858loPI    C212366   7.284  15.621   4.805 -0.0584  0.1683  0.1991
  858loPI    C312367   7.008  15.333   4.834  0.1773 -0.0988 -0.1283
  858loPI   PO412368   7.215  15.629   5.311  0.1066 -0.0842 -0.0859
  858loPI   GL112369   7.164  15.589   5.686 -0.1805 -0.1901 -0.0668
  858loPI   GL212370   7.156  15.376   5.863  0.0193 -0.0473  0.0691
  858loPI   C1A12371   6.957  15.971   5.910  0.0261  0.1073 -0.1159
  858loPI   C2A12372   6.715  15.950   6.215  0.1680  0.2102 -0.3406
  858loPI   C3A12373   6.617  16.026   6.654  0.0093 -0.0279 -0.3578
  858loPI   C4A12374   6.604  16.045   7.196  0.2015 -0.1846 -0.0954
  858loPI   C5A12375   6.413  15.890   7.625  0.1093  0.0221 -0.1373
  858loPI   C6A12376   6.674  15.760   8.005 -0.0168  0.3637  0.1081
  858loPI   C1B12377   6.978  15.501   6.210 -0.0431 -0.2505  0.2768
  858loPI   C2B12378   6.826  15.492   6.689 -0.1862 -0.1810 -0.0011
  858loPI   C3B12379   6.645  15.541   7.078  0.2546 -0.1927  0.0270
  858loPI   C4B12380   6.283  15.526   7.360  0.2904  0.0621 -0.2155
  859loPI    C112381  14.329   0.299   5.322 -0.2184  0.3347  0.0170
  859loPI    C212382  14.125   0.037   5.545 -0.0637  0.2671  0.0804
  859loPI    C312383  14.097   0.024   5.146 -0.2390  0.3047  0.0907
  859loPI   PO412384  14.568   0.288   5.371 -0.0685 -0.3680 -0.0330
  859loPI   GL112385  14.718   0.388   5.801 -0.2059 -0.2505 -0.0421
  859loPI   GL212386  14.937   0.226   6.084  0.1662 -0.0445  0.1333
  859loPI   C1A12387  14.667   0.742   6.153 -0.1394  0.0433  0.1514
  859loPI   C2A12388  14.755   0.797   6.584  0.1422  0.2603  0.1020
  859loPI   C3A12389  14.656   0.767   7.106 -0.2053 -0.1711 -0.1550
  859loPI   C4A12390  14.709   0.673   7.539  0.0351  0.1233  0.2353
  859loPI   C5A12391  14.499   0.588   7.956  0.3748  0.0972 -0.1891
  859loPI   C6A12392  14.329   0.342   8.315 -0.1946 -0.1126  0.0580
  859loPI   C1B12393  14.874   0.335   6.457 -0.1754  0.4096 -0.0842
  859loPI   C2B12394  14.933   0.400   6.812 -0.4455  0.1928 -0.0519
  859loPI   C3B12395  14.830   0.292   7.243 -0.1016 -0.0464 -0.0457
  859loPI   C4B12396  14.768   0.175   7.668 -0.0048  0.1022 -0.0385
  860loPI    C112397   6.014  13.758   4.985 -0.1913  0.1863 -0.1248
  860loPI    C212398   6.373  13.729   5.159 -0.2134  0.1458 -0.0857
  860loPI    C312399   6.321  13.600   4.783 -0.2485 -0.0872 -0.0029
  860loPI   PO412400   5.847  13.840   5.206 -0.2019  0.0894  0.0051
  860loPI   GL112401   5.953  14.013   5.628 -0.0219  0.2146  0.0827
  860loPI   GL212402   6.281  13.909   5.641  0.3025 -0.0057  0.1320
  860loPI   C1A12403   6.032  14.213   5.975  0.0390 -0.1689  0.2858
  860loPI   C2A12404   5.982  14.186   6.406 -0.0336  0.2586  0.0416
  860loPI   C3A12405   5.978  14.247   6.816  0.4399 -0.0622  0.0622
  860loPI   C4A12406   6.002  13.806   7.122  0.2770 -0.0841  0.1778
  860loPI   C5A12407   6.019  13.651   7.528  0.0116  0.2995  0.4884
  860loPI   C6A12408   6.311  13.720   7.868  0.2798  0.1377  0.1314
  860loPI   C1B12409   6.423  13.962   6.122 -0.1859  0.0288 -0.1521
  860loPI   C2B12410   6.500  14.084   6.554  0.0350 -0.1375 -0.1352
  860loPI   C3B12411   6.422  14.050   6.971 -0.2022  0.2262  0.1961
  860loPI   C4B12412   6.172  14.239   7.303  0.0459  0.0879 -0.2021
  861loPI    C112413  11.208  15.069   5.790 -0.0945 -0.0141 -0.0367
  861loPI    C212414  11.571  15.214   5.704  0.0541 -0.1307  0.3676
  861loPI    C312415  11.351  15.043   5.417  0.1179  0.3577  0.0131
  861loPI   PO412416  11.126  15.295   5.952 -0.0708 -0.0154 -0.1854
  861loPI   GL112417  11.227  15.396   6.216 -0.1756  0.2601 -0.1463
  861loPI   GL212418  11.333  15.583   6.361 -0.3393 -0.1629 -0.0676
  861loPI   C1A12419  11.071  15.193   6.537 -0.0337 -0.2072 -0.2438
  861loPI   C2A12420  10.942  15.101   6.928  0.2072 -0.0234  0.1053
  861loPI   C3A12421  10.777  15.098   7.332 -0.1538  0.0580  0.0909
  861loPI   C4A12422  10.474  14.909   7.495 -0.0816 -0.2204 -0.2094
  861loPI   C5A12423  10.342  14.816   7.885  0.3951  0.0278  0.0036
  861loPI   C6A12424  10.296  14.552   8.068  0.0914  0.1396 -0.1705
  861loPI   C1B12425  11.153  15.606   6.790  0.1288  0.1160  0.1205
  861loPI   C2B12426  11.038  15.752   7.220 -0.1606 -0.2485  0.3123
  861loPI   C3B12427  10.854  15.817   7.557 -0.0808 -0.2234 -0.1465
  861loPI   C4B12428  11.118  15.712   7.923 -0.1003 -0.4945  0.0835
  862loPI    C112429   9.328  13.678   5.551  0.1744 -0.1169 -0.0221
  862loPI    C212430   8.994  13.576   5.358 -0.0586  0.0484  0.2832
  862loPI    C312431   9.300  13.737   5.157 -0.1423 -0.1449 -0.0059
  862loPI   PO412432   9.350  13.548   5.712 -0.0597  0.1239 -0.1127
  862loPI   GL112433   9.290  13.560   6.184  0.0655  0.0795 -0.1839
  862loPI   GL212434   9.377  13.877   6.196 -0.0756 -0.0772  0.1525
  862loPI   C1A12435   9.268  13.221   6.435  0.0416 -0.3273  0.3018
  862loPI   C2A12436   9.065  13.173   6.837  0.1944  0.1270 -0.1982
  862loPI   C3A12437   8.783  12.989   7.121 -0.3122  0.1694 -0.0490
  862loPI   C4A12438   8.383  12.934   7.131  0.1408 -0.4505  0.1921
  862loPI   C5A12439   8.042  12.797   7.332 -0.0865  0.1602 -0.1675
  862loPI   C6A12440   7.760  13.038   7.659  0.0181  0.0270  0.0362
  862loPI   C1B12441   9.629  13.767   6.499 -0.1522  0.3019 -0.2821
  862loPI   C2B12442   9.590  13.659   6.888 -0.3976  0.0528 -0.0081
  862loPI   C3B12443   9.527  13.692   7.351  0.2452  0.1348 -0.1402
  862loPI   C4B12444   9.082  13.721   7.558 -0.3315 -0.0610 -0.1221
  863loPI    C112445   0.402  11.353   5.442 -0.0090  0.0480 -0.1016
  863loPI    C212446   0.171  11.451   5.130 -0.0733  0.1429 -0.0243
  863loPI    C312447   0.394  11.119   5.117  0.1892  0.3251 -0.3113
  863loPI   PO412448   0.249  11.303   5.673  0.6019 -0.1658 -0.2072
  863loPI   GL112449   0.096  11.479   6.048 -0.0522 -0.2450 -0.4450
  863loPI   GL212450   0.239  11.418   6.306 -0.2881  0.2476 -0.0539
  863loPI   C1A12451  -0.173  11.703   6.373 -0.1271 -0.3109 -0.1539
  863loPI   C2A12452  -0.198  11.920   6.814 -0.0363  0.2379  0.2673
  863loPI   C3A12453  -0.182  12.221   7.075  0.2004 -0.0898 -0.0716
  863loPI   C4A12454  -0.072  12.380   7.523  0.0653 -0.2120  0.1128
  863loPI   C5A12455  -0.064  12.686   7.885 -0.1202  0.0645 -0.1468
  863loPI   C6A12456  -0.488  12.803   7.962 -0.0909  0.0246  0.0276
  863loPI   C1B12457   0.192  11.558   6.752  0.0807 -0.1803  0.2306
  863loPI   C2B12458   0.119  11.574   7.159 -0.2102  0.2013 -0.1617
  863loPI   C3B12459   0.036  11.392   7.510  0.1548  0.2788  0.0509
  863loPI   C4B12460   0.007  11.463   7.926  0.1755 -0.1246 -0.1174
  864loPI    C112461   4.564  13.444   5.119 -0.1185 -0.0728  0.1049
  864loPI    C212462   4.201  13.500   4.963 -0.0571  0.0306 -0.0023
  864loPI    C312463   4.474  13.287   4.763 -0.0280  0.0338  0.0342
  864loPI   PO412464   4.503  13.404   5.416  0.0357 -0.3616 -0.0556
  864loPI   GL112465   4.422  13.249   5.761  0.1096 -0.1480  0.2866
  864loPI   GL212466   4.768  13.508   5.823  0.2058 -0.0534 -0.3026
  864loPI   C1A12467   4.366  13.383   6.243  0.3120 -0.1228 -0.2485
  864loPI   C2A12468   4.350  13.333   6.705  0.5417 -0.0458 -0.1311
  864loPI   C3A12469   4.301  13.230   7.096 -0.0891 -0.0285 -0.1558
  864loPI   C4A12470   4.607  13.035   7.476  0.0209 -0.1221  0.2552
  864loPI   C5A12471   4.838  12.768   7.779  0.0425  0.0562 -0.1352
  864loPI   C6A12472   5.000  12.385   7.930  0.1153 -0.0512 -0.0433
  864loPI   C1B12473   4.844  13.292   6.198 -0.1906 -0.1683 -0.0903
  864loPI   C2B12474   4.593  12.954   6.349 -0.1002 -0.4704 -0.0549
  864loPI   C3B12475   4.250  12.787   6.742  0.0201 -0.1297  0.1589
  864loPI   C4B12476   4.371  12.711   7.196 -0.0107 -0.0773 -0.2789
  865loPI    C112477   2.638  14.182   5.463  0.2473  0.1611 -0.1780
  865loPI    C212478   2.564  14.558   5.346 -0.0360  0.1475 -0.0511
  865loPI    C312479   2.330  14.259   5.220  0.0827  0.0370 -0.0119
  865loPI   PO412480   2.905  14.202   5.610  0.0630  0.0826 -0.0575
  865loPI   GL112481   2.825  13.928   5.948 -0.1895 -0.2639  0.2752
  865loPI   GL212482   3.046  14.070   6.203 -0.0337 -0.4231  0.1706
  865loPI   C1A12483   2.771  13.540   6.249  0.1011 -0.0305  0.0539
  865loPI   C2A12484   2.625  13.430   6.691 -0.1987 -0.2632 -0.0741
  865loPI   C3A12485   2.504  13.286   7.109  0.3677 -0.0944  0.2938
  865loPI   C4A12486   2.519  13.240   7.543 -0.0131  0.2774 -0.1247
  865loPI   C5A12487   2.558  13.387   7.947 -0.0808  0.0158  0.0223
  865loPI   C6A12488   2.563  13.485   8.424  0.1049  0.1019  0.4745
  865loPI   C1B12489   2.826  13.970   6.507  0.0243  0.2365 -0.0849
  865loPI   C2B12490   2.842  13.898   6.873  0.3597  0.1078  0.1886
  865loPI   C3B12491   2.810  13.968   7.303  0.1533  0.0882  0.0272
  865loPI   C4B12492   3.001  14.126   7.660  0.3040 -0.1509 -0.1738
  866loPI    C112493  10.827  11.311   5.678  0.0834  0.0217 -0.0103
  866loPI    C212494  10.871  11.703   5.745  0.0784  0.0322 -0.0682
  866loPI    C312495  11.072  11.528   5.448  0.0494 -0.0011 -0.0683
  866loPI   PO412496  10.519  11.244   5.868 -0.0012  0.0963  0.1661
  866loPI   GL112497  10.287  11.277   6.213 -0.0959 -0.0109 -0.1083
  866loPI   GL212498  10.191  11.553   6.380  0.0534  0.0373 -0.1886
  866loPI   C1A12499  10.334  11.057   6.567 -0.1540 -0.1686 -0.0676
  866loPI   C2A12500  10.299  11.110   6.927  0.0259 -0.0958 -0.1657
  866loPI   C3A12501  10.310  11.168   7.330 -0.1745  0.0977 -0.0155
  866loPI   C4A12502  10.299  11.361   7.766 -0.3704 -0.0203  0.0897
  866loPI   C5A12503  10.385  11.619   8.232 -0.3039 -0.1079  0.3204
  866loPI   C6A12504  10.458  11.960   8.275 -0.3066 -0.2186 -0.0639
  866loPI   C1B12505  10.219  11.584   6.753 -0.0510 -0.2346 -0.1982
  866loPI   C2B12506  10.268  11.607   7.177 -0.4412  0.1170  0.0040
  866loPI   C3B12507  10.311  11.815   7.423 -0.0004 -0.0208 -0.3932
  866loPI   C4B12508  10.561  12.129   7.593  0.4256  0.2451  0.1325
  867loPI    C112509  13.272   2.404   5.054 -0.1122  0.2249 -0.0095
  867loPI    C212510  13.616   2.302   4.876 -0.2159  0.0418 -0.1084
  867loPI    C312511  13.566   2.673   5.018  0.2393 -0.0856  0.4209
  867loPI   PO412512  13.255   2.204   5.224 -0.0255  0.3633 -0.3975
  867loPI   GL112513  13.435   1.997   5.671 -0.1003  0.0625  0.1202
  867loPI   GL212514  13.295   1.824   5.767 -0.2640  0.0828 -0.3204
  867loPI   C1A12515  13.555   2.240   6.104 -0.0661  0.2767  0.2472
  867loPI   C2A12516  13.543   2.310   6.536  0.4204 -0.0747 -0.0603
  867loPI   C3A12517  13.698   2.355   6.908 -0.0956 -0.0822 -0.0277
  867loPI   C4A12518  13.824   2.551   7.343  0.0448  0.0207 -0.0436
  867loPI   C5A12519  13.852   2.651   7.855 -0.0526 -0.1030  0.0337
  867loPI   C6A12520  13.682   2.602   8.222  0.3080 -0.0929 -0.0547
  867loPI   C1B12521  13.371   1.479   6.098 -0.0230 -0.0865 -0.0852
  867loPI   C2B12522  13.433   1.493   6.551 -0.2883  0.2406 -0.0950
  867loPI   C3B12523  13.576   1.493   7.043  0.0081  0.3615  0.2994
  867loPI   C4B12524  13.619   1.706   7.410 -0.2095  0.1968  0.0088
  868loPI    C112525  17.051   6.340   5.961  0.3044  0.2427 -0.1009
  868loPI    C212526  16.798   6.649   5.937  0.0858  0.0608 -0.1725
  868loPI    C312527  17.088   6.607   5.665 -0.1563 -0.0338 -0.4204
  868loPI   PO412528  17.097   6.328   6.259 -0.0416 -0.1012 -0.0773
  868loPI   GL112529  17.189   6.477   6.582  0.2322 -0.1055  0.1422
  868loPI   GL212530  17.577   6.551   6.543  0.1496 -0.1357  0.0111
  868loPI   C1A12531  17.005   6.446   6.968 -0.0514  0.1343 -0.0782
  868loPI   C2A12532  16.934   6.301   7.400  0.4429 -0.1908 -0.0638
  868loPI   C3A12533  16.740   6.146   7.815  0.2639 -0.2625  0.2149
  868loPI   C4A12534  16.539   6.085   8.239  0.0747 -0.1208 -0.0350
  868loPI   C5A12535  16.314   5.775   8.308 -0.0722  0.0424  0.0409
  868loPI   C6A12536  16.354   5.310   8.575 -0.1120 -0.1168  0.2188
  868loPI   C1B12537  17.519   6.596   6.997  0.1661 -0.0026 -0.0395
  868loPI   C2B12538  17.383   6.374   7.331 -0.1435  0.0535 -0.0254
  868loPI   C3B12539  17.237   6.137   7.764  0.1023  0.1477 -0.1542
  868loPI   C4B12540  17.175   6.077   8.180 -0.0093 -0.1318 -0.1999
  869loPI    C112541  11.205  10.720   5.702 -0.0819 -0.0712  0.0931
  869loPI    C212542  11.578  10.589   5.760 -0.1538 -0.2959  0.0592
  869loPI    C312543  11.458  10.696   5.394  0.0351  0.2856  0.1574
  869loPI   PO412544  11.151  10.887   5.858 -0.0866  0.1367 -0.0898
  869loPI   GL112545  11.447  10.881   6.247  0.3526 -0.3513  0.0525
  869loPI   GL212546  11.471  11.153   6.524 -0.3036  0.0830  0.0646
  869loPI   C1A12547  11.531  10.651   6.679  0.1024  0.0149  0.2720
  869loPI   C2A12548  11.523  10.465   7.144 -0.4648 -0.0511 -0.1378
  869loPI   C3A12549  11.632  10.478   7.513  0.2258 -0.2273  0.0723
  869loPI   C4A12550  11.683  10.374   7.981 -0.1569 -0.1656  0.1512
  869loPI   C5A12551  11.882  10.579   8.385 -0.1951 -0.0818  0.0666
  869loPI   C6A12552  12.143  10.913   8.617  0.2501  0.1853  0.2577
  869loPI   C1B12553  11.177  11.365   6.585  0.0827 -0.2150 -0.0131
  869loPI   C2B12554  11.160  11.424   7.047 -0.3634  0.2400  0.1070
  869loPI   C3B12555  11.285  11.403   7.428  0.2276 -0.2664 -0.0883
  869loPI   C4B12556  11.492  11.170   7.674  0.2017 -0.1016  0.1271
  870loPI    C112557  12.743   2.992   5.078  0.0368  0.1999  0.0112
  870loPI    C212558  12.823   2.629   4.930  0.1907  0.2407 -0.0077
  870loPI    C312559  12.539   2.855   4.762 -0.0342  0.0570  0.1175
  870loPI   PO412560  12.648   2.955   5.478 -0.2180  0.2065  0.4116
  870loPI   GL112561  12.654   2.879   5.906  0.0703  0.0854  0.0450
  870loPI   GL212562  12.923   2.758   5.899  0.4109  0.0254 -0.1984
  870loPI   C1A12563  12.817   3.003   6.325  0.0431  0.1937 -0.2261
  870loPI   C2A12564  12.626   3.196   6.740 -0.3623  0.3084 -0.1134
  870loPI   C3A12565  12.534   3.214   7.165  0.1788  0.1269  0.1374
  870loPI   C4A12566  12.449   3.089   7.606  0.1132  0.3135 -0.0348
  870loPI   C5A12567  12.289   3.015   7.943 -0.1203  0.1382 -0.0355
  870loPI   C6A12568  12.556   2.883   8.288 -0.1012 -0.0822 -0.3131
  870loPI   C1B12569  13.177   2.551   6.215 -0.0681 -0.2975  0.1223
  870loPI   C2B12570  13.119   2.522   6.650  0.0560  0.0069  0.1985
  870loPI   C3B12571  13.087   2.501   7.064  0.0850 -0.1136 -0.2955
  870loPI   C4B12572  12.918   2.457   7.515 -0.4799  0.1221 -0.1573
  871loPI    C112573  17.125   2.889   5.463  0.0058  0.0626  0.0537
  871loPI    C212574  16.760   2.883   5.301 -0.0205  0.3218  0.0999
  871loPI    C312575  17.079   2.792   5.077 -0.1240 -0.0538  0.0977
  871loPI   PO412576  17.064   2.765   5.772 -0.1689  0.1560  0.2738
  871loPI   GL112577  16.850   2.895   6.186 -0.2187  0.0056  0.1455
  871loPI   GL212578  16.897   2.599   6.258 -0.3027 -0.0287  0.0429
  871loPI   C1A12579  17.006   3.135   6.604  0.1065  0.0570 -0.2844
  871loPI   C2A12580  17.039   3.371   6.956 -0.1213  0.1122  0.0482
  871loPI   C3A12581  16.994   3.174   7.324 -0.1509 -0.2810  0.1273
  871loPI   C4A12582  17.129   3.223   7.733  0.1780 -0.0169 -0.1269
  871loPI   C5A12583  17.068   3.566   8.124  0.0854 -0.0177  0.2804
  871loPI   C6A12584  17.190   3.456   8.549 -0.0379 -0.1320  0.0199
  871loPI   C1B12585  17.173   2.568   6.573  0.0021  0.4456  0.0916
  871loPI   C2B12586  17.203   2.548   7.024 -0.1588 -0.1278 -0.2163
  871loPI   C3B12587  17.154   2.314   7.383 -0.0770  0.0813 -0.4349
  871loPI   C4B12588  17.204   2.184   7.873  0.1928 -0.0429 -0.3466
  872loPI    C112589   6.985  10.301   5.309 -0.0458  0.0688 -0.2236
  872loPI    C212590   6.854   9.940   5.197 -0.0749 -0.0380  0.1430
  872loPI    C312591   6.617  10.260   5.160 -0.0434 -0.0510 -0.1975
  872loPI   PO412592   7.103  10.249   5.557  0.1025 -0.0583 -0.0698
  872loPI   GL112593   7.319  10.037   5.868 -0.0831 -0.2604 -0.1485
  872loPI   GL212594   7.438  10.364   5.917 -0.1184 -0.2507  0.1063
  872loPI   C1A12595   7.173   9.867   6.288  0.2239 -0.0802  0.1189
  872loPI   C2A12596   7.228   9.919   6.715 -0.0486 -0.0630  0.2342
  872loPI   C3A12597   6.992  10.017   7.192  0.0669  0.1594  0.1646
  872loPI   C4A12598   6.832  10.395   7.312 -0.1734  0.1317  0.3465
  872loPI   C5A12599   6.736  10.855   7.374 -0.1103  0.0377 -0.0534
  872loPI   C6A12600   7.072  11.126   7.155 -0.0692  0.0542 -0.3243
  872loPI   C1B12601   7.263  10.367   6.327 -0.1646 -0.0303  0.1750
  872loPI   C2B12602   6.910  10.672   6.478  0.2784  0.1155 -0.2170
  872loPI   C3B12603   6.781  10.735   6.939 -0.2401 -0.0734  0.0695
  872loPI   C4B12604   6.367  10.754   7.074 -0.1257 -0.2431 -0.1664
  873loPI    C112605  10.035   2.101   5.198 -0.0954 -0.1703 -0.1046
  873loPI    C212606   9.770   2.147   5.494  0.2470  0.1031  0.1681
  873loPI    C312607   9.749   2.380   5.170 -0.1722 -0.2447 -0.0646
  873loPI   PO412608   9.993   1.752   5.308  0.1869 -0.1571  0.0174
  873loPI   GL112609  10.029   1.385   5.599  0.3019 -0.1271 -0.0428
  873loPI   GL212610  10.325   1.604   5.814 -0.0076 -0.0362  0.0190
  873loPI   C1A12611   9.829   1.714   5.879  0.0438 -0.0850  0.0634
  873loPI   C2A12612   9.454   1.799   6.090  0.1986 -0.2797  0.0161
  873loPI   C3A12613   9.396   1.840   6.493 -0.2505  0.1537  0.1147
  873loPI   C4A12614   9.551   1.686   6.879 -0.0707 -0.1568 -0.0716
  873loPI   C5A12615   9.611   1.540   7.264 -0.5082  0.1523 -0.0898
  873loPI   C6A12616   9.570   1.260   7.693  0.0607  0.2393  0.2538
  873loPI   C1B12617  10.297   1.715   6.246  0.0837 -0.0491  0.0190
  873loPI   C2B12618  10.205   1.691   6.736 -0.1749 -0.3483 -0.1132
  873loPI   C3B12619  10.076   1.693   7.201  0.4050  0.1906 -0.0055
  873loPI   C4B12620   9.882   1.810   7.560 -0.0988  0.2520 -0.0476
  874loPI    C112621  11.855  15.564   5.527 -0.1544  0.0557 -0.2522
  874loPI    C212622  11.862  15.222   5.319 -0.1890  0.0582 -0.2575
  874loPI    C312623  11.895  15.573   5.129  0.2748  0.0446 -0.2138
  874loPI   PO412624  12.019  15.503   5.743  0.0448 -0.2308  0.0466
  874loPI   GL112625  11.827  15.532   6.172  0.1828  0.0668  0.0880
  874loPI   GL212626  11.914  15.882   6.223 -0.1397  0.0119 -0.3460
  874loPI   C1A12627  12.026  15.514   6.545 -0.1661  0.0636 -0.0679
  874loPI   C2A12628  11.883  15.673   6.862 -0.1377  0.2203  0.1234
  874loPI   C3A12629  11.975  15.690   7.315  0.1716  0.0894 -0.1030
  874loPI   C4A12630  12.178  15.581   7.686  0.0810 -0.1057  0.4535
  874loPI   C5A12631  12.038  15.276   7.899 -0.2040  0.2070  0.0614
  874loPI   C6A12632  11.751  14.977   8.126  0.0738 -0.3964  0.0308
  874loPI   C1B12633  11.968  16.037   6.559 -0.0186 -0.2327  0.1176
  874loPI   C2B12634  11.921  16.167   7.006  0.3241  0.0254  0.1458
  874loPI   C3B12635  11.502  16.410   7.224 -0.0946  0.3394  0.3180
  874loPI   C4B12636  11.474  16.622   7.638  0.3221 -0.0469  0.1073
  875loPI    C112637   6.898   2.813   5.225  0.0765  0.1369  0.1812
  875loPI    C212638   6.576   2.664   5.040 -0.0981  0.3879  0.2776
  875loPI    C312639   6.941   2.590   4.896 -0.1906  0.0248  0.2191
  875loPI   PO412640   6.960   2.744   5.500  0.1342 -0.0739 -0.0922
  875loPI   GL112641   6.938   2.935   5.820  0.0334  0.0548  0.1891
  875loPI   GL212642   6.809   3.282   5.983  0.2506 -0.0714  0.1107
  875loPI   C1A12643   6.973   2.760   6.237  0.1610 -0.1382  0.0021
  875loPI   C2A12644   7.022   2.709   6.642  0.0994 -0.0472  0.3719
  875loPI   C3A12645   6.891   2.613   7.130  0.2090 -0.1154  0.2493
  875loPI   C4A12646   6.788   2.563   7.599  0.4022  0.2275  0.2114
  875loPI   C5A12647   6.556   2.285   7.717 -0.1802 -0.1568  0.1319
  875loPI   C6A12648   6.610   1.862   7.699 -0.2142  0.0403  0.0388
  875loPI   C1B12649   6.742   3.227   6.398  0.1294 -0.0772 -0.1022
  875loPI   C2B12650   6.667   3.111   6.759  0.2916  0.0593 -0.0937
  875loPI   C3B12651   6.439   3.180   7.157 -0.2218  0.0277 -0.2714
  875loPI   C4B12652   5.950   3.231   7.337  0.3156  0.0773 -0.4438
  876loPI    C112653  15.491   2.087   5.864 -0.0556 -0.0353  0.0344
  876loPI    C212654  15.870   2.015   5.755 -0.1179 -0.0247 -0.1959
  876loPI    C312655  15.698   1.793   6.040  0.1057  0.0626  0.0111
  876loPI   PO412656  15.526   2.393   5.877 -0.0979  0.0581 -0.2723
  876loPI   GL112657  15.804   2.451   6.214  0.1441  0.0933 -0.0948
  876loPI   GL212658  15.570   2.231   6.368  0.3264 -0.2195 -0.0241
  876loPI   C1A12659  16.011   2.445   6.563  0.1244  0.1887 -0.2887
  876loPI   C2A12660  16.121   2.239   6.900  0.2319  0.1639 -0.2084
  876loPI   C3A12661  16.141   2.114   7.332  0.1428  0.4793 -0.0177
  876loPI   C4A12662  15.810   2.086   7.656  0.0164  0.1089  0.0292
  876loPI   C5A12663  15.597   2.040   8.036  0.0269  0.1167  0.0478
  876loPI   C6A12664  15.463   2.228   8.444  0.0562 -0.1423 -0.0326
  876loPI   C1B12665  15.473   2.570   6.630  0.1059 -0.2377 -0.0740
  876loPI   C2B12666  15.808   2.560   7.077  0.0655 -0.0587  0.1682
  876loPI   C3B12667  15.804   2.550   7.505  0.1782  0.0968  0.3806
  876loPI   C4B12668  15.591   2.490   7.893  0.1146  0.1688  0.1932
  877loPI    C112669   8.229   4.457   5.076  0.1836  0.0102 -0.1142
  877loPI    C212670   8.254   4.846   4.989 -0.3813  0.0622 -0.0803
  877loPI    C312671   8.179   4.581   4.699  0.1625 -0.0493 -0.1311
  877loPI   PO412672   8.091   4.451   5.299  0.2876 -0.2527 -0.2277
  877loPI   GL112673   8.055   4.683   5.660 -0.3469  0.0163  0.1632
  877loPI   GL212674   8.274   4.940   5.568  0.1398 -0.1930  0.1607
  877loPI   C1A12675   8.053   4.680   6.092 -0.1198  0.3444 -0.1067
  877loPI   C2A12676   8.106   4.755   6.524  0.0959  0.1714 -0.1545
  877loPI   C3A12677   8.411   4.826   6.849  0.0957 -0.1019 -0.0864
  877loPI   C4A12678   8.499   5.077   7.171  0.3927 -0.0005 -0.1347
  877loPI   C5A12679   8.270   5.200   7.464  0.0259  0.3071  0.0355
  877loPI   C6A12680   8.025   5.301   7.832 -0.0527  0.1735  0.0503
  877loPI   C1B12681   8.366   5.136   6.020 -0.0810 -0.0199  0.0987
  877loPI   C2B12682   8.334   5.249   6.443 -0.2256 -0.1116  0.0885
  877loPI   C3B12683   8.253   5.390   6.783  0.0854 -0.3355  0.1462
  877loPI   C4B12684   8.386   5.627   7.130 -0.0085  0.1826  0.0511
  878loPI    C112685  16.757   0.470   5.799  0.2636 -0.2223 -0.1000
  878loPI    C212686  16.763   0.831   5.627 -0.5792 -0.0202  0.2450
  878loPI    C312687  16.613   0.517   5.429  0.0917 -0.1857 -0.0293
  878loPI   PO412688  16.659   0.580   6.044  0.2912  0.1002  0.0086
  878loPI   GL112689  16.390   0.656   6.401 -0.1422  0.0776  0.1084
  878loPI   GL212690  16.141   0.567   6.215  0.0273  0.0015 -0.1634
  878loPI   C1A12691  16.290   0.524   6.751  0.2075  0.0602  0.0715
  878loPI   C2A12692  16.181   0.499   7.217  0.1574 -0.2654 -0.0397
  878loPI   C3A12693  16.306   0.462   7.642 -0.2626  0.1600 -0.0795
  878loPI   C4A12694  16.375   0.433   8.110  0.0325 -0.1049 -0.0695
  878loPI   C5A12695  16.681   0.273   8.302  0.2595 -0.1928  0.2053
  878loPI   C6A12696  17.042   0.488   8.159  0.0409  0.0724 -0.5737
  878loPI   C1B12697  15.724   0.661   6.451 -0.0529  0.0103 -0.2908
  878loPI   C2B12698  15.739   0.614   6.869 -0.1281  0.0980 -0.1635
  878loPI   C3B12699  15.691   0.619   7.298  0.0024 -0.1317  0.0075
  878loPI   C4B12700  15.926   0.796   7.594 -0.1053 -0.1575 -0.0705
  879loPI    C112701  15.352  11.703   5.942 -0.0320 -0.2064 -0.2058
  879loPI    C212702  14.969  11.612   6.010 -0.0055 -0.2112 -0.0617
  879loPI    C312703  15.148  11.484   5.677 -0.2375  0.1111 -0.3166
  879loPI   PO412704  15.329  11.910   6.047  0.3781  0.3234  0.2466
  879loPI   GL112705  15.181  12.049   6.378 -0.2282 -0.0195 -0.0355
  879loPI   GL212706  14.959  11.820   6.483 -0.0343  0.0289  0.0287
  879loPI   C1A12707  15.138  12.090   6.941 -0.2633  0.3344  0.0009
  879loPI   C2A12708  15.332  12.210   7.224  0.0008  0.0193 -0.1358
  879loPI   C3A12709  15.386  12.106   7.513  0.0749 -0.4310  0.0599
  879loPI   C4A12710  15.443  11.982   7.982 -0.1833  0.2352  0.0795
  879loPI   C5A12711  15.283  11.813   8.378 -0.1225 -0.5232  0.2171
  879loPI   C6A12712  14.947  11.438   8.406 -0.3383 -0.1105  0.1402
  879loPI   C1B12713  14.761  12.228   6.643  0.0267 -0.1304  0.3364
  879loPI   C2B12714  14.694  12.445   6.932 -0.3046 -0.1090 -0.6264
  879loPI   C3B12715  14.404  12.501   7.243 -0.1685 -0.1713  0.0999
  879loPI   C4B12716  14.071  12.785   7.322  0.2369 -0.4216 -0.1645
  880loPI    C112717   4.142   5.365   5.613 -0.1552 -0.2078 -0.0293
  880loPI    C212718   3.966   5.427   5.259  0.0099 -0.1961 -0.1101
  880loPI    C312719   4.360   5.483   5.299 -0.0289 -0.0697  0.1089
  880loPI   PO412720   3.868   5.426   5.754  0.0039 -0.1328  0.0276
  880loPI   GL112721   3.973   5.263   6.103 -0.2037  0.1025  0.0140
  880loPI   GL212722   3.805   4.996   6.044 -0.0175  0.1070  0.0386
  880loPI   C1A12723   3.882   5.189   6.522 -0.0964 -0.1740 -0.1992
  880loPI   C2A12724   3.863   5.058   6.929  0.0175  0.2382 -0.1170
  880loPI   C3A12725   3.982   5.100   7.338 -0.2545  0.2064  0.3857
  880loPI   C4A12726   4.020   4.924   7.750 -0.2237  0.0922  0.0664
  880loPI   C5A12727   4.211   5.069   8.001 -0.0270 -0.0412 -0.2068
  880loPI   C6A12728   4.392   5.277   8.351  0.0550 -0.1498  0.1479
  880loPI   C1B12729   4.221   4.820   6.196  0.2091  0.0365  0.3654
  880loPI   C2B12730   4.348   4.853   6.642  0.0671 -0.0144  0.1340
  880loPI   C3B12731   4.315   4.791   7.028  0.3564  0.0599  0.2086
  880loPI   C4B12732   4.287   4.674   7.398 -0.0221  0.2578  0.0267
  881loPI    C112733  17.542   2.984   5.686  0.0612 -0.3089 -0.2189
  881loPI    C212734  17.383   3.290   5.483  0.2050 -0.0213  0.0939
  881loPI    C312735  17.630   3.035   5.299 -0.1760 -0.1508 -0.2544
  881loPI   PO412736  17.676   3.066   5.862  0.0198  0.1566 -0.2173
  881loPI   GL112737  17.685   2.923   6.268 -0.2886 -0.0861  0.1003
  881loPI   GL212738  17.500   3.055   6.379 -0.0091 -0.0469 -0.0274
  881loPI   C1A12739  17.623   2.656   6.698  0.2626  0.1076  0.1145
  881loPI   C2A12740  17.652   2.572   7.148  0.0156  0.0993 -0.1868
  881loPI   C3A12741  17.723   2.419   7.548  0.0013 -0.0808  0.1692
  881loPI   C4A12742  17.927   2.642   7.888  0.2939 -0.1586  0.1637
  881loPI   C5A12743  17.799   2.908   8.271  0.0712  0.0134  0.3383
  881loPI   C6A12744  17.493   2.949   8.710 -0.1491 -0.1047 -0.0579
  881loPI   C1B12745  17.455   3.163   6.765 -0.1602 -0.1190 -0.2656
  881loPI   C2B12746  17.456   3.244   7.196 -0.0248  0.2444  0.0147
  881loPI   C3B12747  17.422   2.875   7.497 -0.2094 -0.1671  0.0521
  881loPI   C4B12748  17.428   2.610   7.956 -0.2577 -0.0422 -0.1536
  882loPI    C112749   0.258   1.672   5.662 -0.1360 -0.0004  0.1972
  882loPI    C212750  -0.119   1.661   5.530 -0.0212 -0.1394 -0.1273
  882loPI    C312751   0.185   1.628   5.272  0.2131 -0.1452  0.1443
  882loPI   PO412752   0.271   1.702   5.941  0.2760  0.2056 -0.2292
  882loPI   GL112753  -0.007   1.684   6.175 -0.1151 -0.0757 -0.1532
  882loPI   GL212754  -0.131   1.392   6.064  0.1026  0.2365 -0.0123
  882loPI   C1A12755   0.258   1.801   6.643 -0.0225 -0.1942 -0.0849
  882loPI   C2A12756   0.265   1.727   7.138 -0.5518 -0.2055  0.2070
  882loPI   C3A12757   0.383   1.557   7.543  0.0684 -0.0974 -0.0615
  882loPI   C4A12758   0.098   1.480   7.910  0.0586 -0.3281 -0.1623
  882loPI   C5A12759  -0.085   1.129   8.133 -0.0417  0.0072 -0.0287
  882loPI   C6A12760  -0.186   0.647   8.259  0.3831  0.0213 -0.0395
  882loPI   C1B12761  -0.001   1.346   6.504 -0.2197 -0.1917 -0.1919
  882loPI   C2B12762  -0.063   1.320   6.877 -0.0051 -0.1657  0.0579
  882loPI   C3B12763   0.014   1.179   7.256  0.1716  0.1435  0.1462
  882loPI   C4B12764   0.187   1.105   7.671  0.1213 -0.0897 -0.0120
  883loPI    C112765  17.581   1.558   5.616 -0.0307 -0.0508 -0.0529
  883loPI    C212766  17.290   1.478   5.354 -0.0669  0.0416 -0.0412
  883loPI    C312767  17.671   1.401   5.259 -0.1025 -0.1678 -0.0200
  883loPI   PO412768  17.537   1.390   5.867 -0.1993 -0.0250 -0.1580
  883loPI   GL112769  17.236   1.509   6.239 -0.1419 -0.1441  0.0226
  883loPI   GL212770  16.889   1.473   6.436 -0.0270  0.3173  0.2995
  883loPI   C1A12771  17.304   1.568   6.664 -0.1594  0.1546  0.0901
  883loPI   C2A12772  17.270   1.407   6.994 -0.1714  0.0113  0.0377
  883loPI   C3A12773  17.382   1.421   7.446 -0.0831 -0.2447  0.1082
  883loPI   C4A12774  17.335   1.525   7.888 -0.1972  0.1397  0.1010
  883loPI   C5A12775  17.712   1.596   8.175  0.0240 -0.0331 -0.0606
  883loPI   C6A12776  18.041   1.586   8.483 -0.0851  0.0979  0.1113
  883loPI   C1B12777  16.750   1.424   6.811  0.1435  0.1350  0.4470
  883loPI   C2B12778  16.869   1.325   7.256  0.1422 -0.2248  0.0095
  883loPI   C3B12779  16.930   1.291   7.660 -0.1206 -0.0756 -0.2141
  883loPI   C4B12780  16.935   1.342   8.141  0.2656 -0.0961 -0.1700
  884loPI    C112781  16.633  15.100   5.672 -0.2422 -0.0659 -0.1110
  884loPI    C212782  16.507  14.986   5.310 -0.1312 -0.2837 -0.0826
  884loPI    C312783  16.897  14.969   5.401 -0.1266  0.0123 -0.0374
  884loPI   PO412784  16.530  15.292   5.726  0.0483  0.0216  0.1145
  884loPI   GL112785  16.375  15.324   6.049 -0.0789 -0.0989  0.0992
  884loPI   GL212786  16.726  15.237   6.147  0.4202 -0.5380  0.0786
  884loPI   C1A12787  16.461  15.538   6.489 -0.3272 -0.3503 -0.0256
  884loPI   C2A12788  16.497  15.458   6.858  0.3648 -0.3679  0.0995
  884loPI   C3A12789  16.531  15.590   7.290 -0.3561 -0.2458  0.0949
  884loPI   C4A12790  16.645  15.580   7.825 -0.0951  0.2580  0.0266
  884loPI   C5A12791  16.817  15.286   8.134  0.0340 -0.0286 -0.1228
  884loPI   C6A12792  16.720  15.181   8.490 -0.0449 -0.2361  0.3976
  884loPI   C1B12793  16.889  15.176   6.535  0.4910 -0.4602  0.1549
  884loPI   C2B12794  16.893  14.869   6.744 -0.1331  0.0693  0.2490
  884loPI   C3B12795  16.975  14.866   7.174  0.0551  0.1273  0.1725
  884loPI   C4B12796  17.132  14.831   7.621 -0.0830 -0.2152 -0.0003
  885loPI    C112797  12.884   6.675   5.523  0.0114  0.0077  0.1462
  885loPI    C212798  13.142   6.812   5.250  0.0203 -0.1142  0.0925
  885loPI    C312799  12.880   7.062   5.421  0.0071 -0.0393 -0.0353
  885loPI   PO412800  13.049   6.621   5.759 -0.4181 -0.4163  0.1445
  885loPI   GL112801  13.079   6.716   6.224  0.1606 -0.0981  0.1266
  885loPI   GL212802  13.479   6.506   6.199  0.0918  0.2033 -0.1390
  885loPI   C1A12803  12.974   6.707   6.698 -0.1662  0.3062  0.2552
  885loPI   C2A12804  12.851   6.684   7.112  0.0112 -0.0256  0.0878
  885loPI   C3A12805  13.065   6.762   7.465  0.0990 -0.1937  0.1340
  885loPI   C4A12806  13.196   6.998   7.823  0.1287  0.2137  0.0580
  885loPI   C5A12807  13.305   7.173   8.259  0.1171 -0.0593 -0.1463
  885loPI   C6A12808  13.148   7.275   8.589  0.3189 -0.2512  0.0931
  885loPI   C1B12809  13.460   6.673   6.552  0.0282 -0.1363  0.2259
  885loPI   C2B12810  13.411   6.812   6.981 -0.0773  0.0427 -0.0158
  885loPI   C3B12811  13.582   7.064   7.363 -0.1111  0.1208 -0.0750
  885loPI   C4B12812  13.733   7.383   7.534 -0.0072 -0.1778 -0.0527
  886loPI    C112813   8.541  16.289   5.441 -0.0583 -0.3052 -0.0497
  886loPI    C212814   8.729  16.159   5.113 -0.0763  0.0942 -0.2243
  886loPI    C312815   8.330  16.185   5.118 -0.0923 -0.1517 -0.0781
  886loPI   PO412816   8.644  16.175   5.635 -0.0066  0.2371  0.0097
  886loPI   GL112817   8.645  16.264   6.075  0.2157 -0.0188  0.0263
  886loPI   GL212818   8.452  16.158   6.183 -0.1037 -0.3205  0.2587
  886loPI   C1A12819   8.591  16.615   6.430  0.3078 -0.0575 -0.2143
  886loPI   C2A12820   8.543  16.774   6.861 -0.0221  0.3474  0.2250
  886loPI   C3A12821   8.432  16.867   7.245 -0.1661  0.2941  0.1706
  886loPI   C4A12822   8.179  16.893   7.577  0.2311  0.0365  0.4168
  886loPI   C5A12823   8.015  16.935   7.978 -0.3426 -0.1654 -0.0806
  886loPI   C6A12824   7.618  17.118   8.060  0.1913 -0.2860  0.0870
  886loPI   C1B12825   8.201  16.272   6.501 -0.0892 -0.2355 -0.1233
  886loPI   C2B12826   8.143  16.408   6.975 -0.0659 -0.2346  0.2180
  886loPI   C3B12827   8.249  16.356   7.388 -0.0827 -0.0781 -0.0914
  886loPI   C4B12828   8.283  16.424   7.834 -0.2171  0.1133 -0.1708
  887loPI    C112829   3.626   7.569   5.514  0.0424  0.0838 -0.1971
  887loPI    C212830   3.858   7.300   5.697  0.0207  0.1303 -0.1006
  887loPI    C312831   3.497   7.194   5.563  0.0500  0.0877 -0.1460
  887loPI   PO412832   3.806   7.803   5.756 -0.0236  0.1831  0.2463
  887loPI   GL112833   3.796   7.888   6.130 -0.0041 -0.0101 -0.0938
  887loPI   GL212834   3.832   7.731   6.320  0.3109  0.0242  0.2635
  887loPI   C1A12835   3.435   8.031   6.312  0.0529 -0.1188 -0.1910
  887loPI   C2A12836   3.280   8.001   6.663 -0.0070  0.2775  0.0687
  887loPI   C3A12837   2.968   7.913   6.792 -0.0768  0.2185 -0.1896
  887loPI   C4A12838   2.588   7.649   7.052 -0.2748  0.3020  0.3078
  887loPI   C5A12839   2.348   7.560   7.416 -0.0670 -0.0573 -0.0604
  887loPI   C6A12840   2.245   7.524   7.914  0.1875 -0.1183  0.3444
  887loPI   C1B12841   3.753   7.782   6.738  0.0486  0.0716 -0.0073
  887loPI   C2B12842   3.531   8.020   7.065 -0.0691  0.2624  0.0312
  887loPI   C3B12843   3.217   8.041   7.235  0.2530  0.0876  0.1339
  887loPI   C4B12844   2.820   7.965   7.401 -0.0879  0.1112 -0.0877
  888loPI    C112845   1.759  11.347   5.515 -0.2187  0.0748  0.1545
  888loPI    C212846   1.529  11.022   5.548 -0.1754  0.0314  0.0318
  888loPI    C312847   1.362  11.380   5.484 -0.2084 -0.0028 -0.0756
  888loPI   PO412848   1.903  11.366   5.724  0.1426  0.0332  0.3036
  888loPI   GL112849   1.901  11.313   6.245  0.0379 -0.2175  0.0146
  888loPI   GL212850   1.887  11.618   6.377 -0.2650  0.0483 -0.1396
  888loPI   C1A12851   1.611  11.205   6.552  0.1253 -0.0220  0.1776
  888loPI   C2A12852   1.463  11.268   7.015  0.2461 -0.0533  0.1187
  888loPI   C3A12853   1.539  11.516   7.425  0.0653 -0.2635  0.1295
  888loPI   C4A12854   1.508  11.349   7.754  0.2142 -0.2101  0.0124
  888loPI   C5A12855   1.271  11.212   8.062  0.3860 -0.0704  0.2004
  888loPI   C6A12856   0.946  11.415   8.308 -0.0947 -0.0389 -0.1382
  888loPI   C1B12857   1.861  11.606   6.732 -0.1156  0.0567  0.2967
  888loPI   C2B12858   1.936  11.469   7.065 -0.1312  0.0047 -0.0805
  888loPI   C3B12859   2.184  11.395   7.515 -0.2220 -0.5906  0.0612
  888loPI   C4B12860   2.694  11.275   7.532  0.1949  0.0456 -0.0488
  889loPI    C112861   1.855  14.199   5.023  0.2013 -0.1376  0.2920
  889loPI    C212862   1.716  13.837   4.924  0.1124 -0.0114 -0.0616
  889loPI    C312863   2.107  13.915   4.898  0.1006 -0.0067 -0.2341
  889loPI   PO412864   1.799  14.247   5.289  0.3651  0.0374 -0.0734
  889loPI   GL112865   1.905  14.243   5.664 -0.4487  0.1083  0.0473
  889loPI   GL212866   2.213  14.039   5.733  0.1843 -0.1811 -0.1536
  889loPI   C1A12867   1.714  14.099   6.044  0.0400  0.3341  0.1130
  889loPI   C2A12868   1.802  13.819   6.422 -0.1085  0.2183 -0.1399
  889loPI   C3A12869   1.828  13.772   6.877  0.0568  0.1702 -0.3916
  889loPI   C4A12870   1.845  13.988   7.386 -0.3261 -0.1013  0.2364
  889loPI   C5A12871   1.977  14.030   7.798  0.2408  0.1689 -0.2487
  889loPI   C6A12872   2.326  14.200   8.057  0.0536 -0.2048  0.0083
  889loPI   C1B12873   2.230  13.978   6.184 -0.1514  0.2597 -0.1920
  889loPI   C2B12874   2.324  13.877   6.641  0.3913 -0.1105 -0.1083
  889loPI   C3B12875   2.291  13.891   7.094  0.2695 -0.2298  0.1999
  889loPI   C4B12876   2.406  13.742   7.573 -0.0910  0.1886 -0.0205
  890loPI    C112877   2.770   6.132   5.833 -0.1591 -0.0019 -0.1111
  890loPI    C212878   2.421   6.227   5.663 -0.0165  0.1613 -0.3177
  890loPI    C312879   2.764   6.337   5.490  0.1373  0.0689 -0.0766
  890loPI   PO412880   2.749   5.901   5.904 -0.1006  0.0162 -0.1229
  890loPI   GL112881   2.609   5.570   6.133 -0.0245  0.0173  0.2406
  890loPI   GL212882   2.983   5.550   6.175  0.2537 -0.0962 -0.4424
  890loPI   C1A12883   2.624   5.799   6.527  0.3488 -0.0769  0.0619
  890loPI   C2A12884   2.604   5.727   7.004 -0.2132  0.3658 -0.4182
  890loPI   C3A12885   2.791   5.465   7.350  0.1767 -0.0097 -0.2918
  890loPI   C4A12886   2.695   5.193   7.694  0.0694  0.2137  0.2570
  890loPI   C5A12887   3.005   5.067   7.995 -0.1767 -0.2496 -0.0086
  890loPI   C6A12888   3.312   5.438   7.998  0.1701  0.0877  0.0444
  890loPI   C1B12889   3.107   5.597   6.598 -0.0265 -0.0366  0.1933
  890loPI   C2B12890   3.136   5.687   7.033 -0.1728  0.3177 -0.2732
  890loPI   C3B12891   3.287   5.728   7.511  0.1974  0.1236  0.1917
  890loPI   C4B12892   2.864   5.670   7.819 -0.0031  0.2840 -0.0427
  891loPI    C112893   0.139  15.318   5.670 -0.1980 -0.0167  0.4180
  891loPI    C212894   0.445  15.061   5.665 -0.2863 -0.1212  0.0911
  891loPI    C312895   0.484  15.416   5.847  0.0460 -0.1111  0.0069
  891loPI   PO412896  -0.047  15.144   5.736 -0.1199  0.1200 -0.0299
  891loPI   GL112897  -0.391  15.158   6.007 -0.0872 -0.0078 -0.1482
  891loPI   GL212898  -0.502  14.907   6.121  0.0219  0.0289  0.1855
  891loPI   C1A12899  -0.324  15.339   6.468  0.1659  0.1713  0.2279
  891loPI   C2A12900  -0.369  15.363   6.824  0.1178 -0.3863  0.1313
  891loPI   C3A12901  -0.282  15.316   7.284 -0.0260  0.1567  0.2249
  891loPI   C4A12902  -0.021  15.218   7.641 -0.1323  0.4628 -0.2360
  891loPI   C5A12903   0.113  15.054   8.056 -0.0005 -0.1776 -0.0499
  891loPI   C6A12904  -0.025  14.812   8.469 -0.0583  0.0991  0.1217
  891loPI   C1B12905  -0.443  14.880   6.507  0.2479 -0.0807  0.0885
  891loPI   C2B12906  -0.311  14.872   6.980  0.0106  0.1644 -0.1641
  891loPI   C3B12907  -0.070  14.780   7.333 -0.0144 -0.0328 -0.2296
  891loPI   C4B12908   0.339  14.861   7.595  0.0009  0.0758  0.2197
  892loPI    C112909   4.490  15.134   5.159  0.1705 -0.2660 -0.0792
  892loPI    C212910   4.636  15.416   4.916 -0.0282  0.1289  0.2483
  892loPI    C312911   4.248  15.321   4.901  0.0263 -0.0895  0.1803
  892loPI   PO412912   4.602  15.173   5.538  0.1113  0.3549 -0.2152
  892loPI   GL112913   4.575  15.284   6.026  0.2191  0.3066 -0.1132
  892loPI   GL212914   4.586  15.587   5.918 -0.2735  0.0839 -0.0410
  892loPI   C1A12915   4.651  15.187   6.380  0.0597 -0.0618  0.3052
  892loPI   C2A12916   4.693  15.015   6.818  0.3881  0.2156  0.2011
  892loPI   C3A12917   4.804  14.960   7.178 -0.0000 -0.0560  0.0333
  892loPI   C4A12918   5.054  15.237   7.543  0.0350  0.0392 -0.0169
  892loPI   C5A12919   5.468  15.419   7.758  0.2088  0.0324 -0.0196
  892loPI   C6A12920   5.772  15.783   7.484 -0.1848 -0.2255 -0.6280
  892loPI   C1B12921   4.679  15.652   6.319  0.2832  0.0732 -0.1173
  892loPI   C2B12922   4.607  15.567   6.795 -0.2979 -0.2523  0.2315
  892loPI   C3B12923   4.704  15.440   7.228 -0.0611 -0.0189  0.0619
  892loPI   C4B12924   4.474  15.249   7.532  0.0576  0.0403  0.4231
  893loPI    C112925  12.665   8.330   5.782 -0.0240 -0.1466  0.1581
  893loPI    C212926  12.676   8.278   5.385 -0.0599  0.1410  0.1173
  893loPI    C312927  13.011   8.369   5.585 -0.0657  0.1254  0.1342
  893loPI   PO412928  12.384   8.497   5.868 -0.2048  0.1397 -0.0303
  893loPI   GL112929  12.228   8.560   6.224  0.2615  0.0277  0.0323
  893loPI   GL212930  12.096   8.902   6.270 -0.4609  0.1184 -0.0867
  893loPI   C1A12931  12.076   8.467   6.556 -0.0660  0.0824 -0.3628
  893loPI   C2A12932  12.125   8.338   7.013 -0.2506 -0.0926 -0.1878
  893loPI   C3A12933  12.036   8.342   7.439 -0.1194 -0.2427  0.1397
  893loPI   C4A12934  11.761   8.182   7.751  0.2076  0.0819  0.1658
  893loPI   C5A12935  11.724   7.829   7.982 -0.1603  0.1977  0.1291
  893loPI   C6A12936  11.603   7.425   8.216 -0.1826  0.1324 -0.0668
  893loPI   C1B12937  12.167   8.917   6.706  0.2834  0.2411 -0.2486
  893loPI   C2B12938  12.497   8.916   7.031  0.0575 -0.1707  0.1793
  893loPI   C3B12939  12.642   9.070   7.378  0.2467  0.1312  0.0245
  893loPI   C4B12940  12.591   9.100   7.829 -0.0910 -0.0470  0.0646
  894loPI    C112941   3.637  16.240   5.295  0.1132  0.1776  0.0852
  894loPI    C212942   3.455  16.109   4.964  0.1770  0.1306  0.0687
  894loPI    C312943   3.819  16.272   4.941  0.2221  0.0395  0.1278
  894loPI   PO412944   3.332  16.215   5.437 -0.1384 -0.1330 -0.0267
  894loPI   GL112945   3.240  16.058   5.919  0.0228  0.3784  0.1994
  894loPI   GL212946   3.346  15.936   6.153  0.1730  0.2232  0.1560
  894loPI   C1A12947   3.119  16.315   6.400 -0.0541  0.3877 -0.3258
  894loPI   C2A12948   3.177  16.230   6.796 -0.0878  0.0229  0.1199
  894loPI   C3A12949   3.185  16.302   7.233 -0.0419  0.1686  0.4266
  894loPI   C4A12950   3.239  16.384   7.668 -0.0811  0.1869 -0.0347
  894loPI   C5A12951   3.589  16.541   7.987  0.1839  0.0226 -0.0473
  894loPI   C6A12952   3.680  16.966   8.050 -0.2227 -0.0480  0.0316
  894loPI   C1B12953   3.327  15.856   6.573 -0.4214 -0.0898 -0.1487
  894loPI   C2B12954   3.442  15.862   7.040 -0.1395 -0.0040  0.0100
  894loPI   C3B12955   3.554  15.731   7.356  0.0938 -0.1949  0.0349
  894loPI   C4B12956   3.831  15.595   7.647  0.0161  0.2382 -0.0658
  895loPI    C112957  12.959  17.402   5.482 -0.0110 -0.2014 -0.0037
  895loPI    C212958  12.995  17.639   5.162 -0.0988 -0.0101  0.1258
  895loPI    C312959  13.229  17.317   5.199  0.0737  0.0963 -0.0168
  895loPI   PO412960  13.007  17.500   5.661 -0.0019  0.0024 -0.1224
  895loPI   GL112961  12.852  17.522   5.992  0.1480  0.3065  0.1791
  895loPI   GL212962  12.675  17.753   6.012 -0.2315 -0.0366  0.0182
  895loPI   C1A12963  13.079  17.756   6.401 -0.2831 -0.0069 -0.3377
  895loPI   C2A12964  13.060  17.895   6.821  0.1327 -0.1471  0.1523
  895loPI   C3A12965  13.170  17.862   7.294  0.3252  0.2100  0.0267
  895loPI   C4A12966  13.206  17.629   7.595 -0.1986  0.2489 -0.0376
  895loPI   C5A12967  13.238  17.450   7.999  0.0554 -0.0787 -0.0488
  895loPI   C6A12968  13.412  17.117   8.097  0.4036  0.2870 -0.3456
  895loPI   C1B12969  12.586  17.905   6.343 -0.0197  0.3002 -0.2681
  895loPI   C2B12970  12.612  17.999   6.717  0.1005 -0.1386 -0.0259
  895loPI   C3B12971  12.668  17.924   7.185  0.0987 -0.1054  0.0212
  895loPI   C4B12972  12.655  18.067   7.579  0.1170 -0.1924  0.0544
  896loPI    C112973   9.624  15.064   5.748 -0.3384  0.1300  0.0299
  896loPI    C212974   9.528  15.110   5.362 -0.1470  0.3399  0.0051
  896loPI    C312975   9.479  15.413   5.617 -0.0115  0.2917  0.0898
  896loPI   PO412976   9.472  14.862   5.829  0.4773  0.2450  0.3952
  896loPI   GL112977   9.535  14.726   6.241  0.1845  0.1217 -0.3186
  896loPI   GL212978   9.791  14.946   6.314 -0.1878  0.1287  0.2735
  896loPI   C1A12979   9.508  14.833   6.728  0.1073 -0.3652  0.0313
  896loPI   C2A12980   9.530  14.929   7.161  0.0928  0.3772 -0.2056
  896loPI   C3A12981   9.418  14.848   7.463  0.1296  0.2469  0.2893
  896loPI   C4A12982   9.444  14.900   7.791  0.0226  0.0704 -0.0436
  896loPI   C5A12983   9.860  14.945   8.066  0.1170  0.0947  0.1754
  896loPI   C6A12984   9.829  15.323   8.202  0.0220 -0.2433  0.1488
  896loPI   C1B12985   9.895  15.233   6.660  0.2885 -0.2649 -0.0968
  896loPI   C2B12986   9.660  15.412   6.951  0.1919  0.4380 -0.1386
  896loPI   C3B12987   9.527  15.382   7.426  0.1304 -0.0390 -0.1898
  896loPI   C4B12988   9.573  15.418   7.833  0.2212 -0.0621  0.0136
  897loPI    C112989  11.938  17.696   5.493  0.0307  0.2946 -0.1169
  897loPI    C212990  11.949  17.309   5.594 -0.1965  0.2919 -0.0962
  897loPI    C312991  12.106  17.430   5.246 -0.0070  0.2020 -0.0434
  897loPI   PO412992  12.075  17.889   5.702  0.0279 -0.0181  0.0540
  897loPI   GL112993  12.053  18.011   6.048 -0.0286  0.2329 -0.0308
  897loPI   GL212994  12.247  18.248   6.166 -0.0338  0.2517  0.1525
  897loPI   C1A12995  11.781  17.984   6.284  0.1155 -0.0742  0.2561
  897loPI   C2A12996  11.471  18.261   6.470  0.0191  0.0503  0.1768
  897loPI   C3A12997  11.485  18.430   6.849  0.5587 -0.0928 -0.2149
  897loPI   C4A12998  11.521  18.316   7.291 -0.2277  0.2164  0.0320
  897loPI   C5A12999  11.506  18.188   7.722  0.1570  0.0675 -0.2006
  897loPI   C6A13000  11.418  18.400   8.117  0.0988  0.3284  0.0200
  897loPI   C1B13001  12.124  18.068   6.635 -0.3163 -0.0047 -0.0975
  897loPI   C2B13002  12.136  18.100   7.108  0.1614 -0.1239 -0.1130
  897loPI   C3B13003  11.985  18.271   7.465  0.1631  0.0241 -0.0960
  897loPI   C4B13004  11.862  18.470   7.908 -0.3911  0.1556  0.3843
  898loPI    C113005   9.454   6.187   5.240 -0.1552 -0.0326  0.0075
  898loPI    C213006   9.682   5.929   5.445 -0.0498  0.0296 -0.0306
  898loPI    C313007   9.654   5.899   5.047 -0.1852 -0.0373 -0.0165
  898loPI   PO413008   9.249   6.202   5.388 -0.4851 -0.0706 -0.3552
  898loPI   GL113009   9.048   6.470   5.615 -0.0273 -0.0489 -0.0190
  898loPI   GL213010   9.162   6.612   5.842 -0.1259  0.0759 -0.1516
  898loPI   C1A13011   8.953   6.200   5.982 -0.0180 -0.1877  0.2050
  898loPI   C2A13012   8.884   6.135   6.390 -0.0783 -0.1868  0.2681
  898loPI   C3A13013   9.001   6.019   6.828  0.1355 -0.2748 -0.0163
  898loPI   C4A13014   8.991   5.680   7.112  0.2401 -0.1098 -0.0127
  898loPI   C5A13015   8.772   5.428   7.555 -0.3062 -0.0246  0.1353
  898loPI   C6A13016   8.631   5.186   7.863  0.0540  0.0810  0.0710
  898loPI   C1B13017   9.224   6.511   6.276  0.2697 -0.3221  0.1931
  898loPI   C2B13018   9.074   6.543   6.669 -0.2020  0.1003  0.1246
  898loPI   C3B13019   9.094   6.498   7.034  0.1159  0.1474  0.1461
  898loPI   C4B13020   8.894   6.471   7.448 -0.2591 -0.2166 -0.1899
  899loPI    C113021   2.406   3.023   5.471 -0.1151 -0.1430 -0.2163
  899loPI    C213022   2.638   3.216   5.208  0.0096 -0.0670 -0.0527
  899loPI    C313023   2.456   2.875   5.103  0.1576 -0.1028 -0.1976
  899loPI   PO413024   2.424   3.073   5.698 -0.0412 -0.0980  0.0256
  899loPI   GL113025   2.316   3.383   6.041  0.2505 -0.2025  0.2860
  899loPI   GL213026   2.650   3.244   6.110 -0.0791 -0.0483 -0.1672
  899loPI   C1A13027   2.299   3.605   6.365  0.1836  0.1669  0.0272
  899loPI   C2A13028   2.372   3.514   6.809  0.0208 -0.0704 -0.0878
  899loPI   C3A13029   2.213   3.420   7.153 -0.0914  0.1373  0.1413
  899loPI   C4A13030   2.362   3.412   7.646 -0.1114 -0.0437  0.1510
  899loPI   C5A13031   2.649   3.297   7.976  0.2413 -0.0542 -0.0414
  899loPI   C6A13032   3.009   3.124   8.088 -0.4136  0.0384  0.4029
  899loPI   C1B13033   2.530   3.167   6.475 -0.0038 -0.1493  0.2434
  899loPI   C2B13034   2.569   3.063   6.977  0.1193 -0.0121  0.0692
  899loPI   C3B13035   2.436   3.048   7.350  0.0705  0.3077 -0.0097
  899loPI   C4B13036   2.609   2.846   7.770 -0.0464  0.3001  0.1117
  900loPI    C113037   3.648  14.521   5.327  0.0793  0.0074 -0.0721
  900loPI    C213038   3.970  14.285   5.308  0.1761  0.1176  0.1674
  900loPI    C313039   3.853  14.490   4.985  0.1888 -0.1270  0.0047
  900loPI   PO413040   3.660  14.580   5.577  0.3392  0.3166  0.0738
  900loPI   GL113041   3.912  14.532   5.906 -0.1012  0.2049  0.2102
  900loPI   GL213042   4.197  14.347   5.760 -0.2550 -0.1316  0.0328
  900loPI   C1A13043   3.738  14.412   6.341  0.0700  0.0199  0.0603
  900loPI   C2A13044   3.763  14.417   6.752 -0.1236  0.0933 -0.0129
  900loPI   C3A13045   3.819  14.059   6.967  0.0441  0.1966  0.1361
  900loPI   C4A13046   3.798  14.022   7.416 -0.2197 -0.0048 -0.2754
  900loPI   C5A13047   4.083  14.031   7.655  0.0365 -0.0725  0.2449
  900loPI   C6A13048   4.089  14.144   8.105  0.0178  0.1846  0.2714
  900loPI   C1B13049   4.374  14.272   6.138  0.0304  0.0928  0.0201
  900loPI   C2B13050   4.733  14.298   6.401 -0.0761 -0.0059 -0.1421
  900loPI   C3B13051   4.919  14.547   6.704  0.0620  0.2402  0.0834
  900loPI   C4B13052   5.145  14.781   6.915 -0.2303 -0.2195  0.1787
  901loPI    C113053   5.927   7.333   5.624 -0.1752 -0.0775 -0.0673
  901loPI    C213054   5.913   7.346   5.225 -0.1000 -0.0491 -0.0691
  901loPI    C313055   5.671   7.099   5.425 -0.0704 -0.1340 -0.1372
  901loPI   PO413056   5.944   7.590   5.749  0.0934 -0.1974 -0.0503
  901loPI   GL113057   5.957   7.679   6.066 -0.0211 -0.0492 -0.0871
  901loPI   GL213058   5.539   7.616   6.004 -0.2108  0.1816 -0.2482
  901loPI   C1A13059   6.051   7.593   6.550  0.1156 -0.0825 -0.0931
  901loPI   C2A13060   6.344   7.733   6.782 -0.0943 -0.0043  0.1389
  901loPI   C3A13061   6.558   8.014   7.078 -0.1087  0.0694  0.0219
  901loPI   C4A13062   6.829   8.071   7.431 -0.0824  0.0249 -0.1595
  901loPI   C5A13063   6.667   8.496   7.694  0.5057  0.0427 -0.2161
  901loPI   C6A13064   6.492   8.457   8.102 -0.4118  0.0840  0.0035
  901loPI   C1B13065   5.534   7.497   6.416 -0.0321 -0.1744 -0.1245
  901loPI   C2B13066   5.652   7.491   6.862  0.2587  0.0468  0.1950
  901loPI   C3B13067   5.840   7.572   7.108  0.0060  0.2892 -0.0069
  901loPI   C4B13068   6.112   7.555   7.333  0.0037 -0.2823  0.0369
  902loPI    C113069  11.709  13.362   5.709 -0.1151 -0.0434  0.1028
  902loPI    C213070  11.532  13.481   5.371  0.2136  0.4644  0.0983
  902loPI    C313071  11.889  13.299   5.357 -0.0633 -0.1045  0.1399
  902loPI   PO413072  11.455  13.258   5.843 -0.0823 -0.2800  0.1616
  902loPI   GL113073  11.258  13.401   6.156 -0.2851 -0.1729  0.1150
  902loPI   GL213074  11.538  13.707   6.251  0.2701 -0.0412  0.0449
  902loPI   C1A13075  11.015  13.371   6.548 -0.0891 -0.0533  0.1857
  902loPI   C2A13076  10.880  13.117   6.895 -0.2456  0.0432  0.0076
  902loPI   C3A13077  10.853  13.061   7.307 -0.1974 -0.0815  0.1685
  902loPI   C4A13078  10.787  13.058   7.653  0.0074  0.1435 -0.0450
  902loPI   C5A13079  10.591  12.914   7.927  0.0712 -0.0664 -0.2570
  902loPI   C6A13080  10.619  12.492   8.108  0.3449 -0.0905 -0.2110
  902loPI   C1B13081  11.630  13.924   6.568  0.3230  0.1625  0.1200
  902loPI   C2B13082  11.558  13.902   6.978  0.0843  0.4235  0.0727
  902loPI   C3B13083  11.398  13.899   7.437 -0.0618 -0.0427 -0.0684
  902loPI   C4B13084  11.510  14.015   7.912 -0.0607 -0.1448  0.0863
  903loPI    C113085  13.040  12.496   5.948 -0.2109  0.0595 -0.1338
  903loPI    C213086  13.053  12.263   5.623  0.0689  0.0557 -0.1219
  903loPI    C313087  13.109  12.104   5.985  0.0614  0.1091 -0.0972
  903loPI   PO413088  13.213  12.710   5.985 -0.1395  0.0220 -0.0858
  903loPI   GL113089  13.334  12.783   6.354  0.1962  0.0987 -0.0128
  903loPI   GL213090  13.419  13.070   6.531 -0.0126 -0.1842  0.2990
  903loPI   C1A13091  13.076  12.792   6.717  0.1106 -0.2899  0.0815
  903loPI   C2A13092  12.797  12.604   7.101  0.0088 -0.0568  0.0282
  903loPI   C3A13093  12.564  12.810   7.427  0.0212 -0.0012  0.0068
  903loPI   C4A13094  12.593  12.839   7.795 -0.1723  0.1740 -0.0832
  903loPI   C5A13095  12.862  13.133   7.960  0.0481  0.0720  0.4202
  903loPI   C6A13096  13.061  13.264   8.239 -0.2375  0.0585 -0.0215
  903loPI   C1B13097  13.380  13.366   6.882  0.0563 -0.0228 -0.3636
  903loPI   C2B13098  13.379  13.624   7.305  0.2680 -0.1043 -0.1130
  903loPI   C3B13099  13.685  13.596   7.788  0.0986 -0.1204 -0.0942
  903loPI   C4B13100  13.477  13.713   8.132 -0.0105 -0.1396  0.1759
  904loPI    C113101   6.851  15.130   5.511  0.1104  0.1454 -0.1250
  904loPI    C213102   6.741  15.004   5.148  0.0027  0.0220 -0.0503
  904loPI    C313103   7.117  14.950   5.273 -0.0680 -0.3258  0.0213
  904loPI   PO413104   6.751  15.337   5.561 -0.2029  0.2013  0.3773
  904loPI   GL113105   6.609  15.619   5.898  0.0104 -0.0096 -0.3180
  904loPI   GL213106   6.383  15.837   5.919  0.4791  0.1548 -0.1867
  904loPI   C1A13107   6.418  15.583   6.301 -0.0290  0.3584 -0.0084
  904loPI   C2A13108   6.283  15.654   6.779  0.4002 -0.0053 -0.0213
  904loPI   C3A13109   5.840  15.601   7.014 -0.0583 -0.0801 -0.0587
  904loPI   C4A13110   5.611  15.248   7.223  0.0332 -0.1609  0.1615
  904loPI   C5A13111   5.424  14.890   7.287 -0.3423  0.0091 -0.0364
  904loPI   C6A13112   5.215  14.668   7.495 -0.1164 -0.0498 -0.3914
  904loPI   C1B13113   6.235  16.039   6.349 -0.0852  0.2550 -0.0624
  904loPI   C2B13114   5.897  16.262   6.602 -0.0865  0.0756 -0.1042
  904loPI   C3B13115   5.702  16.430   6.960 -0.0512 -0.2716  0.1733
  904loPI   C4B13116   5.615  16.617   7.380  0.0447  0.1644 -0.1195
  905loPI    C113117  15.540  10.791   5.989 -0.2275  0.0031 -0.0416
  905loPI    C213118  15.629  10.702   5.609  0.0689 -0.0810  0.0452
  905loPI    C313119  15.270  10.607   5.757 -0.1196  0.1250 -0.2678
  905loPI   PO413120  15.744  10.691   6.131  0.2047 -0.0140  0.2840
  905loPI   GL113121  15.717  10.477   6.445  0.3928 -0.2502 -0.0125
  905loPI   GL213122  15.833  10.100   6.385  0.0403 -0.1205  0.1543
  905loPI   C1A13123  15.946  10.580   6.762  0.1186 -0.4431 -0.0901
  905loPI   C2A13124  15.925  10.972   6.978 -0.0557  0.2022 -0.2330
  905loPI   C3A13125  15.966  11.137   7.309  0.0427  0.0744 -0.1138
  905loPI   C4A13126  16.076  11.427   7.630  0.2159  0.1039  0.1982
  905loPI   C5A13127  16.299  11.563   7.942 -0.2912 -0.2701 -0.4608
  905loPI   C6A13128  16.522  11.247   8.302 -0.0194 -0.5089  0.4143
  905loPI   C1B13129  15.935   9.985   6.698  0.0980 -0.3764  0.0729
  905loPI   C2B13130  15.934  10.033   7.113 -0.0188  0.0416  0.1748
  905loPI   C3B13131  15.651  10.088   7.365  0.1912  0.0203  0.0522
  905loPI   C4B13132  15.308  10.275   7.546  0.0988 -0.0045 -0.0130
  906loPI    C113133  14.439   4.389   5.500 -0.1961 -0.1088  0.0797
  906loPI    C213134  14.158   4.115   5.422 -0.0118 -0.3369  0.2040
  906loPI    C313135  14.537   4.050   5.311 -0.0389  0.0594 -0.1462
  906loPI   PO413136  14.338   4.469   5.690  0.0770 -0.1602  0.1633
  906loPI   GL113137  14.590   4.424   6.099  0.1011  0.0979 -0.1498
  906loPI   GL213138  14.298   4.448   6.174 -0.0649  0.2471  0.2795
  906loPI   C1A13139  14.673   4.244   6.495  0.3351  0.0807  0.2235
  906loPI   C2A13140  14.570   4.131   6.871 -0.2659  0.0182  0.1206
  906loPI   C3A13141  14.555   4.259   7.199  0.0815 -0.0626 -0.4173
  906loPI   C4A13142  14.506   4.358   7.563  0.3012  0.2834 -0.0101
  906loPI   C5A13143  14.554   4.336   7.997 -0.0767  0.1255 -0.2960
  906loPI   C6A13144  14.499   3.900   8.249  0.0735 -0.0933 -0.3073
  906loPI   C1B13145  14.177   4.194   6.489 -0.1777  0.1931 -0.0539
  906loPI   C2B13146  14.041   4.198   6.980 -0.1418 -0.0729 -0.0572
  906loPI   C3B13147  14.116   4.074   7.387  0.0602  0.5540  0.1281
  906loPI   C4B13148  14.159   4.066   7.854  0.0281  0.0073  0.0258
  907loPI    C113149  12.450  17.239   5.559  0.1670  0.0719 -0.0807
  907loPI    C213150  12.713  17.059   5.318  0.1377  0.0398 -0.0889
  907loPI    C313151  12.331  16.941   5.319  0.1543 -0.0137  0.0313
  907loPI   PO413152  12.581  17.166   5.825  0.3443 -0.0642  0.1032
  907loPI   GL113153  12.653  17.124   6.180 -0.2291  0.1301 -0.0644
  907loPI   GL213154  12.863  16.882   6.169 -0.0478 -0.0897  0.2303
  907loPI   C1A13155  12.699  17.375   6.515 -0.0044 -0.0326 -0.2561
  907loPI   C2A13156  12.719  17.475   6.841 -0.1316 -0.1263 -0.2750
  907loPI   C3A13157  12.792  17.459   7.258 -0.1348 -0.2559  0.0854
  907loPI   C4A13158  12.740  17.567   7.697  0.2917  0.0864  0.3177
  907loPI   C5A13159  12.812  17.848   8.046 -0.2306 -0.4138 -0.1567
  907loPI   C6A13160  12.587  18.244   8.156  0.0325  0.0669 -0.0516
  907loPI   C1B13161  12.772  16.860   6.586 -0.1555 -0.0909  0.0606
  907loPI   C2B13162  12.806  16.986   6.963  0.0107 -0.1671  0.0652
  907loPI   C3B13163  12.988  17.001   7.297 -0.1270  0.0910 -0.0969
  907loPI   C4B13164  13.074  17.105   7.692 -0.0754  0.0958 -0.1940
  908loPI    C113165   9.426   2.634   4.863  0.2337 -0.2559 -0.1157
  908loPI    C213166   9.811   2.732   4.816  0.1861  0.0073  0.0235
  908loPI    C313167   9.529   2.923   4.606  0.1296 -0.1884 -0.0821
  908loPI   PO413168   9.337   2.682   5.187  0.3767 -0.3393  0.2260
  908loPI   GL113169   9.171   2.648   5.671  0.0236 -0.4449  0.0186
  908loPI   GL213170   9.534   2.564   5.624 -0.0687  0.3733 -0.0600
  908loPI   C1A13171   8.998   2.608   6.055  0.0067  0.2184  0.1282
  908loPI   C2A13172   9.070   2.577   6.503  0.0672 -0.2351  0.1391
  908loPI   C3A13173   8.987   2.590   6.946  0.1159  0.0445 -0.0281
  908loPI   C4A13174   8.727   2.416   7.270  0.1525 -0.1332  0.1372
  908loPI   C5A13175   8.480   2.230   7.584  0.2158  0.3033  0.1965
  908loPI   C6A13176   8.260   1.812   7.647 -0.0262 -0.0294 -0.3709
  908loPI   C1B13177   9.769   2.605   6.024 -0.2844 -0.0949  0.0644
  908loPI   C2B13178   9.883   2.470   6.423 -0.0410  0.0410  0.1308
  908loPI   C3B13179   9.911   2.511   6.984  0.0330 -0.0504 -0.2125
  908loPI   C4B13180   9.731   2.529   7.385 -0.1006  0.0498 -0.2912
  909loPI    C113181   9.027  12.459   5.482 -0.1556 -0.0137  0.0336
  909loPI    C213182   8.873  12.725   5.226  0.0166 -0.2361 -0.3081
  909loPI    C313183   8.690  12.374   5.283  0.0981 -0.2772 -0.2970
  909loPI   PO413184   9.105  12.598   5.762  0.0880  0.0795 -0.0812
  909loPI   GL113185   9.226  12.280   6.009  0.0256 -0.2216  0.0848
  909loPI   GL213186   9.416  12.286   6.288  0.2272 -0.0976 -0.0843
  909loPI   C1A13187   8.856  12.290   6.302 -0.0400  0.3159 -0.0041
  909loPI   C2A13188   8.540  12.154   6.563  0.0395 -0.0347  0.0531
  909loPI   C3A13189   8.559  12.081   6.982  0.1094 -0.0539 -0.1040
  909loPI   C4A13190   8.318  11.906   7.409  0.2800 -0.4603 -0.0728
  909loPI   C5A13191   8.336  11.686   7.789  0.3455 -0.2286 -0.0204
  909loPI   C6A13192   8.385  11.630   8.254  0.0196 -0.1306  0.0728
  909loPI   C1B13193   9.436  12.292   6.695  0.1831  0.1264 -0.0540
  909loPI   C2B13194   9.519  12.296   7.117 -0.4854 -0.1297 -0.1494
  909loPI   C3B13195   9.463  12.376   7.586 -0.1604 -0.2278  0.1881
  909loPI   C4B13196   9.146  12.361   7.978  0.0247 -0.2031 -0.1785
  910loPI    C113197  16.045  14.743   5.306 -0.1274 -0.0731  0.1145
  910loPI    C213198  16.078  15.075   5.085  0.2922  0.0822  0.3979
  910loPI    C313199  16.272  14.742   4.977  0.1322  0.0229  0.2899
  910loPI   PO413200  16.109  14.807   5.579  0.1949  0.3198  0.1997
  910loPI   GL113201  16.070  14.915   5.915 -0.2074  0.3196 -0.3257
  910loPI   GL213202  15.776  15.008   6.011 -0.1019  0.0356  0.2947
  910loPI   C1A13203  16.272  14.939   6.284  0.0015  0.0064  0.2526
  910loPI   C2A13204  16.372  14.952   6.770 -0.2149  0.0720  0.2157
  910loPI   C3A13205  16.518  15.091   7.184 -0.1597  0.0572  0.0402
  910loPI   C4A13206  16.604  14.916   7.563 -0.0753  0.1196 -0.0137
  910loPI   C5A13207  16.375  14.972   8.010  0.0588 -0.1786 -0.0862
  910loPI   C6A13208  16.016  14.872   8.260 -0.1393 -0.1061  0.5372
  910loPI   C1B13209  15.780  15.013   6.438  0.0962 -0.0565 -0.0394
  910loPI   C2B13210  15.850  14.991   6.862 -0.1440 -0.0110  0.3670
  910loPI   C3B13211  16.034  15.127   7.269  0.0659 -0.1840  0.0779
  910loPI   C4B13212  16.308  15.294   7.592 -0.0812 -0.1666  0.0800
  911loPI    C113213   3.219   6.073   5.562  0.1404  0.0872  0.1209
  911loPI    C213214   3.220   6.398   5.328 -0.0738 -0.0341 -0.0519
  911loPI    C313215   3.258   6.034   5.165 -0.2177 -0.1194  0.1018
  911loPI   PO413216   3.348   6.128   5.738  0.3433 -0.1246 -0.1635
  911loPI   GL113217   3.321   5.948   6.145 -0.2370 -0.0380  0.0895
  911loPI   GL213218   3.495   5.581   6.124 -0.1304 -0.2559  0.3817
  911loPI   C1A13219   3.411   5.963   6.572 -0.0954 -0.3732 -0.0491
  911loPI   C2A13220   3.521   6.017   7.094  0.3089 -0.2229 -0.1559
  911loPI   C3A13221   3.604   6.176   7.513  0.0354  0.0557  0.1945
  911loPI   C4A13222   3.560   6.403   7.841 -0.0662  0.2530  0.0803
  911loPI   C5A13223   3.406   6.778   7.886 -0.2828 -0.2162 -0.0839
  911loPI   C6A13224   3.181   7.090   7.625  0.0637  0.0582 -0.2603
  911loPI   C1B13225   3.873   5.752   6.417  0.0336  0.0118 -0.2714
  911loPI   C2B13226   4.002   5.692   6.903 -0.3692 -0.1187  0.2074
  911loPI   C3B13227   3.934   5.699   7.349  0.1128 -0.1716 -0.0600
  911loPI   C4B13228   4.038   5.441   7.727 -0.1270  0.2574 -0.0187
  912loPI    C113229   2.319  10.294   5.881  0.0681  0.0563  0.1979
  912loPI    C213230   2.439   9.978   5.667 -0.0128  0.0877  0.1052
  912loPI    C313231   2.225  10.268   5.493 -0.1867  0.0528  0.2579
  912loPI   PO413232   2.540  10.394   5.954 -0.1428  0.0859  0.1246
  912loPI   GL113233   2.729  10.624   6.470  0.1047 -0.1870 -0.2450
  912loPI   GL213234   2.639  11.030   6.436 -0.0096 -0.1161  0.0697
  912loPI   C1A13235   2.853  10.259   6.480  0.1289  0.1256 -0.2968
  912loPI   C2A13236   3.034   9.884   6.728 -0.0353  0.1751  0.1039
  912loPI   C3A13237   3.131   9.733   7.120 -0.1480  0.3783 -0.2156
  912loPI   C4A13238   3.258   9.849   7.549 -0.1562  0.0817  0.1758
  912loPI   C5A13239   3.077  10.074   7.926  0.0704  0.1889  0.0406
  912loPI   C6A13240   2.819  10.157   8.240  0.2311 -0.1524 -0.2654
  912loPI   C1B13241   2.845  10.931   6.869 -0.0536 -0.0479  0.3184
  912loPI   C2B13242   2.895  10.919   7.250  0.1697  0.0477 -0.0730
  912loPI   C3B13243   2.794  10.614   7.438  0.1960  0.1581 -0.0457
  912loPI   C4B13244   2.741  10.497   7.888  0.0115  0.1533  0.0691
  913loPI    C113245   7.800   3.912   5.182 -0.1389 -0.2259 -0.1574
  913loPI    C213246   7.878   3.673   4.871 -0.1314 -0.1351 -0.2256
  913loPI    C313247   8.065   4.025   4.905 -0.0724 -0.1800 -0.0754
  913loPI   PO413248   7.834   3.804   5.394  0.2453  0.2548 -0.2353
  913loPI   GL113249   8.034   3.812   5.791 -0.0567  0.0891 -0.0668
  913loPI   GL213250   7.994   4.208   5.730 -0.0576  0.1722  0.0292
  913loPI   C1A13251   8.196   3.907   6.314  0.2803 -0.1498  0.1223
  913loPI   C2A13252   8.149   3.677   6.629  0.2364  0.0154 -0.2321
  913loPI   C3A13253   8.128   3.558   7.039  0.1789 -0.1181 -0.2361
  913loPI   C4A13254   7.936   3.393   7.361 -0.3430 -0.2665 -0.0885
  913loPI   C5A13255   7.678   3.541   7.579  0.0877  0.0043  0.2027
  913loPI   C6A13256   7.292   3.666   7.760  0.1126 -0.0021  0.1254
  913loPI   C1B13257   7.847   4.172   6.200  0.0923 -0.1887 -0.0849
  913loPI   C2B13258   7.924   4.213   6.649 -0.0735 -0.4411 -0.0645
  913loPI   C3B13259   7.858   4.059   7.063  0.1162  0.0494  0.4571
  913loPI   C4B13260   7.616   3.934   7.220 -0.1203  0.3311 -0.1531
  914loPI    C113261  12.770  16.101   5.610 -0.1048  0.0657  0.0160
  914loPI    C213262  12.443  16.272   5.456 -0.0946  0.0789  0.0092
  914loPI    C313263  12.712  16.101   5.215 -0.1850 -0.0897  0.0270
  914loPI   PO413264  12.698  16.241   5.942  0.0471  0.3326  0.0208
  914loPI   GL113265  12.570  16.477   6.287  0.0684 -0.2581  0.0417
  914loPI   GL213266  12.386  16.251   6.377  0.2111 -0.0275  0.1266
  914loPI   C1A13267  12.795  16.368   6.750  0.0663 -0.0823  0.0544
  914loPI   C2A13268  12.965  16.464   7.197  0.5614  0.1846 -0.0960
  914loPI   C3A13269  13.076  16.596   7.584  0.2943 -0.0620 -0.3268
  914loPI   C4A13270  13.090  16.515   8.050 -0.1155 -0.2444  0.0436
  914loPI   C5A13271  13.260  16.591   8.366  0.0754  0.2416 -0.0563
  914loPI   C6A13272  13.678  16.825   8.479  0.2246 -0.2297  0.0737
  914loPI   C1B13273  12.315  16.434   6.736 -0.1169 -0.0679  0.3935
  914loPI   C2B13274  12.444  16.499   7.091 -0.1376  0.1648 -0.0449
  914loPI   C3B13275  12.531  16.599   7.509 -0.1472  0.0147  0.2002
  914loPI   C4B13276  12.576  16.630   7.934 -0.0891  0.2909  0.0443
  915loPI    C113277  13.197  16.347   5.249  0.0895  0.0513 -0.1654
  915loPI    C213278  12.984  16.322   4.912  0.1415 -0.1245 -0.1865
  915loPI    C313279  13.352  16.478   4.905  0.1662 -0.1840 -0.2226
  915loPI   PO413280  13.054  16.516   5.459  0.0313 -0.0122  0.0995
  915loPI   GL113281  13.093  16.545   5.892  0.1370 -0.2470 -0.1585
  915loPI   GL213282  13.329  16.752   6.043 -0.1168  0.1193 -0.4384
  915loPI   C1A13283  13.122  16.506   6.391  0.2122  0.2358  0.2932
  915loPI   C2A13284  13.178  16.672   6.795  0.0346  0.1533 -0.0332
  915loPI   C3A13285  13.401  16.720   7.213 -0.0330  0.4685 -0.0128
  915loPI   C4A13286  13.495  16.806   7.709  0.2706 -0.0690  0.3105
  915loPI   C5A13287  13.738  16.700   8.025  0.1470 -0.0308 -0.0989
  915loPI   C6A13288  13.780  16.324   8.196 -0.0869  0.0072 -0.3781
  915loPI   C1B13289  13.583  16.761   6.485  0.0839 -0.2296  0.3030
  915loPI   C2B13290  13.713  16.737   6.858 -0.3098 -0.0136  0.2117
  915loPI   C3B13291  13.794  16.987   7.275 -0.1603  0.1125 -0.1062
  915loPI   C4B13292  14.010  17.323   7.489 -0.1762  0.0096  0.1279
  916loPI    C113293  10.056   3.869   5.410  0.1508  0.0156 -0.0488
  916loPI    C213294  10.142   4.069   5.075 -0.0470 -0.0051 -0.1132
  916loPI    C313295   9.773   4.085   5.229  0.0163 -0.0768  0.0486
  916loPI   PO413296  10.267   3.854   5.561  0.0089  0.0135 -0.1329
  916loPI   GL113297  10.351   3.875   6.012  0.0251  0.3473 -0.1112
  916loPI   GL213298  10.086   4.018   5.955 -0.1203  0.2064  0.0647
  916loPI   C1A13299  10.461   3.785   6.408  0.0227  0.0179  0.1385
  916loPI   C2A13300  10.520   3.682   6.742  0.2536 -0.0099  0.0366
  916loPI   C3A13301  10.283   3.681   7.172 -0.2869  0.2219 -0.0315
  916loPI   C4A13302  10.238   3.504   7.586 -0.4174 -0.4374  0.1473
  916loPI   C5A13303  10.343   3.151   7.812  0.0313  0.0604 -0.3121
  916loPI   C6A13304  10.433   2.710   7.709  0.2351  0.0210 -0.2940
  916loPI   C1B13305  10.011   4.179   6.317 -0.2751  0.0386 -0.0909
  916loPI   C2B13306   9.993   4.019   6.630  0.1434 -0.1184  0.2423
  916loPI   C3B13307   9.904   4.074   6.976 -0.0398  0.2020  0.3684
  916loPI   C4B13308   9.913   3.890   7.457  0.0798 -0.2276 -0.0093
  917loPI    C113309  16.940  14.455   5.504  0.0599  0.1025  0.1256
  917loPI    C213310  16.684  14.623   5.762 -0.1846 -0.1550  0.0561
  917loPI    C313311  16.561  14.524   5.395  0.1370  0.1253 -0.1326
  917loPI   PO413312  17.248  14.552   5.667  0.1767 -0.1288  0.1880
  917loPI   GL113313  17.344  14.593   6.052 -0.1239  0.2472 -0.1984
  917loPI   GL213314  17.549  14.410   6.080 -0.0369 -0.0127  0.3844
  917loPI   C1A13315  17.282  14.788   6.432  0.0619 -0.1174  0.4012
  917loPI   C2A13316  17.395  14.773   6.847 -0.0810  0.3227 -0.0430
  917loPI   C3A13317  17.487  14.820   7.255 -0.3769 -0.1342 -0.0308
  917loPI   C4A13318  17.728  14.919   7.649  0.0868 -0.0583 -0.2659
  917loPI   C5A13319  17.793  14.917   7.979 -0.0580 -0.1327 -0.0592
  917loPI   C6A13320  17.769  15.186   8.247 -0.0074 -0.0071  0.2196
  917loPI   C1B13321  17.570  14.376   6.603  0.1161 -0.2251 -0.0984
  917loPI   C2B13322  17.575  14.367   7.077  0.0888 -0.0898 -0.0044
  917loPI   C3B13323  17.727  14.448   7.524 -0.0903 -0.1141 -0.3295
  917loPI   C4B13324  17.717  14.427   7.939 -0.0324  0.1859  0.2966
  918loPI    C113325  15.195   8.512   5.627  0.0624 -0.2995  0.3429
  918loPI    C213326  15.538   8.306   5.606  0.0664 -0.2498 -0.2832
  918loPI    C313327  15.505   8.659   5.420 -0.3229 -0.2498 -0.2225
  918loPI   PO413328  15.136   8.616   5.940  0.1775  0.1015  0.1421
  918loPI   GL113329  14.917   8.791   6.309 -0.2560  0.1209 -0.2114
  918loPI   GL213330  15.153   9.122   6.211 -0.2993 -0.1211 -0.0684
  918loPI   C1A13331  14.954   9.033   6.607  0.0189  0.1378  0.0321
  918loPI   C2A13332  14.721   9.277   6.887  0.0376 -0.1187  0.1812
  918loPI   C3A13333  14.742   9.607   7.050 -0.1259  0.1243  0.0792
  918loPI   C4A13334  14.805   9.969   7.432 -0.0147 -0.0423 -0.0012
  918loPI   C5A13335  14.889  10.106   7.826  0.2028 -0.1533  0.1617
  918loPI   C6A13336  15.142  10.380   8.088 -0.0948  0.0782  0.0451
  918loPI   C1B13337  15.360   9.296   6.475  0.0273 -0.1037  0.1424
  918loPI   C2B13338  15.214   9.463   6.854 -0.0650  0.1900  0.3542
  918loPI   C3B13339  15.210   9.466   7.277  0.0928  0.2392  0.1273
  918loPI   C4B13340  15.282   9.265   7.494  0.0303  0.0267 -0.4636
  919loPI    C113341   1.854  12.144   5.501  0.2402 -0.0131 -0.1953
  919loPI    C213342   2.065  12.111   5.162  0.3425 -0.2015 -0.1149
  919loPI    C313343   1.957  11.782   5.363  0.3644 -0.0878  0.0860
  919loPI   PO413344   2.032  12.326   5.703 -0.3484  0.3166  0.1299
  919loPI   GL113345   2.324  12.255   6.026  0.0904  0.1047  0.1056
  919loPI   GL213346   2.053  12.187   6.134  0.1134  0.2658  0.1181
  919loPI   C1A13347   2.491  12.355   6.343  0.0039 -0.1241  0.1514
  919loPI   C2A13348   2.440  12.315   6.795 -0.0262 -0.4158  0.1101
  919loPI   C3A13349   2.335  12.328   7.134 -0.1503 -0.3537 -0.1719
  919loPI   C4A13350   2.435  12.224   7.524 -0.0373 -0.0487 -0.2645
  919loPI   C5A13351   2.705  12.036   7.903 -0.2020  0.0900  0.0373
  919loPI   C6A13352   3.151  11.912   7.848 -0.1070 -0.0215 -0.1013
  919loPI   C1B13353   2.113  12.023   6.542  0.0805  0.1197  0.0667
  919loPI   C2B13354   2.444  11.829   6.727 -0.5178 -0.0935  0.0949
  919loPI   C3B13355   2.463  11.635   7.095  0.1276  0.1113  0.0344
  919loPI   C4B13356   2.536  11.743   7.501 -0.1192 -0.1583  0.1395
  920loPI    C113357  13.153   3.296   5.133 -0.0549  0.1344  0.0569
  920loPI    C213358  13.205   2.931   5.289 -0.0159  0.1329  0.0404
  920loPI    C313359  13.219   2.984   4.892  0.1247  0.1762  0.0505
  920loPI   PO413360  13.198   3.486   5.336  0.0117 -0.0378 -0.1679
  920loPI   GL113361  13.344   3.666   5.696 -0.0545 -0.0604  0.0521
  920loPI   GL213362  13.054   3.674   5.751  0.1239 -0.3345 -0.0814
  920loPI   C1A13363  13.470   3.525   6.102 -0.0722 -0.2292 -0.0210
  920loPI   C2A13364  13.429   3.473   6.495 -0.1693  0.1575  0.0231
  920loPI   C3A13365  13.346   3.509   6.888 -0.2592  0.1083  0.1692
  920loPI   C4A13366  13.301   3.352   7.340 -0.1492 -0.3878 -0.0192
  920loPI   C5A13367  13.354   3.172   7.800  0.0672 -0.1849 -0.2795
  920loPI   C6A13368  13.550   3.242   8.306 -0.2111 -0.3469 -0.1817
  920loPI   C1B13369  12.967   3.532   6.119  0.1109  0.1684 -0.1718
  920loPI   C2B13370  12.979   3.582   6.588  0.0811  0.1639 -0.1912
  920loPI   C3B13371  12.886   3.583   7.069 -0.1678  0.2540  0.2153
  920loPI   C4B13372  12.810   3.484   7.434 -0.2192 -0.1423 -0.0636
  921loPI    C113373  17.559  17.143   5.215  0.0992  0.1286 -0.0645
  921loPI    C213374  17.220  17.137   5.003  0.1111 -0.0581 -0.0803
  921loPI    C313375  17.555  16.986   4.847  0.0863 -0.3354  0.1272
  921loPI   PO413376  17.325  17.141   5.536  0.0466 -0.1228 -0.1959
  921loPI   GL113377  17.421  17.076   6.028 -0.0692  0.2612  0.3740
  921loPI   GL213378  17.326  16.768   5.888  0.1605 -0.0642  0.3077
  921loPI   C1A13379  17.279  17.096   6.473 -0.0898 -0.0756 -0.1274
  921loPI   C2A13380  17.283  17.232   6.889 -0.0621  0.0122 -0.2279
  921loPI   C3A13381  17.228  17.178   7.352 -0.0279  0.0453  0.1274
  921loPI   C4A13382  17.248  17.226   7.786  0.0853 -0.1850  0.1959
  921loPI   C5A13383  17.582  17.063   7.978 -0.1737  0.2069 -0.1514
  921loPI   C6A13384  17.967  16.807   8.260  0.0174 -0.1532  0.1532
  921loPI   C1B13385  17.304  16.622   6.277  0.3402 -0.1419  0.2235
  921loPI   C2B13386  17.496  16.591   6.650  0.0287  0.1947  0.1213
  921loPI   C3B13387  17.517  16.799   7.158  0.0628 -0.0061 -0.2030
  921loPI   C4B13388  17.463  16.712   7.618  0.1678  0.0777 -0.2495
  922loPI    C113389   9.725   8.744   5.687  0.0287 -0.0240  0.0835
  922loPI    C213390   9.720   8.916   5.326 -0.0232 -0.0824  0.0564
  922loPI    C313391  10.056   8.916   5.543  0.0232 -0.0962 -0.0153
  922loPI   PO413392   9.664   8.452   5.637  0.0648  0.1141  0.2543
  922loPI   GL113393   9.523   8.092   5.877 -0.3920  0.2286  0.1695
  922loPI   GL213394   9.353   7.911   5.864  0.2189  0.1847  0.1764
  922loPI   C1A13395   9.712   7.899   6.201 -0.2809  0.1265  0.1024
  922loPI   C2A13396   9.526   7.667   6.517  0.2071  0.4290  0.2312
  922loPI   C3A13397   9.596   7.475   6.885 -0.0722  0.0005 -0.3628
  922loPI   C4A13398   9.404   7.444   7.233  0.2088  0.4509 -0.1073
  922loPI   C5A13399   9.067   7.275   7.541  0.2036 -0.1114  0.3203
  922loPI   C6A13400   8.809   7.447   7.812  0.0221  0.1361  0.2498
  922loPI   C1B13401   9.193   8.165   6.215 -0.2219  0.0827  0.2101
  922loPI   C2B13402   9.354   8.321   6.613 -0.1875  0.1568  0.3357
  922loPI   C3B13403   9.631   8.376   6.985 -0.2502  0.2839  0.0609
  922loPI   C4B13404   9.560   8.434   7.331 -0.0504  0.0170  0.0048
  923loPI    C113405   4.550  17.902   5.155 -0.0129 -0.0553 -0.0142
  923loPI    C213406   4.603  17.708   4.809  0.3120  0.2170 -0.1227
  923loPI    C313407   4.326  17.995   4.837  0.0721 -0.0163 -0.0630
  923loPI   PO413408   4.767  17.944   5.259 -0.0607 -0.0740 -0.0798
  923loPI   GL113409   5.040  17.852   5.625 -0.3402  0.0452  0.4546
  923loPI   GL213410   4.746  17.912   5.781  0.0991 -0.2209 -0.2706
  923loPI   C1A13411   5.324  17.731   5.920 -0.2153 -0.0618  0.1991
  923loPI   C2A13412   5.404  17.708   6.410  0.2569  0.0537  0.0856
  923loPI   C3A13413   5.360  17.870   6.760 -0.2360 -0.3650 -0.2219
  923loPI   C4A13414   5.319  18.065   7.155 -0.0383 -0.0367 -0.1694
  923loPI   C5A13415   5.276  18.235   7.584  0.0139  0.2104  0.1666
  923loPI   C6A13416   4.931  18.237   7.824  0.0420  0.0273 -0.3013
  923loPI   C1B13417   4.844  17.826   6.127 -0.1613 -0.0951  0.3924
  923loPI   C2B13418   4.872  17.776   6.626  0.0673  0.1588 -0.3398
  923loPI   C3B13419   4.905  17.865   7.008  0.0613 -0.2861  0.2943
  923loPI   C4B13420   4.943  17.833   7.438  0.1252 -0.0083 -0.2779
  924loPI    C113421  15.411   6.118   5.850  0.0802 -0.0586  0.1137
  924loPI    C213422  15.156   6.021   6.142 -0.0223  0.0211  0.0514
  924loPI    C313423  15.018   6.169   5.797  0.0880 -0.1962 -0.0879
  924loPI   PO413424  15.661   6.070   6.039 -0.2573 -0.0372 -0.3705
  924loPI   GL113425  15.789   6.010   6.452 -0.1363  0.2976 -0.0358
  924loPI   GL213426  15.482   5.824   6.451 -0.0762 -0.2054  0.2260
  924loPI   C1A13427  15.934   5.953   6.857  0.2689  0.1926 -0.0487
  924loPI   C2A13428  15.912   5.928   7.217  0.3203 -0.2718 -0.1796
  924loPI   C3A13429  15.814   5.783   7.633 -0.0189 -0.3197 -0.0689
  924loPI   C4A13430  15.794   5.914   8.080 -0.0294  0.1986 -0.3493
  924loPI   C5A13431  15.607   6.143   8.446 -0.3375  0.1295 -0.0442
  924loPI   C6A13432  15.281   5.938   8.756  0.0886  0.1589  0.0833
  924loPI   C1B13433  15.408   5.877   6.898  0.1720  0.1007  0.1892
  924loPI   C2B13434  15.362   5.860   7.376 -0.0269 -0.0240 -0.0748
  924loPI   C3B13435  15.342   5.948   7.873  0.2166  0.0318 -0.0907
  924loPI   C4B13436  15.043   5.835   8.089 -0.1274 -0.0938 -0.2076
  925loPI    C113437   8.466   8.958   5.086 -0.1806 -0.0682 -0.1057
  925loPI    C213438   8.684   8.650   4.953 -0.0748 -0.1225  0.1851
  925loPI    C313439   8.812   9.024   4.895 -0.1916 -0.1303 -0.1474
  925loPI   PO413440   8.381   8.928   5.343 -0.1543  0.1673  0.1380
  925loPI   GL113441   8.321   8.605   5.694  0.1850 -0.1086  0.3464
  925loPI   GL213442   8.554   8.659   5.899  0.1023 -0.0475 -0.1342
  925loPI   C1A13443   7.978   8.507   6.029 -0.2343 -0.1545 -0.0602
  925loPI   C2A13444   7.920   8.159   6.374 -0.2282 -0.1873  0.0716
  925loPI   C3A13445   7.864   7.999   6.788 -0.2658  0.3893 -0.3246
  925loPI   C4A13446   7.830   8.159   7.219 -0.1433  0.3126  0.2122
  925loPI   C5A13447   7.933   8.454   7.456 -0.1695  0.4336  0.0329
  925loPI   C6A13448   8.064   8.488   7.804 -0.0147 -0.2003 -0.4665
  925loPI   C1B13449   8.837   8.709   6.249  0.2497 -0.3932  0.1728
  925loPI   C2B13450   9.175   8.768   6.486 -0.0276  0.4090  0.4086
  925loPI   C3B13451   9.153   8.668   6.941  0.0079  0.0792  0.0640
  925loPI   C4B13452   9.292   8.936   7.309 -0.1202  0.1982  0.0848
  926loPI    C113453  14.578   2.942   6.001 -0.1336 -0.1188 -0.0549
  926loPI    C213454  14.257   2.705   5.979  0.0289 -0.3354 -0.1204
  926loPI    C313455  14.608   2.555   6.097  0.0401 -0.0330  0.2488
  926loPI   PO413456  14.469   3.123   6.080  0.1854  0.2748 -0.0830
  926loPI   GL113457  14.320   3.087   6.435 -0.0156 -0.2402  0.0218
  926loPI   GL213458  14.535   2.887   6.548  0.0130  0.1282 -0.4429
  926loPI   C1A13459  14.101   2.948   6.830 -0.4406 -0.2021 -0.3140
  926loPI   C2A13460  14.191   2.930   7.249  0.0508 -0.0923  0.0894
  926loPI   C3A13461  14.280   3.038   7.673 -0.2749 -0.0037  0.1559
  926loPI   C4A13462  14.537   3.242   7.962 -0.0518  0.3790 -0.0809
  926loPI   C5A13463  14.862   3.401   8.113  0.1133  0.0179  0.2219
  926loPI   C6A13464  14.987   3.713   8.178  0.1601  0.0378 -0.0261
  926loPI   C1B13465  14.606   2.982   6.986  0.0297  0.1629 -0.1962
  926loPI   C2B13466  14.581   3.229   7.316 -0.2379 -0.0190  0.3038
  926loPI   C3B13467  14.871   3.470   7.531 -0.3377  0.3663  0.1580
  926loPI   C4B13468  15.073   3.753   7.584  0.2869 -0.0956 -0.0825
  927loPI    C113469  14.980  17.753   5.417 -0.1558  0.2634  0.0517
  927loPI    C213470  14.913  17.487   5.126 -0.0250  0.0904  0.1775
  927loPI    C313471  15.081  17.840   5.039 -0.0846  0.0835  0.0288
  927loPI   PO413472  15.121  17.634   5.663  0.1013  0.2803  0.1846
  927loPI   GL113473  15.190  17.572   6.117  0.0007 -0.1630  0.1114
  927loPI   GL213474  15.241  17.834   6.126  0.0554 -0.2224 -0.2049
  927loPI   C1A13475  15.108  17.580   6.605  0.1384 -0.1108 -0.1965
  927loPI   C2A13476  15.165  17.561   7.010  0.1372 -0.0070  0.1778
  927loPI   C3A13477  15.073  17.488   7.391  0.0587 -0.0602 -0.1465
  927loPI   C4A13478  15.100  17.424   7.837  0.0770 -0.1557  0.0141
  927loPI   C5A13479  15.091  17.109   8.135  0.0329 -0.2726 -0.2457
  927loPI   C6A13480  15.122  17.083   8.621 -0.0989 -0.1621 -0.0575
  927loPI   C1B13481  15.118  18.057   6.457 -0.2905  0.0917 -0.1221
  927loPI   C2B13482  15.056  18.074   6.847 -0.0634 -0.1886  0.0606
  927loPI   C3B13483  14.963  18.012   7.175 -0.0246  0.0342 -0.3010
  927loPI   C4B13484  14.967  17.928   7.577  0.0503 -0.2156 -0.1267
  928loPI    C113485   9.186   1.365   5.295  0.2323 -0.0193  0.0719
  928loPI    C213486   9.146   1.176   4.945  0.0979  0.0053  0.0733
  928loPI    C313487   9.175   1.575   4.955  0.0954  0.0050  0.0908
  928loPI   PO413488   9.106   1.248   5.430 -0.5192 -0.1581 -0.0355
  928loPI   GL113489   9.034   1.287   5.796  0.0714  0.0874 -0.1615
  928loPI   GL213490   9.038   1.526   5.912 -0.0228 -0.4219  0.1270
  928loPI   C1A13491   9.197   1.086   6.052 -0.2547  0.1561  0.0019
  928loPI   C2A13492   9.278   1.140   6.550  0.0540 -0.5311 -0.1820
  928loPI   C3A13493   9.428   1.210   6.887 -0.1573 -0.1152  0.0741
  928loPI   C4A13494   9.339   1.050   7.288 -0.1863  0.0437  0.0772
  928loPI   C5A13495   9.215   0.768   7.611  0.2094 -0.2719  0.0916
  928loPI   C6A13496   9.420   0.652   8.027  0.0356  0.1065 -0.0672
  928loPI   C1B13497   8.995   1.542   6.345 -0.3685  0.1292 -0.0000
  928loPI   C2B13498   9.044   1.550   6.751 -0.1399 -0.1628  0.2225
  928loPI   C3B13499   9.094   1.590   7.189  0.0971  0.0944  0.1926
  928loPI   C4B13500   9.279   1.655   7.612 -0.1511  0.2664 -0.0136
  929loPI    C113501  15.548   5.688   5.705  0.2601  0.2467  0.0363
  929loPI    C213502  15.261   5.864   5.489  0.1864  0.1355  0.0433
  929loPI    C313503  15.637   5.857   5.353  0.1173 -0.0471 -0.1451
  929loPI   PO413504  15.334   5.602   5.924 -0.2012 -0.0572  0.0613
  929loPI   GL113505  15.003   5.569   6.212  0.1443  0.1491  0.0538
  929loPI   GL213506  14.873   5.328   6.295 -0.0575 -0.1074  0.0225
  929loPI   C1A13507  14.976   5.692   6.620 -0.1725  0.0320 -0.0511
  929loPI   C2A13508  14.913   5.716   7.006 -0.0636 -0.0454 -0.0329
  929loPI   C3A13509  14.864   5.773   7.443  0.1842  0.3390 -0.2716
  929loPI   C4A13510  14.554   5.796   7.838  0.0651  0.4659 -0.2158
  929loPI   C5A13511  14.525   5.641   8.115  0.0650 -0.0746  0.1448
  929loPI   C6A13512  14.452   5.354   8.514  0.1238 -0.1654 -0.2681
  929loPI   C1B13513  14.727   5.265   6.754  0.1917 -0.0904  0.1591
  929loPI   C2B13514  14.627   5.387   7.232 -0.0298 -0.0998  0.1960
  929loPI   C3B13515  14.679   5.280   7.694 -0.2225 -0.2132 -0.0780
  929loPI   C4B13516  14.841   5.265   8.091 -0.1453  0.2326  0.0565
  930loPI    C113517   7.580   0.308   5.011  0.2095 -0.1689  0.0179
  930loPI    C213518   7.602  -0.091   5.039 -0.0505 -0.1826  0.0537
  930loPI    C313519   7.550   0.082   4.682  0.2616 -0.1682  0.0127
  930loPI   PO413520   7.446   0.388   5.339 -0.3540 -0.3154  0.2890
  930loPI   GL113521   7.513   0.688   5.695 -0.1033 -0.1007  0.2363
  930loPI   GL213522   7.397   0.863   5.775  0.0832  0.0774  0.0549
  930loPI   C1A13523   7.404   0.475   6.192 -0.2128 -0.0563  0.0575
  930loPI   C2A13524   7.525   0.580   6.620 -0.0501 -0.1859 -0.0718
  930loPI   C3A13525   7.450   0.593   6.980 -0.0815  0.3824  0.1660
  930loPI   C4A13526   7.380   0.525   7.420  0.0129 -0.4477  0.4255
  930loPI   C5A13527   7.295   0.213   7.612 -0.0468 -0.1629 -0.1784
  930loPI   C6A13528   7.125  -0.123   7.804 -0.0577  0.1156  0.2160
  930loPI   C1B13529   7.226   0.978   6.195 -0.0720 -0.0256  0.1536
  930loPI   C2B13530   7.303   1.040   6.602  0.2604 -0.1631 -0.0212
  930loPI   C3B13531   7.140   1.223   6.895  0.0826 -0.0009  0.1375
  930loPI   C4B13532   6.857   1.334   7.287 -0.2357  0.3164 -0.2157
  931loPI    C113533   8.993   3.064   5.391  0.0961 -0.1525 -0.0614
  931loPI    C213534   9.040   3.388   5.161  0.2049 -0.0749  0.0687
  931loPI    C313535   9.030   3.024   4.995 -0.2220  0.0126 -0.1114
  931loPI   PO413536   8.912   3.145   5.634  0.0389 -0.0363  0.2018
  931loPI   GL113537   9.057   3.102   5.981  0.0328  0.2915 -0.0863
  931loPI   GL213538   9.403   2.968   6.026  0.0561  0.4691 -0.0239
  931loPI   C1A13539   8.976   3.044   6.378 -0.1721  0.0050  0.0293
  931loPI   C2A13540   9.003   3.067   6.871  0.0457 -0.2580  0.0958
  931loPI   C3A13541   8.906   2.974   7.268 -0.1139 -0.1283  0.0681
  931loPI   C4A13542   8.662   2.782   7.548 -0.1284 -0.0469  0.0092
  931loPI   C5A13543   8.579   2.552   7.939 -0.0530 -0.3361  0.1348
  931loPI   C6A13544   8.319   2.252   8.251 -0.2072  0.1821  0.0466
  931loPI   C1B13545   9.534   2.831   6.430  0.3677  0.0996 -0.0041
  931loPI   C2B13546   9.470   2.845   6.852  0.2282  0.2162 -0.1019
  931loPI   C3B13547   9.508   2.941   7.186  0.1652  0.3329  0.0859
  931loPI   C4B13548   9.441   3.107   7.611  0.0570 -0.0386 -0.2090
  932loPI    C113549   3.858   3.733   5.445  0.2320  0.1359 -0.0201
  932loPI    C213550   3.943   4.101   5.577  0.0409  0.1633  0.0295
  932loPI    C313551   3.607   4.036   5.370  0.2648  0.0919 -0.3188
  932loPI   PO413552   3.978   3.568   5.554  0.0268  0.0584  0.2818
  932loPI   GL113553   4.162   3.657   5.955  0.0553 -0.0467 -0.2171
  932loPI   GL213554   4.330   3.963   5.909 -0.0264  0.1088  0.0258
  932loPI   C1A13555   4.285   3.623   6.391  0.2208  0.0719  0.1179
  932loPI   C2A13556   4.357   3.583   6.822 -0.1894 -0.1593  0.2555
  932loPI   C3A13557   4.437   3.743   7.286 -0.1103 -0.1588 -0.0691
  932loPI   C4A13558   4.808   3.941   7.553  0.1046 -0.3300 -0.0425
  932loPI   C5A13559   5.006   4.320   7.558  0.2740 -0.1378  0.1732
  932loPI   C6A13560   5.050   4.692   7.751  0.1562  0.0774 -0.4198
  932loPI   C1B13561   4.325   4.137   6.344 -0.1858 -0.2889  0.0214
  932loPI   C2B13562   4.326   4.358   6.748 -0.1848 -0.1623 -0.0119
  932loPI   C3B13563   4.687   4.531   6.764  0.0432  0.2397 -0.0124
  932loPI   C4B13564   5.153   4.760   6.526  0.3076 -0.0497 -0.2594
  933loPI    C113565  16.875   3.280   5.610  0.0569 -0.0301 -0.0248
  933loPI    C213566  16.550   3.384   5.402 -0.1300 -0.1055  0.2247
  933loPI    C313567  16.910   3.399   5.229 -0.2681 -0.0598 -0.0674
  933loPI   PO413568  16.675   3.081   5.780 -0.1550 -0.0496  0.0414
  933loPI   GL113569  16.285   3.133   6.011  0.1814  0.0931  0.2047
  933loPI   GL213570  16.326   2.826   6.170  0.1303  0.0594 -0.1010
  933loPI   C1A13571  16.450   3.239   6.445 -0.0863 -0.1702 -0.0728
  933loPI   C2A13572  16.520   3.261   6.866  0.2732 -0.0847  0.4879
  933loPI   C3A13573  16.490   3.127   7.257 -0.3422  0.1914 -0.0649
  933loPI   C4A13574  16.554   2.982   7.723 -0.0589 -0.3019  0.1888
  933loPI   C5A13575  16.695   3.010   8.137 -0.1604  0.1656  0.0842
  933loPI   C6A13576  17.223   3.040   8.217 -0.1549  0.1133 -0.5619
  933loPI   C1B13577  16.603   2.805   6.611 -0.1446  0.2436 -0.0236
  933loPI   C2B13578  16.813   2.856   6.982 -0.1764  0.0712  0.2608
  933loPI   C3B13579  16.813   2.693   7.348  0.0803  0.1794  0.2111
  933loPI   C4B13580  17.002   2.778   7.767  0.1740 -0.1696  0.1550
  934loPI    C113581  12.023  15.040   5.876  0.1250  0.1731  0.0956
  934loPI    C213582  12.221  14.736   5.706  0.0136  0.0879  0.1173
  934loPI    C313583  11.839  14.806   5.609  0.0343  0.2119  0.1239
  934loPI   PO413584  12.152  15.125   6.037 -0.0215 -0.1058  0.1597
  934loPI   GL113585  12.116  15.072   6.411  0.1858  0.1644 -0.0102
  934loPI   GL213586  11.875  14.814   6.524  0.1924  0.1022 -0.0746
  934loPI   C1A13587  11.980  15.080   6.932  0.1465  0.0289  0.0578
  934loPI   C2A13588  11.846  14.782   7.168 -0.3424  0.0897  0.4281
  934loPI   C3A13589  11.804  14.707   7.520 -0.1397  0.3415  0.0919
  934loPI   C4A13590  11.430  14.766   7.778 -0.0502  0.0042  0.0079
  934loPI   C5A13591  11.213  14.873   8.162 -0.2407 -0.0009 -0.0270
  934loPI   C6A13592  10.759  14.850   8.371  0.1708 -0.4204  0.1494
  934loPI   C1B13593  12.184  14.643   6.825 -0.3285  0.0662  0.1506
  934loPI   C2B13594  12.213  14.464   7.125 -0.3070  0.1437 -0.0330
  934loPI   C3B13595  12.259  14.519   7.537  0.1458 -0.1896  0.1847
  934loPI   C4B13596  12.139  14.813   7.925 -0.1458  0.1487  0.0306
  935loPI    C113597   6.943   4.087   5.327 -0.2224 -0.0056  0.0262
  935loPI    C213598   6.995   3.890   4.983 -0.1042  0.1436 -0.0428
  935loPI    C313599   7.249   4.181   5.087 -0.0147 -0.0427  0.2730
  935loPI   PO413600   6.880   3.937   5.484  0.1777  0.3610  0.2356
  935loPI   GL113601   6.570   3.826   5.799  0.0688 -0.0491  0.0682
  935loPI   GL213602   6.459   4.099   5.723 -0.1306 -0.2156 -0.0218
  935loPI   C1A13603   6.589   3.808   6.231 -0.1350 -0.1518  0.0468
  935loPI   C2A13604   6.957   3.690   6.365 -0.2952  0.0747  0.5024
  935loPI   C3A13605   7.137   3.708   6.803 -0.1830 -0.3553  0.2248
  935loPI   C4A13606   7.016   3.755   7.223 -0.0816 -0.1260  0.0724
  935loPI   C5A13607   6.864   3.491   7.521  0.5674  0.0385  0.0849
  935loPI   C6A13608   6.875   3.368   7.931 -0.1608 -0.0062 -0.1162
  935loPI   C1B13609   6.409   4.233   6.126  0.2314 -0.0200 -0.0116
  935loPI   C2B13610   6.336   4.163   6.590  0.1360  0.0671  0.5147
  935loPI   C3B13611   6.485   4.082   6.986  0.1474  0.1350  0.1587
  935loPI   C4B13612   6.445   3.998   7.421  0.1064  0.0036 -0.1302
  936loPI    C113613   6.995  16.823   5.048  0.1326  0.0050  0.0996
  936loPI    C213614   7.079  16.433   5.017 -0.1411 -0.0494  0.0154
  936loPI    C313615   7.074  16.663   4.690 -0.2585 -0.0351  0.0266
  936loPI   PO413616   6.983  16.834   5.317  0.1877  0.0087  0.1530
  936loPI   GL113617   7.260  16.897   5.730 -0.0334  0.2025  0.1695
  936loPI   GL213618   7.308  16.616   5.926  0.1445  0.0306  0.2903
  936loPI   C1A13619   7.600  16.941   6.144 -0.1146  0.0053 -0.4295
  936loPI   C2A13620   7.563  16.960   6.563 -0.3839 -0.0166 -0.0806
  936loPI   C3A13621   7.493  17.051   6.995  0.1729  0.1593 -0.0542
  936loPI   C4A13622   7.289  16.802   7.366  0.1459 -0.0095 -0.0192
  936loPI   C5A13623   7.406  16.629   7.776 -0.1123  0.1739 -0.1195
  936loPI   C6A13624   7.801  16.495   7.927 -0.1942 -0.1671  0.4795
  936loPI   C1B13625   7.322  16.593   6.341 -0.1649 -0.3285 -0.0512
  936loPI   C2B13626   7.097  16.426   6.725  0.1656 -0.0391 -0.0369
  936loPI   C3B13627   7.109  16.386   7.094 -0.0160  0.2282 -0.2926
  936loPI   C4B13628   7.379  16.229   7.326  0.0311 -0.1170 -0.0859
  937loPI    C113629   1.530  13.398   5.400  0.0744 -0.2706 -0.0891
  937loPI    C213630   1.224  13.299   5.638  0.0035  0.0162 -0.0569
  937loPI    C313631   1.205  13.225   5.245 -0.0877 -0.0096 -0.0477
  937loPI   PO413632   1.742  13.291   5.585  0.1793 -0.1662  0.0153
  937loPI   GL113633   1.801  13.324   6.041 -0.0049  0.0075  0.0986
  937loPI   GL213634   1.488  13.089   6.014  0.0532  0.1919 -0.0472
  937loPI   C1A13635   1.960  12.961   6.175 -0.1551  0.1124  0.0335
  937loPI   C2A13636   2.102  12.607   6.451  0.0457 -0.1623 -0.2262
  937loPI   C3A13637   1.926  12.425   6.822 -0.1894  0.0710 -0.3441
  937loPI   C4A13638   1.857  12.456   7.234 -0.0738 -0.0809  0.2248
  937loPI   C5A13639   1.636  12.366   7.677 -0.2035  0.1778  0.0380
  937loPI   C6A13640   1.187  12.285   7.623 -0.2668  0.2113  0.1107
  937loPI   C1B13641   1.481  12.852   6.375  0.1064  0.0214  0.0709
  937loPI   C2B13642   1.777  12.919   6.689 -0.2954 -0.1317  0.2131
  937loPI   C3B13643   1.703  12.970   7.149  0.1904  0.0702 -0.1026
  937loPI   C4B13644   1.818  12.998   7.608 -0.1728 -0.2226  0.0288
  938loPI    C113645  12.449   7.494   5.703  0.1086 -0.0782 -0.1239
  938loPI    C213646  12.355   7.882   5.675  0.0263 -0.0550  0.3710
  938loPI    C313647  12.451   7.674   5.346 -0.0773  0.3438  0.0811
  938loPI   PO413648  12.471   7.452   5.987 -0.0222  0.1923 -0.1039
  938loPI   GL113649  12.674   7.168   6.349 -0.0909  0.0376 -0.0613
  938loPI   GL213650  12.688   7.469   6.457  0.0555  0.3066 -0.0542
  938loPI   C1A13651  12.439   6.908   6.508 -0.1436  0.2209 -0.1095
  938loPI   C2A13652  12.516   7.004   6.978  0.1640 -0.2038  0.2548
  938loPI   C3A13653  12.303   6.951   7.286  0.3039 -0.0433  0.0536
  938loPI   C4A13654  12.222   7.101   7.577 -0.0560 -0.0908  0.0438
  938loPI   C5A13655  12.054   7.374   7.938  0.0130  0.0575  0.0820
  938loPI   C6A13656  12.053   7.648   8.347  0.0962 -0.0968  0.2728
  938loPI   C1B13657  12.596   7.440   6.818  0.0439 -0.0751  0.0760
  938loPI   C2B13658  12.455   7.494   7.230  0.0912  0.1095 -0.0299
  938loPI   C3B13659  12.461   7.539   7.639  0.1014 -0.0136 -0.0638
  938loPI   C4B13660  12.561   7.458   7.986 -0.1520 -0.0046  0.0211
  939loPI    C113661   6.236  11.551   5.527 -0.2449 -0.2313  0.1239
  939loPI    C213662   5.939  11.356   5.342 -0.2182  0.1603 -0.3535
  939loPI    C313663   6.289  11.409   5.156 -0.0185  0.1427  0.0077
  939loPI   PO413664   6.161  11.745   5.594 -0.4322  0.1000 -0.3747
  939loPI   GL113665   6.072  11.783   6.022  0.0384  0.1933 -0.0287
  939loPI   GL213666   6.445  11.863   6.004 -0.2163  0.1243  0.1013
  939loPI   C1A13667   5.862  11.691   6.423  0.1543  0.1396 -0.0056
  939loPI   C2A13668   5.710  11.696   6.780 -0.2937  0.0912  0.0412
  939loPI   C3A13669   5.660  11.440   7.175 -0.0077 -0.2062  0.0981
  939loPI   C4A13670   5.529  11.472   7.598 -0.0998  0.2968  0.5121
  939loPI   C5A13671   5.235  11.594   7.892  0.1024 -0.2621 -0.2053
  939loPI   C6A13672   5.164  11.971   8.199  0.0304  0.3777 -0.1100
  939loPI   C1B13673   6.808  11.670   6.231  0.0912  0.2722  0.2109
  939loPI   C2B13674   7.049  11.848   6.605  0.0366  0.0235 -0.0725
  939loPI   C3B13675   7.062  12.088   7.023 -0.2272 -0.0864 -0.0121
  939loPI   C4B13676   6.965  12.013   7.484  0.0781 -0.0131  0.0689
  940loPI    C113677  11.648  17.361   4.796  0.0912 -0.1289  0.1465
  940loPI    C213678  12.009  17.191   4.774 -0.0173 -0.3598  0.1159
  940loPI    C313679  11.731  17.106   4.499 -0.0021  0.0451 -0.0321
  940loPI   PO413680  11.562  17.316   5.132 -0.2447 -0.0451 -0.1601
  940loPI   GL113681  11.494  17.305   5.646 -0.0316 -0.2172  0.0086
  940loPI   GL213682  11.209  17.118   5.810  0.0829 -0.0080  0.0628
  940loPI   C1A13683  11.742  17.236   6.067 -0.1181  0.1947 -0.1049
  940loPI   C2A13684  11.823  17.088   6.526  0.2880  0.1032  0.0183
  940loPI   C3A13685  11.847  17.087   6.815  0.0766  0.1820 -0.0442
  940loPI   C4A13686  11.767  17.342   7.091 -0.0516 -0.1155  0.0615
  940loPI   C5A13687  11.818  17.336   7.420  0.1558  0.2365  0.2251
  940loPI   C6A13688  11.748  17.076   7.696 -0.3325 -0.0269 -0.1588
  940loPI   C1B13689  11.104  17.405   6.035  0.1661 -0.2061  0.0822
  940loPI   C2B13690  10.933  17.434   6.442 -0.0292  0.1097  0.0325
  940loPI   C3B13691  10.857  17.560   6.830  0.1930 -0.1794 -0.1466
  940loPI   C4B13692  10.648  17.701   7.089 -0.0928  0.0248 -0.0534
  941loPI    C113693   6.161  16.647   4.995  0.0596 -0.2991  0.0237
  941loPI    C213694   6.198  16.562   4.606 -0.0173 -0.0988 -0.0285
  941loPI    C313695   6.123  16.269   4.868 -0.0348 -0.2249 -0.1730
  941loPI   PO413696   6.438  16.815   5.108 -0.2641  0.1383 -0.5726
  941loPI   GL113697   6.564  16.813   5.599 -0.0654  0.2144  0.3575
  941loPI   GL213698   6.771  16.632   5.820  0.2209  0.1317 -0.1997
  941loPI   C1A13699   6.586  17.059   6.073 -0.0500 -0.1553  0.0209
  941loPI   C2A13700   6.595  17.093   6.531 -0.0811 -0.2828 -0.1043
  941loPI   C3A13701   6.628  17.216   6.957 -0.2041 -0.0882 -0.2320
  941loPI   C4A13702   6.356  16.963   7.107 -0.0423  0.1846 -0.1574
  941loPI   C5A13703   6.121  16.608   7.303  0.0958  0.0417 -0.2012
  941loPI   C6A13704   6.037  16.317   7.650  0.1008  0.2737 -0.0879
  941loPI   C1B13705   6.800  16.515   6.290 -0.0892 -0.1127  0.0756
  941loPI   C2B13706   6.618  16.556   6.688  0.0545  0.2171 -0.0223
  941loPI   C3B13707   6.267  16.319   6.925 -0.1043  0.0638  0.1770
  941loPI   C4B13708   6.051  16.069   7.075 -0.3519  0.0134  0.2698
  942loPI    C113709  14.993  10.983   5.671 -0.0718 -0.0098  0.1942
  942loPI    C213710  15.312  11.067   5.444 -0.1408  0.2915  0.2043
  942loPI    C313711  15.025  10.825   5.306 -0.0572  0.2668  0.0732
  942loPI   PO413712  15.096  11.084   5.934  0.2709  0.2747 -0.3954
  942loPI   GL113713  15.234  11.218   6.251  0.1568  0.0213 -0.0662
  942loPI   GL213714  15.329  11.495   6.357 -0.0889 -0.2049 -0.1434
  942loPI   C1A13715  15.047  11.342   6.758  0.1724  0.1460  0.1352
  942loPI   C2A13716  15.125  11.578   7.164 -0.2805  0.2150  0.2062
  942loPI   C3A13717  15.196  11.648   7.544 -0.3503  0.2721 -0.0471
  942loPI   C4A13718  15.108  11.548   7.897  0.0979  0.0491  0.1060
  942loPI   C5A13719  15.341  11.173   7.972  0.2543 -0.1846 -0.0209
  942loPI   C6A13720  15.293  10.781   7.878 -0.2258 -0.1271  0.0575
  942loPI   C1B13721  15.458  11.763   6.746 -0.0647 -0.2526 -0.0607
  942loPI   C2B13722  15.723  11.812   7.092 -0.0729  0.1858  0.0722
  942loPI   C3B13723  15.807  11.833   7.528 -0.2452  0.1458  0.2770
  942loPI   C4B13724  15.936  11.970   7.987 -0.1394  0.0923 -0.0488
  943loPI    C113725   2.710   9.940   6.150 -0.0486 -0.0382  0.0840
  943loPI    C213726   2.934   9.609   6.168 -0.2338 -0.1639  0.1045
  943loPI    C313727   2.965   9.854   5.854  0.1915  0.0092  0.2738
  943loPI   PO413728   2.457   9.897   6.165  0.3349 -0.0008  0.2071
  943loPI   GL113729   2.249   9.723   6.481 -0.0595  0.0768 -0.0018
  943loPI   GL213730   2.105   9.380   6.587  0.4610 -0.2171  0.0828
  943loPI   C1A13731   2.515   9.775   6.806 -0.1127 -0.2692 -0.1307
  943loPI   C2A13732   2.565   9.806   7.174 -0.0994  0.4798 -0.3740
  943loPI   C3A13733   2.251   9.812   7.498  0.1321 -0.0228  0.0088
  943loPI   C4A13734   2.105   9.892   7.810 -0.0851  0.0978 -0.1332
  943loPI   C5A13735   1.939  10.012   8.155  0.1340 -0.1014  0.0344
  943loPI   C6A13736   1.860   9.908   8.653  0.0455  0.1290  0.1003
  943loPI   C1B13737   2.294   9.335   6.919 -0.0460 -0.1510  0.2550
  943loPI   C2B13738   2.423   9.316   7.321 -0.0361 -0.1689  0.2251
  943loPI   C3B13739   2.505   9.389   7.816  0.0096  0.0451  0.0670
  943loPI   C4B13740   2.416   9.284   8.237  0.0886 -0.3323 -0.2646
  944loPI    C113741  16.438  16.290   5.355  0.1914 -0.0498  0.0284
  944loPI    C213742  16.297  16.381   4.992 -0.1279 -0.0148  0.1580
  944loPI    C313743  16.282  16.004   5.124 -0.0169 -0.0265  0.1381
  944loPI   PO413744  16.397  16.602   5.532  0.0606  0.1044 -0.2750
  944loPI   GL113745  16.448  16.661   6.057  0.3114  0.0897 -0.0169
  944loPI   GL213746  16.250  16.496   6.253  0.4309  0.1804 -0.1713
  944loPI   C1A13747  16.813  16.867   6.294 -0.2580  0.2147 -0.1155
  944loPI   C2A13748  17.021  16.770   6.756  0.1153 -0.0579  0.5960
  944loPI   C3A13749  16.901  16.803   7.169  0.0526 -0.0144  0.0511
  944loPI   C4A13750  16.979  16.736   7.627  0.2442 -0.2832  0.0404
  944loPI   C5A13751  17.088  16.788   8.039  0.0722  0.0872  0.0416
  944loPI   C6A13752  17.189  16.545   8.485 -0.1969 -0.1481 -0.0487
  944loPI   C1B13753  16.526  16.477   6.574 -0.3210  0.0183 -0.3066
  944loPI   C2B13754  16.595  16.520   6.944 -0.3564  0.2760 -0.2039
  944loPI   C3B13755  16.653  16.415   7.295  0.2517  0.2151  0.4053
  944loPI   C4B13756  16.532  16.474   7.781 -0.0637  0.1648  0.2569
  945loPI    C113757  15.133   7.187   5.975  0.1319 -0.1496 -0.0019
  945loPI    C213758  15.493   7.016   6.006  0.2475  0.1055  0.0933
  945loPI    C313759  15.398   7.226   5.679  0.1356 -0.0710  0.0113
  945loPI   PO413760  14.956   7.044   6.016  0.1277  0.2602  0.4058
  945loPI   GL113761  15.082   6.877   6.413  0.1045 -0.4366  0.0196
  945loPI   GL213762  14.723   7.026   6.542 -0.0181 -0.0846  0.0664
  945loPI   C1A13763  15.129   6.653   6.770 -0.0021  0.2679  0.1131
  945loPI   C2A13764  15.100   6.716   7.241 -0.2255  0.1309  0.1458
  945loPI   C3A13765  14.909   6.784   7.583 -0.1823  0.4208  0.0556
  945loPI   C4A13766  14.793   6.661   7.952 -0.0621 -0.0077  0.1304
  945loPI   C5A13767  14.810   6.644   8.395  0.0604 -0.0408 -0.2042
  945loPI   C6A13768  15.129   6.483   8.648  0.3191  0.3124 -0.2265
  945loPI   C1B13769  14.756   7.068   6.939  0.0227  0.0413  0.2253
  945loPI   C2B13770  14.564   7.051   7.318 -0.0139  0.1090 -0.2934
  945loPI   C3B13771  14.520   7.075   7.782 -0.0869  0.1078 -0.0719
  945loPI   C4B13772  14.662   7.186   8.162  0.1101  0.2726  0.1370
  946loPI    C113773   4.383   3.218   5.058  0.0904  0.0326  0.1476
  946loPI    C213774   4.253   3.594   5.015  0.0018 -0.0061  0.0750
  946loPI    C313775   3.994   3.301   5.097  0.0367 -0.0903 -0.1120
  946loPI   PO413776   4.649   3.252   5.269  0.0508 -0.0823  0.0106
  946loPI   GL113777   4.567   3.337   5.700 -0.3391 -0.1526 -0.3125
  946loPI   GL213778   4.363   3.122   5.715  0.1505  0.1377 -0.0647
  946loPI   C1A13779   4.622   3.460   6.079  0.0411 -0.0015 -0.1787
  946loPI   C2A13780   4.767   3.358   6.427 -0.1015  0.0220  0.0664
  946loPI   C3A13781   4.786   3.324   6.833  0.0259 -0.1612  0.1068
  946loPI   C4A13782   4.826   3.393   7.342  0.0509 -0.1474 -0.0243
  946loPI   C5A13783   4.862   3.082   7.696  0.0363 -0.0156 -0.0100
  946loPI   C6A13784   4.677   2.780   7.926  0.0841 -0.0007 -0.2755
  946loPI   C1B13785   4.348   3.036   6.137  0.2679 -0.0083 -0.2894
  946loPI   C2B13786   4.325   3.105   6.557 -0.3567  0.3693 -0.2161
  946loPI   C3B13787   4.492   2.957   6.964 -0.1102 -0.1422  0.3488
  946loPI   C4B13788   4.378   3.108   7.341  0.1474 -0.2138  0.4324
  947loPI    C113789  17.233  13.030   5.887 -0.0776  0.0774  0.2100
  947loPI    C213790  17.577  12.828   5.854 -0.0530  0.1114  0.2580
  947loPI    C313791  17.309  12.817   5.557  0.0204  0.1425  0.1904
  947loPI   PO413792  17.268  13.339   5.976 -0.0945  0.1020  0.1782
  947loPI   GL113793  17.179  13.690   6.199  0.1688  0.1193  0.1942
  947loPI   GL213794  17.237  13.939   6.346 -0.0948  0.0300 -0.1696
  947loPI   C1A13795  17.511  13.584   6.533  0.1412  0.0859 -0.1690
  947loPI   C2A13796  17.663  13.589   6.965  0.1035 -0.2074  0.0928
  947loPI   C3A13797  17.691  13.526   7.360  0.1545 -0.0683  0.1824
  947loPI   C4A13798  17.675  13.346   7.735 -0.3882  0.1517  0.1483
  947loPI   C5A13799  17.401  13.345   8.243  0.3533 -0.0495  0.3202
  947loPI   C6A13800  17.225  13.804   8.482 -0.3929 -0.1245  0.1730
  947loPI   C1B13801  17.329  13.979   6.791  0.2155  0.0169  0.1099
  947loPI   C2B13802  17.288  13.958   7.257 -0.1153  0.1372  0.0997
  947loPI   C3B13803  17.448  14.053   7.659 -0.2654  0.1520  0.0705
  947loPI   C4B13804  17.395  13.997   8.057 -0.1672 -0.0844 -0.0809
  948loPI    C113805   7.639   1.220   5.007  0.3967 -0.0425  0.2886
  948loPI    C213806   7.585   0.823   5.003 -0.0102  0.0102  0.1108
  948loPI    C313807   7.881   0.987   4.789 -0.2082 -0.1521 -0.2986
  948loPI   PO413808   7.523   1.241   5.243  0.1507 -0.0491 -0.0800
  948loPI   GL113809   7.272   1.402   5.557  0.2120 -0.1460  0.1481
  948loPI   GL213810   7.521   1.430   5.746 -0.2601 -0.1064  0.3011
  948loPI   C1A13811   6.979   1.320   5.854 -0.1549 -0.0629  0.0166
  948loPI   C2A13812   6.706   1.118   6.201 -0.2919  0.1816  0.2120
  948loPI   C3A13813   6.747   0.948   6.619  0.2747  0.1600 -0.0894
  948loPI   C4A13814   6.651   0.947   6.980  0.1836 -0.1516 -0.2987
  948loPI   C5A13815   6.527   0.817   7.445 -0.2008 -0.0118  0.1493
  948loPI   C6A13816   6.222   0.708   7.747 -0.1806 -0.0084  0.1609
  948loPI   C1B13817   7.427   1.388   6.192 -0.0630  0.0588 -0.2032
  948loPI   C2B13818   7.402   1.549   6.664 -0.1977 -0.4000  0.2130
  948loPI   C3B13819   7.370   1.559   7.192 -0.0002 -0.0111 -0.3571
  948loPI   C4B13820   7.164   1.675   7.539  0.0736 -0.3089 -0.4293
  949loPI    C113821   8.428  11.947   5.254  0.2538 -0.0502 -0.0646
  949loPI    C213822   8.065  11.835   5.379  0.0451  0.4206 -0.2280
  949loPI    C313823   8.251  11.627   5.092 -0.0147  0.0731 -0.0193
  949loPI   PO413824   8.621  11.912   5.459 -0.1494 -0.1271 -0.1365
  949loPI   GL113825   8.719  12.186   5.756  0.4815 -0.0604  0.2366
  949loPI   GL213826   8.774  11.997   5.914  0.3973 -0.2031 -0.2626
  949loPI   C1A13827   8.409  12.301   6.120 -0.2749  0.0630 -0.0194
  949loPI   C2A13828   8.533  12.641   6.330  0.3207 -0.1036 -0.2025
  949loPI   C3A13829   8.622  12.998   6.543 -0.2170  0.0796 -0.1367
  949loPI   C4A13830   8.498  13.353   6.896 -0.1462  0.4466  0.0758
  949loPI   C5A13831   8.310  13.678   7.024 -0.0343  0.1232  0.2873
  949loPI   C6A13832   8.269  13.745   7.446 -0.1274 -0.0675 -0.2439
  949loPI   C1B13833   8.680  11.774   6.214  0.2802  0.5267  0.3956
  949loPI   C2B13834   8.698  11.638   6.701  0.1546  0.0336  0.1041
  949loPI   C3B13835   8.508  11.509   7.091  0.1204 -0.3591  0.0578
  949loPI   C4B13836   8.694  11.576   7.540  0.0170 -0.1507 -0.1622
  950loPI    C113837  13.388   9.584   5.772  0.0082  0.2701  0.0773
  950loPI    C213838  13.040   9.693   5.609 -0.0058  0.1009 -0.0076
  950loPI    C313839  13.373   9.694   5.387  0.0083  0.0490  0.0132
  950loPI   PO413840  13.456   9.750   6.063 -0.1781  0.0318  0.4376
  950loPI   GL113841  13.515   9.896   6.403 -0.0351 -0.0702 -0.0693
  950loPI   GL213842  13.222   9.919   6.477 -0.0803  0.0338 -0.2182
  950loPI   C1A13843  13.539  10.046   6.787 -0.0243 -0.0031  0.0008
  950loPI   C2A13844  13.477  10.012   7.187 -0.0512  0.0138 -0.3050
  950loPI   C3A13845  13.510  10.186   7.651  0.0654  0.1296 -0.1979
  950loPI   C4A13846  13.397  10.264   8.082  0.0592  0.4677  0.0152
  950loPI   C5A13847  13.331  10.553   8.542  0.0775  0.0049 -0.0047
  950loPI   C6A13848  13.052  10.727   8.969 -0.0686 -0.0302  0.0592
  950loPI   C1B13849  12.984   9.816   6.774  0.2207 -0.2815  0.1204
  950loPI   C2B13850  12.826   9.779   7.155 -0.0433 -0.1624 -0.4020
  950loPI   C3B13851  12.723   9.561   7.497 -0.3584  0.0909  0.0704
  950loPI   C4B13852  12.698   9.517   8.018 -0.1732 -0.0626  0.1455
  951loPI    C113853  13.715   5.126   5.614  0.1123  0.0876 -0.1767
  951loPI    C213854  13.362   5.037   5.448  0.0659  0.2351 -0.1581
  951loPI    C313855  13.686   5.081   5.218  0.0685  0.1188 -0.1771
  951loPI   PO413856  13.654   4.963   5.958 -0.4988  0.0661 -0.1890
  951loPI   GL113857  13.365   4.893   6.321 -0.2116  0.1517 -0.3147
  951loPI   GL213858  13.164   5.120   6.400 -0.1227 -0.2784 -0.1717
  951loPI   C1A13859  13.470   4.746   6.799 -0.0341 -0.2675  0.1510
  951loPI   C2A13860  13.467   4.734   7.255 -0.2309  0.0823 -0.0121
  951loPI   C3A13861  13.661   5.011   7.482 -0.1704  0.1332  0.3859
  951loPI   C4A13862  13.807   5.139   7.806 -0.1561 -0.0962  0.0674
  951loPI   C5A13863  13.754   5.225   8.268 -0.3303 -0.0621  0.1599
  951loPI   C6A13864  13.846   5.573   8.448 -0.0031  0.0025 -0.2393
  951loPI   C1B13865  13.043   4.952   6.712 -0.0264 -0.1851 -0.2340
  951loPI   C2B13866  12.908   4.995   7.125 -0.0481 -0.2510 -0.0097
  951loPI   C3B13867  13.062   4.798   7.530 -0.0183  0.2497 -0.1252
  951loPI   C4B13868  13.384   4.710   7.733  0.0651  0.2693 -0.3212
  952loPI    C113869  10.707   1.155   5.119  0.1217 -0.0796 -0.0153
  952loPI    C213870  11.066   1.209   4.951  0.0845 -0.1384 -0.1150
  952loPI    C313871  10.794   0.978   4.771 -0.0890  0.0991 -0.1615
  952loPI   PO413872  10.687   1.409   5.243  0.1398 -0.1754 -0.0397
  952loPI   GL113873  10.744   1.706   5.561 -0.0956 -0.0781 -0.0742
  952loPI   GL213874  10.858   1.935   5.566  0.2414  0.0109 -0.3662
  952loPI   C1A13875  11.040   1.569   5.851 -0.0482 -0.0112  0.2402
  952loPI   C2A13876  11.158   1.562   6.216  0.1339 -0.2602 -0.1783
  952loPI   C3A13877  11.192   1.626   6.565 -0.4028  0.3994  0.1427
  952loPI   C4A13878  11.208   1.586   6.951  0.2582  0.1189 -0.0907
  952loPI   C5A13879  10.931   1.325   7.350 -0.1042  0.1487 -0.0079
  952loPI   C6A13880  10.773   1.527   7.693 -0.1564  0.1650 -0.3005
  952loPI   C1B13881  10.672   1.912   6.030 -0.0016  0.1079 -0.0028
  952loPI   C2B13882  10.456   2.152   6.335 -0.1930 -0.0490 -0.0841
  952loPI   C3B13883  10.333   2.241   6.607  0.1561 -0.1956 -0.0057
  952loPI   C4B13884  10.254   2.140   7.023 -0.0506 -0.1945  0.0470
  953loPI    C113885   2.857  16.540   5.388  0.1104 -0.0930 -0.0893
  953loPI    C213886   2.732  16.824   5.137  0.2348  0.0835  0.0458
  953loPI    C313887   2.729  16.441   5.022  0.3104  0.1634 -0.2315
  953loPI   PO413888   2.679  16.659   5.630 -0.2909 -0.3056 -0.0623
  953loPI   GL113889   2.750  17.056   5.870 -0.0828 -0.2434  0.0396
  953loPI   GL213890   3.007  17.024   5.909  0.0411  0.2950 -0.1915
  953loPI   C1A13891   2.686  17.251   6.349 -0.1404  0.1292 -0.0741
  953loPI   C2A13892   2.659  17.199   6.828 -0.1187 -0.1460  0.0985
  953loPI   C3A13893   2.709  17.178   7.312 -0.1483  0.0793  0.1021
  953loPI   C4A13894   2.401  17.184   7.665  0.0524  0.1320  0.0566
  953loPI   C5A13895   2.061  17.279   7.935  0.2239  0.1404  0.0786
  953loPI   C6A13896   1.757  17.021   7.990 -0.0027  0.1523  0.1112
  953loPI   C1B13897   2.842  16.772   6.327 -0.0622 -0.0961 -0.1517
  953loPI   C2B13898   2.897  16.783   6.650 -0.2659 -0.1851  0.2297
  953loPI   C3B13899   2.950  16.733   7.020 -0.1902 -0.2688 -0.2989
  953loPI   C4B13900   3.073  16.786   7.434 -0.2333 -0.0984  0.0119
  954loPI    C113901  17.513  11.429   5.630  0.0031  0.0229  0.1289
  954loPI    C213902  17.763  11.466   5.319  0.0173  0.0999  0.1492
  954loPI    C313903  17.368  11.489   5.262  0.0190  0.0912  0.1335
  954loPI   PO413904  17.654  11.588   5.857 -0.1363 -0.0275  0.2849
  954loPI   GL113905  17.675  11.447   6.232  0.0450 -0.1213 -0.0829
  954loPI   GL213906  17.553  11.132   6.079 -0.2290 -0.0329  0.1674
  954loPI   C1A13907  17.711  11.491   6.697  0.1972  0.3037 -0.3924
  954loPI   C2A13908  17.811  11.449   7.184 -0.0120  0.0015  0.2800
  954loPI   C3A13909  17.757  11.442   7.548 -0.1188 -0.2232  0.0017
  954loPI   C4A13910  17.761  11.721   8.009 -0.1562 -0.3075  0.1361
  954loPI   C5A13911  17.661  11.965   8.310  0.2989  0.1758  0.1655
  954loPI   C6A13912  17.498  12.434   8.511  0.2128  0.1107 -0.0559
  954loPI   C1B13913  17.523  10.976   6.570  0.0614 -0.2109 -0.1033
  954loPI   C2B13914  17.514  11.038   7.037 -0.1005  0.2926  0.0909
  954loPI   C3B13915  17.495  11.032   7.424 -0.0710  0.1282 -0.0178
  954loPI   C4B13916  17.345  11.009   7.879 -0.2167 -0.1851 -0.1525
  955loPI    C113917  18.009  10.184   5.637 -0.1012  0.1768 -0.0834
  955loPI    C213918  18.087   9.814   5.508  0.1554  0.1979  0.0056
  955loPI    C313919  18.178  10.128   5.279  0.1129  0.2138  0.0107
  955loPI   PO413920  17.791  10.160   5.753  0.2322 -0.3667 -0.0845
  955loPI   GL113921  17.717  10.333   6.172  0.0181  0.1245  0.0181
  955loPI   GL213922  17.758  10.619   6.282  0.2559 -0.1554  0.0747
  955loPI   C1A13923  17.604  10.070   6.524 -0.3014 -0.1500 -0.3249
  955loPI   C2A13924  17.465   9.827   6.864  0.2554  0.0616  0.1222
  955loPI   C3A13925  17.313   9.797   7.223 -0.1416 -0.0979 -0.0222
  955loPI   C4A13926  17.409   9.975   7.651  0.0021 -0.3687 -0.1445
  955loPI   C5A13927  17.282  10.084   8.038 -0.1935  0.1991 -0.1965
  955loPI   C6A13928  17.446  10.058   8.478 -0.0397  0.2747 -0.2182
  955loPI   C1B13929  17.739  10.583   6.684  0.0534  0.2069  0.0848
  955loPI   C2B13930  17.744  10.596   7.141  0.0795 -0.1550  0.0401
  955loPI   C3B13931  17.757  10.629   7.574  0.1276 -0.0475  0.0016
  955loPI   C4B13932  17.672  10.560   7.978  0.1426 -0.0542 -0.2272
  956loPI    C113933  10.624   6.945   5.295  0.0773  0.2609 -0.1595
  956loPI    C213934  10.788   7.024   5.651 -0.0328 -0.0107 -0.0467
  956loPI    C313935  11.011   6.865   5.360  0.0047  0.0079 -0.0281
  956loPI   PO413936  10.283   6.900   5.389  0.1075  0.0028  0.0054
  956loPI   GL113937  10.117   6.689   5.786 -0.1118  0.0304 -0.1291
  956loPI   GL213938   9.912   6.748   5.724  0.2528 -0.0154  0.1288
  956loPI   C1A13939  10.257   6.576   6.199  0.3875  0.0818  0.1321
  956loPI   C2A13940  10.153   6.391   6.608  0.1114  0.0492 -0.0150
  956loPI   C3A13941  10.118   6.577   6.935  0.2603  0.0586  0.0808
  956loPI   C4A13942   9.971   6.761   7.279 -0.1994 -0.1945  0.2706
  956loPI   C5A13943   9.757   7.078   7.350  0.0408 -0.2900 -0.0287
  956loPI   C6A13944   9.498   7.199   7.700  0.0715 -0.0436 -0.2179
  956loPI   C1B13945   9.608   6.746   6.073  0.0551  0.2080 -0.0305
  956loPI   C2B13946   9.721   6.617   6.551 -0.4623 -0.3246 -0.1166
  956loPI   C3B13947   9.571   6.586   6.986 -0.1173  0.3094  0.2868
  956loPI   C4B13948   9.608   6.407   7.330 -0.0394 -0.1601 -0.0272
  957loPI    C113949  11.475   3.880   5.197 -0.0211 -0.2876  0.1655
  957loPI    C213950  11.728   3.878   4.888 -0.0848  0.2802  0.0998
  957loPI    C313951  11.856   3.990   5.250 -0.0799 -0.1081  0.2225
  957loPI   PO413952  11.310   3.651   5.245  0.1820  0.1387  0.2031
  957loPI   GL113953  11.180   3.485   5.603 -0.2198 -0.3048  0.0485
  957loPI   GL213954  11.025   3.742   5.727  0.0461 -0.2653 -0.2114
  957loPI   C1A13955  11.377   3.434   6.067 -0.1921 -0.1471  0.0007
  957loPI   C2A13956  11.524   3.249   6.493 -0.1475 -0.2703  0.0693
  957loPI   C3A13957  11.531   3.328   6.847 -0.0869 -0.3895 -0.0208
  957loPI   C4A13958  11.589   3.220   7.322 -0.0278  0.0768 -0.0793
  957loPI   C5A13959  11.553   2.791   7.633 -0.1669 -0.0825 -0.1429
  957loPI   C6A13960  11.543   2.314   7.676 -0.3873 -0.2207 -0.0360
  957loPI   C1B13961  10.884   3.525   6.044  0.0779 -0.1468  0.3187
  957loPI   C2B13962  10.974   3.497   6.460  0.0973 -0.1298 -0.3039
  957loPI   C3B13963  10.953   3.422   6.952 -0.2181 -0.1854 -0.0567
  957loPI   C4B13964  11.093   3.344   7.371  0.0590  0.0258  0.2649
  958loPI    C113965   5.009   3.588   5.266 -0.2003  0.1547  0.0220
  958loPI    C213966   5.189   3.945   5.247 -0.1674  0.1333 -0.0715
  958loPI    C313967   5.160   3.717   4.919 -0.1221  0.0176  0.0044
  958loPI   PO413968   4.994   3.571   5.541  0.1780 -0.0350 -0.0602
  958loPI   GL113969   5.262   3.857   5.769  0.0191  0.0314 -0.0829
  958loPI   GL213970   5.491   3.855   5.684  0.0608 -0.1750 -0.1717
  958loPI   C1A13971   4.851   3.878   6.127 -0.1585 -0.2361 -0.2474
  958loPI   C2A13972   4.758   3.849   6.571 -0.0650 -0.3405 -0.1613
  958loPI   C3A13973   4.886   3.821   6.969 -0.1569  0.1604 -0.3441
  958loPI   C4A13974   5.177   3.787   7.289 -0.0350 -0.1954 -0.0142
  958loPI   C5A13975   5.316   3.920   7.694 -0.4335  0.1477  0.0355
  958loPI   C6A13976   5.394   4.285   7.805  0.1090  0.2802 -0.1192
  958loPI   C1B13977   5.707   4.198   5.923  0.2646 -0.0473 -0.0248
  958loPI   C2B13978   5.857   4.176   6.376  0.0978 -0.2474 -0.5003
  958loPI   C3B13979   5.918   3.899   6.751  0.0743 -0.0081  0.1258
  958loPI   C4B13980   6.137   3.716   7.159  0.1760 -0.0697  0.3998
  959loPI    C113981  15.052   2.097   5.601 -0.2631  0.0513 -0.1227
  959loPI    C213982  15.156   2.426   5.399  0.0262  0.0310 -0.0107
  959loPI    C313983  15.035   2.100   5.201 -0.3862  0.2420 -0.1175
  959loPI   PO413984  14.992   2.174   5.846 -0.1370  0.0194 -0.4278
  959loPI   GL113985  15.081   2.010   6.127 -0.0690  0.1140  0.4113
  959loPI   GL213986  14.935   1.696   6.014 -0.1082 -0.0097  0.0204
  959loPI   C1A13987  15.073   2.245   6.507 -0.2896  0.0147 -0.1234
  959loPI   C2A13988  15.151   2.203   6.890 -0.0557 -0.0620  0.1966
  959loPI   C3A13989  14.977   2.125   7.256 -0.3163  0.0065  0.0669
  959loPI   C4A13990  14.765   2.229   7.704 -0.1441 -0.0045 -0.0665
  959loPI   C5A13991  14.302   2.053   7.754  0.0971  0.0692 -0.0058
  959loPI   C6A13992  13.926   1.725   7.901  0.1590  0.0197  0.2345
  959loPI   C1B13993  14.758   1.683   6.411 -0.2340 -0.0914 -0.1366
  959loPI   C2B13994  14.811   1.725   6.838 -0.0082 -0.0378 -0.0418
  959loPI   C3B13995  14.793   1.656   7.356 -0.0784  0.1354  0.1086
  959loPI   C4B13996  14.753   1.764   7.697 -0.0402 -0.1362 -0.0174
  960loPI    C113997  16.156   4.518   5.976 -0.0500  0.0496  0.0461
  960loPI    C213998  15.937   4.523   5.642 -0.0141  0.0484  0.0225
  960loPI    C313999  16.098   4.862   5.780 -0.1951  0.0843  0.1490
  960loPI   PO414000  15.898   4.284   6.096 -0.0107  0.0874 -0.0938
  960loPI   GL114001  15.805   4.208   6.535  0.2838  0.0257  0.1895
  960loPI   GL214002  15.572   4.522   6.509 -0.0262  0.0485 -0.0786
  960loPI   C1A14003  15.858   4.102   7.027  0.2768  0.4204  0.0774
  960loPI   C2A14004  15.868   3.882   7.443  0.0534 -0.0937 -0.0614
  960loPI   C3A14005  16.112   3.539   7.456  0.0236 -0.1994  0.0421
  960loPI   C4A14006  16.395   3.418   7.671  0.2518 -0.1531 -0.1576
  960loPI   C5A14007  16.607   3.519   8.083 -0.0481 -0.0977 -0.1582
  960loPI   C6A14008  16.715   3.774   8.568 -0.0469  0.0795  0.2930
  960loPI   C1B14009  15.550   4.551   6.896  0.0784  0.2745  0.1330
  960loPI   C2B14010  15.582   4.470   7.220  0.0260  0.0426 -0.0866
  960loPI   C3B14011  15.825   4.398   7.555  0.1471  0.1448  0.1569
  960loPI   C4B14012  15.994   4.065   7.876  0.2227 -0.2817 -0.1492
  961loPI    C114013   1.423   8.995   5.886 -0.1380  0.1178 -0.1000
  961loPI    C214014   1.092   9.173   5.749 -0.2473 -0.0301 -0.0314
  961loPI    C314015   1.303   9.343   6.043 -0.4085 -0.0637  0.1049
  961loPI   PO414016   1.413   8.753   6.083  0.0177 -0.1931  0.0951
  961loPI   GL114017   1.318   8.604   6.444  0.0651  0.0929 -0.1507
  961loPI   GL214018   1.667   8.596   6.583 -0.0239 -0.0820 -0.0294
  961loPI   C1A14019   1.112   8.749   6.740  0.0157 -0.3035 -0.2461
  961loPI   C2A14020   1.178   8.781   7.184  0.1578  0.0741 -0.1311
  961loPI   C3A14021   1.155   8.860   7.653  0.0417 -0.2448  0.2816
  961loPI   C4A14022   0.988   9.167   8.023 -0.0297  0.1607  0.0170
  961loPI   C5A14023   0.739   9.270   8.357  0.0415  0.4368 -0.0469
  961loPI   C6A14024   0.357   9.293   8.604  0.0431  0.2385  0.4098
  961loPI   C1B14025   1.619   8.776   7.028 -0.0500 -0.0066 -0.1009
  961loPI   C2B14026   1.542   8.571   7.461  0.0371  0.0555  0.1365
  961loPI   C3B14027   1.460   8.522   7.941 -0.1442  0.0487 -0.0806
  961loPI   C4B14028   1.528   8.738   8.259 -0.1923 -0.0061 -0.0588
  962loPI    C114029   2.635   0.869   5.169 -0.2272 -0.1493 -0.0568
  962loPI    C214030   3.015   0.748   5.200 -0.2415 -0.2803 -0.3527
  962loPI    C314031   2.926   1.078   4.992 -0.2292  0.1158  0.2445
  962loPI   PO414032   2.540   0.884   5.420  0.0955 -0.2572 -0.1462
  962loPI   GL114033   2.666   0.892   5.852  0.2052 -0.1154  0.2314
  962loPI   GL214034   2.754   1.153   5.948  0.0094  0.1120  0.1504
  962loPI   C1A14035   2.925   0.657   6.108 -0.0049  0.1115 -0.0208
  962loPI   C2A14036   3.032   0.573   6.535  0.1332  0.1761  0.1272
  962loPI   C3A14037   3.231   0.527   6.946  0.1455 -0.1352  0.0491
  962loPI   C4A14038   3.419   0.571   7.305 -0.1332  0.0996 -0.3441
  962loPI   C5A14039   3.201   0.520   7.715 -0.0153  0.3514 -0.0194
  962loPI   C6A14040   2.861   0.323   7.993  0.2478  0.0253  0.2272
  962loPI   C1B14041   2.787   0.999   6.426 -0.0277 -0.1191  0.0461
  962loPI   C2B14042   2.842   0.934   6.860  0.1555  0.2117  0.2331
  962loPI   C3B14043   3.072   0.894   7.215 -0.0216  0.0474 -0.1023
  962loPI   C4B14044   3.339   0.975   7.638 -0.1019  0.1082 -0.2023
  963loPI    C114045   0.627   7.158   5.789  0.0837 -0.0023  0.1171
  963loPI    C214046   0.440   6.851   5.966 -0.0973 -0.0056 -0.0751
  963loPI    C314047   0.624   6.798   5.614  0.0680  0.0534  0.0013
  963loPI   PO414048   0.645   7.293   5.974 -0.1403  0.2470 -0.1453
  963loPI   GL114049   0.438   7.284   6.354  0.1677  0.2549  0.1815
  963loPI   GL214050   0.697   6.973   6.383  0.1071 -0.0581  0.0565
  963loPI   C1A14051   0.303   7.488   6.724 -0.4500  0.3421 -0.2166
  963loPI   C2A14052   0.429   7.454   7.060  0.0032 -0.2393 -0.1730
  963loPI   C3A14053   0.496   7.668   7.470 -0.0843  0.2212 -0.2407
  963loPI   C4A14054   0.527   7.526   7.814 -0.0048 -0.2586 -0.1496
  963loPI   C5A14055   0.851   7.576   8.212 -0.2563 -0.1261 -0.1573
  963loPI   C6A14056   1.290   7.649   8.289 -0.0164 -0.1806  0.0506
  963loPI   C1B14057   0.983   6.884   6.668  0.1118 -0.2957 -0.2281
  963loPI   C2B14058   0.961   6.671   7.029  0.0281  0.2119 -0.4117
  963loPI   C3B14059   0.820   6.823   7.471 -0.0226  0.1450  0.2037
  963loPI   C4B14060   0.549   6.538   7.897  0.0965  0.2119  0.1396
  964loPI    C114061   2.356   8.891   5.977 -0.1222 -0.4118 -0.1778
  964loPI    C214062   2.596   8.608   5.829  0.2190 -0.2678  0.0838
  964loPI    C314063   2.510   8.932   5.610  0.1760 -0.3685 -0.0504
  964loPI   PO414064   2.370   8.865   6.230 -0.0904 -0.4746  0.0139
  964loPI   GL114065   2.586   9.039   6.574 -0.0370  0.1221 -0.0629
  964loPI   GL214066   2.713   9.347   6.634 -0.1243  0.2507  0.0960
  964loPI   C1A14067   2.522   8.864   6.922 -0.0598 -0.2986 -0.1424
  964loPI   C2A14068   2.497   8.525   7.208 -0.0145  0.1400 -0.0805
  964loPI   C3A14069   2.469   8.474   7.753 -0.0433  0.0764  0.2441
  964loPI   C4A14070   2.206   8.539   8.130 -0.1506 -0.0622  0.1467
  964loPI   C5A14071   1.947   8.434   8.411  0.1276  0.0671 -0.0280
  964loPI   C6A14072   1.487   8.423   8.655  0.1154 -0.1150 -0.3131
  964loPI   C1B14073   2.877   9.316   7.108  0.3474 -0.0889  0.2542
  964loPI   C2B14074   2.972   9.435   7.570 -0.0509 -0.0779  0.3334
  964loPI   C3B14075   3.075   9.614   7.990  0.1085 -0.0902 -0.0371
  964loPI   C4B14076   2.900   9.718   8.332 -0.0893  0.2730  0.0701
  965loPI    C114077  11.012  13.700   5.489 -0.2103 -0.1234  0.0989
  965loPI    C214078  11.057  13.321   5.369 -0.0546 -0.0781  0.0111
  965loPI    C314079  10.973  13.606   5.102 -0.0796 -0.0362  0.0637
  965loPI   PO414080  10.831  13.681   5.733  0.0206  0.2045 -0.0809
  965loPI   GL114081  11.055  13.896   6.093 -0.3891  0.1670  0.0834
  965loPI   GL214082  10.947  14.098   6.133  0.1491  0.0497  0.2307
  965loPI   C1A14083  11.145  13.813   6.512  0.1837 -0.0249 -0.1606
  965loPI   C2A14084  11.060  13.704   6.905 -0.0203 -0.2517 -0.1062
  965loPI   C3A14085  10.902  13.625   7.206 -0.4121  0.0910 -0.0403
  965loPI   C4A14086  10.770  13.565   7.553 -0.1522 -0.0888 -0.1517
  965loPI   C5A14087  10.448  13.501   7.791  0.1980  0.0894 -0.1425
  965loPI   C6A14088  10.091  13.492   8.038  0.0513  0.0694  0.0968
  965loPI   C1B14089  10.755  14.112   6.532  0.1035 -0.1422  0.1476
  965loPI   C2B14090  10.636  14.002   6.943  0.3068 -0.3509  0.1311
  965loPI   C3B14091  10.497  13.942   7.400  0.1044  0.0743  0.2058
  965loPI   C4B14092  10.337  14.081   7.845 -0.1903 -0.0116 -0.1033
  966loPI    C114093   0.142   2.572   5.693  0.1136  0.0759 -0.1443
  966loPI    C214094   0.145   2.950   5.560 -0.0349  0.1933  0.1754
  966loPI    C314095  -0.202   2.754   5.599  0.0276  0.0803  0.1682
  966loPI   PO414096   0.180   2.533   5.952  0.0490 -0.0042 -0.1032
  966loPI   GL114097   0.201   2.555   6.367 -0.1985 -0.0772  0.1434
  966loPI   GL214098  -0.034   2.690   6.456  0.0068 -0.1927 -0.2919
  966loPI   C1A14099   0.221   2.341   6.735  0.0095 -0.2183  0.0525
  966loPI   C2A14100   0.297   2.236   7.146  0.0902  0.1676  0.2126
  966loPI   C3A14101   0.325   2.233   7.511  0.1075  0.1357  0.3459
  966loPI   C4A14102   0.477   1.906   7.813 -0.1642 -0.2346 -0.3379
  966loPI   C5A14103   0.599   1.517   7.991 -0.0649  0.2320 -0.0150
  966loPI   C6A14104   0.384   1.215   8.173 -0.0862 -0.1446 -0.0234
  966loPI   C1B14105  -0.086   2.622   6.962  0.1356 -0.1267 -0.2176
  966loPI   C2B14106  -0.056   2.716   7.476 -0.0335  0.0228  0.0764
  966loPI   C3B14107   0.189   2.965   7.739  0.2295  0.0507  0.1003
  966loPI   C4B14108   0.080   2.908   8.176 -0.3043 -0.0911  0.0672
  967loPI    C114109  14.128   2.794   5.097 -0.0345 -0.1228 -0.0484
  967loPI    C214110  13.947   2.786   4.741  0.0125 -0.1996 -0.0706
  967loPI    C314111  14.298   2.599   4.792  0.1313  0.0250 -0.0526
  967loPI   PO414112  13.900   2.852   5.299  0.2028  0.0332  0.0805
  967loPI   GL114113  13.824   2.793   5.680 -0.0049  0.3852  0.1343
  967loPI   GL214114  13.862   2.484   5.817  0.1173  0.0458 -0.1124
  967loPI   C1A14115  13.496   3.013   5.893  0.0992  0.3657 -0.2369
  967loPI   C2A14116  13.299   3.053   6.228  0.2206  0.1361 -0.2464
  967loPI   C3A14117  13.152   3.050   6.704  0.0818  0.0716 -0.2326
  967loPI   C4A14118  13.050   3.036   7.087  0.0885 -0.2423  0.2685
  967loPI   C5A14119  12.890   2.989   7.496 -0.0701 -0.2569 -0.0434
  967loPI   C6A14120  12.838   2.797   7.842  0.0312 -0.0085  0.3089
  967loPI   C1B14121  13.791   2.644   6.178 -0.0788  0.2439  0.2247
  967loPI   C2B14122  13.618   2.869   6.589 -0.1050 -0.1702  0.1439
  967loPI   C3B14123  13.465   2.814   7.043 -0.3272 -0.2430 -0.1343
  967loPI   C4B14124  13.414   2.835   7.439 -0.2268 -0.0275  0.1168
  968loPI    C114125  14.565   5.209   5.604 -0.1987 -0.0413 -0.0186
  968loPI    C214126  14.183   5.190   5.485 -0.1866 -0.3587 -0.0155
  968loPI    C314127  14.435   4.891   5.399  0.0404 -0.1924  0.0601
  968loPI   PO414128  14.566   5.206   5.885  0.2168  0.1067 -0.1007
  968loPI   GL114129  14.642   4.895   6.188  0.0048  0.0644  0.1379
  968loPI   GL214130  14.297   5.112   6.341 -0.1528 -0.0785 -0.1389
  968loPI   C1A14131  14.487   4.793   6.584  0.0776 -0.0188  0.1258
  968loPI   C2A14132  14.485   4.711   7.027  0.1832 -0.0164  0.3133
  968loPI   C3A14133  14.770   4.747   7.376  0.0610 -0.0942 -0.0163
  968loPI   C4A14134  14.851   4.681   7.772  0.1181  0.0110  0.0601
  968loPI   C5A14135  14.973   4.669   8.169 -0.1678 -0.0683  0.1886
  968loPI   C6A14136  15.337   4.683   8.389  0.1456 -0.1228 -0.1775
  968loPI   C1B14137  14.047   5.159   6.632 -0.1211 -0.0502 -0.2007
  968loPI   C2B14138  13.923   5.206   7.049  0.0645 -0.1073  0.0861
  968loPI   C3B14139  14.201   5.108   7.319 -0.1004 -0.2083  0.1071
  968loPI   C4B14140  14.306   4.897   7.640 -0.1098 -0.1224 -0.2189
  969loPI    C114141   1.719   5.081   5.889 -0.1839 -0.3480 -0.1359
  969loPI    C214142   1.933   4.825   5.669  0.0644 -0.1463 -0.1338
  969loPI    C314143   1.775   5.151   5.500  0.1002 -0.0862 -0.0520
  969loPI   PO414144   1.549   4.965   5.966 -0.1080 -0.1719 -0.1698
  969loPI   GL114145   1.387   4.890   6.388 -0.0930 -0.2996 -0.0356
  969loPI   GL214146   1.382   5.166   6.524 -0.0085  0.0389  0.0876
  969loPI   C1A14147   1.533   4.677   6.759  0.3841  0.1411 -0.3195
  969loPI   C2A14148   1.626   4.454   7.185 -0.0533 -0.1691 -0.1754
  969loPI   C3A14149   1.494   4.485   7.665  0.0203 -0.1370 -0.0787
  969loPI   C4A14150   1.813   4.551   7.972  0.0437 -0.1132 -0.2494
  969loPI   C5A14151   2.083   4.860   8.133  0.1544 -0.0407 -0.1036
  969loPI   C6A14152   2.486   4.891   8.068  0.1349 -0.1921  0.2791
  969loPI   C1B14153   1.653   5.212   6.941  0.1115 -0.1232  0.1732
  969loPI   C2B14154   1.690   5.321   7.286 -0.0783 -0.1902  0.0796
  969loPI   C3B14155   1.899   5.385   7.633 -0.1813 -0.1468  0.3203
  969loPI   C4B14156   2.123   5.265   7.883 -0.0574 -0.0575 -0.2130
  970loPI    C114157   0.795   6.274   5.697 -0.2300  0.0866  0.0505
  970loPI    C214158   1.079   6.532   5.582  0.1613 -0.3292  0.0565
  970loPI    C314159   0.933   6.266   5.321 -0.0384 -0.2875  0.1239
  970loPI   PO414160   0.677   6.302   6.002  0.1774  0.0026  0.0667
  970loPI   GL114161   0.753   6.185   6.460  0.1955  0.0415 -0.1108
  970loPI   GL214162   1.038   6.344   6.498 -0.0563  0.2185  0.0439
  970loPI   C1A14163   0.753   6.211   6.958  0.2972  0.1047  0.3824
  970loPI   C2A14164   0.797   6.276   7.342 -0.2096  0.3173 -0.1447
  970loPI   C3A14165   0.791   6.141   7.678  0.0445 -0.0361  0.1495
  970loPI   C4A14166   0.790   6.149   8.146 -0.2831  0.1184 -0.0177
  970loPI   C5A14167   0.500   6.191   8.480  0.1410  0.1911  0.4207
  970loPI   C6A14168   0.218   6.100   8.669  0.4858 -0.1598 -0.0878
  970loPI   C1B14169   1.294   6.261   6.961 -0.0849 -0.1476  0.1950
  970loPI   C2B14170   1.414   6.316   7.419  0.0347  0.2224  0.1963
  970loPI   C3B14171   1.143   6.523   7.739  0.1849 -0.0092  0.0675
  970loPI   C4B14172   1.129   6.499   8.180 -0.1326 -0.1984 -0.1654
  971loPI    C114173   7.401  13.265   5.236  0.0970 -0.0082 -0.2153
  971loPI    C214174   7.331  13.554   4.967 -0.2336  0.2152  0.1020
  971loPI    C314175   7.151  13.198   4.931  0.2291  0.0129 -0.3293
  971loPI   PO414176   7.320  13.343   5.434  0.3748 -0.1394 -0.1702
  971loPI   GL114177   7.306  13.705   5.823 -0.0495  0.2312 -0.1822
  971loPI   GL214178   7.268  13.420   5.931  0.4068 -0.0188 -0.1479
  971loPI   C1A14179   7.240  14.070   6.127 -0.1060 -0.1252 -0.2112
  971loPI   C2A14180   6.979  14.093   6.454 -0.0401  0.1392 -0.1964
  971loPI   C3A14181   6.914  13.983   6.837 -0.2311 -0.1154 -0.0181
  971loPI   C4A14182   6.850  13.996   7.282 -0.1504 -0.0092  0.2075
  971loPI   C5A14183   6.566  14.042   7.563 -0.3223  0.0368  0.1181
  971loPI   C6A14184   6.424  14.211   7.804  0.0512  0.1431  0.0892
  971loPI   C1B14185   7.075  13.205   6.236  0.2253 -0.4249 -0.2293
  971loPI   C2B14186   6.862  13.165   6.678  0.1199 -0.0494 -0.1336
  971loPI   C3B14187   6.828  13.452   7.056  0.0437 -0.0294  0.2593
  971loPI   C4B14188   6.515  13.636   7.274  0.1223  0.1052  0.2749
  972loPI    C114189   6.534   3.804   5.142  0.2059 -0.1205 -0.0617
  972loPI    C214190   6.524   4.203   5.175  0.1328 -0.1108 -0.1946
  972loPI    C314191   6.390   4.026   4.842 -0.2278 -0.2694  0.0282
  972loPI   PO414192   6.321   3.749   5.323  0.1261 -0.0295 -0.2555
  972loPI   GL114193   6.252   3.402   5.573 -0.1937  0.0597  0.1807
  972loPI   GL214194   5.937   3.580   5.552  0.2314  0.0153  0.0946
  972loPI   C1A14195   6.334   3.410   5.955 -0.2779  0.0057 -0.1335
  972loPI   C2A14196   6.247   3.266   6.392 -0.0297 -0.0424 -0.0173
  972loPI   C3A14197   6.160   3.145   6.800  0.3455  0.1662  0.0683
  972loPI   C4A14198   5.962   2.831   7.038 -0.2198  0.3388  0.0434
  972loPI   C5A14199   5.711   2.769   7.445  0.0935  0.1257 -0.0973
  972loPI   C6A14200   5.268   2.944   7.425 -0.1387  0.0860 -0.1425
  972loPI   C1B14201   6.067   3.790   5.877 -0.3060 -0.2197 -0.1498
  972loPI   C2B14202   6.100   3.776   6.285  0.2902 -0.2423  0.4510
  972loPI   C3B14203   6.347   3.645   6.644 -0.1748 -0.0584 -0.2522
  972loPI   C4B14204   6.592   3.644   7.007  0.1921  0.1700 -0.1885
  973loPI    C114205  17.882  16.344   5.598 -0.0190 -0.3588  0.1044
  973loPI    C214206  17.900  16.089   5.290  0.0927  0.0062 -0.1992
  973loPI    C314207  18.214  16.320   5.377  0.0967 -0.1604  0.2544
  973loPI   PO414208  17.604  16.341   5.619 -0.1580 -0.1418  0.2145
  973loPI   GL114209  17.521  16.017   5.979  0.3127 -0.2331  0.0727
  973loPI   GL214210  17.570  15.690   6.004 -0.2282  0.3403  0.1670
  973loPI   C1A14211  17.668  16.185   6.365  0.2336 -0.0167  0.0260
  973loPI   C2A14212  17.688  16.196   6.800 -0.1222  0.1201 -0.1946
  973loPI   C3A14213  17.664  16.282   7.233  0.1297 -0.0042 -0.2900
  973loPI   C4A14214  17.742  16.275   7.657 -0.1811  0.0040  0.1386
  973loPI   C5A14215  17.886  16.140   7.998 -0.0349 -0.0122  0.1076
  973loPI   C6A14216  17.908  15.882   8.324 -0.1115 -0.1751 -0.3356
  973loPI   C1B14217  17.484  15.681   6.349  0.1482  0.3449 -0.2058
  973loPI   C2B14218  17.470  15.707   6.740  0.0810 -0.0652 -0.0151
  973loPI   C3B14219  17.381  15.832   7.096  0.1948  0.2741  0.1093
  973loPI   C4B14220  17.424  15.915   7.509 -0.0919 -0.0753 -0.1750
  974loPI    C114221  12.057  10.514   5.588 -0.3918  0.1328 -0.2973
  974loPI    C214222  11.832  10.286   5.348 -0.2380 -0.0017 -0.3157
  974loPI    C314223  12.152  10.477   5.201 -0.1351 -0.0956 -0.2155
  974loPI   PO414224  12.123  10.388   5.815 -0.1300  0.0726 -0.1298
  974loPI   GL114225  12.158  10.101   6.209 -0.1824  0.1569  0.1568
  974loPI   GL214226  12.245  10.411   6.491 -0.2301  0.1168  0.3966
  974loPI   C1A14227  12.075   9.981   6.588 -0.0715 -0.1296 -0.1723
  974loPI   C2A14228  11.988   9.846   6.982 -0.0886 -0.0683  0.3842
  974loPI   C3A14229  12.066   9.819   7.424  0.1126 -0.4679 -0.1565
  974loPI   C4A14230  12.286   9.683   7.748 -0.3831  0.1560 -0.5005
  974loPI   C5A14231  12.196   9.386   8.090 -0.1797 -0.1963  0.3519
  974loPI   C6A14232  11.808   9.154   8.214  0.1259  0.0538  0.0809
  974loPI   C1B14233  12.520  10.538   6.868  0.0328  0.4712  0.1655
  974loPI   C2B14234  12.402  10.670   7.242 -0.3932  0.0518 -0.1154
  974loPI   C3B14235  12.715  10.554   7.595 -0.1973 -0.0701 -0.0593
  974loPI   C4B14236  12.786  10.626   8.014  0.2234  0.0073  0.3018
  975loPI    C114237   1.055   3.013   5.533 -0.3988 -0.0587  0.1773
  975loPI    C214238   1.281   2.683   5.553 -0.0784  0.1401 -0.0654
  975loPI    C314239   1.052   2.749   5.232 -0.0825  0.1906 -0.0522
  975loPI   PO414240   0.949   3.048   5.743 -0.1446  0.0872  0.0105
  975loPI   GL114241   1.067   2.947   6.163  0.0768 -0.1719 -0.2776
  975loPI   GL214242   0.860   3.161   6.245 -0.1125  0.1154 -0.1172
  975loPI   C1A14243   1.115   2.845   6.590 -0.0517 -0.1117 -0.2440
  975loPI   C2A14244   1.144   2.707   7.081 -0.1154 -0.0012 -0.0136
  975loPI   C3A14245   1.093   2.372   7.297  0.0079 -0.1103 -0.0742
  975loPI   C4A14246   1.276   2.298   7.708  0.0043 -0.0949  0.0316
  975loPI   C5A14247   1.519   2.150   8.025 -0.0458 -0.1958  0.2724
  975loPI   C6A14248   1.927   1.932   8.210 -0.2013  0.1929 -0.1871
  975loPI   C1B14249   0.654   2.884   6.465 -0.2432 -0.2397 -0.0566
  975loPI   C2B14250   0.368   2.810   6.823 -0.1266  0.1615  0.1111
  975loPI   C3B14251   0.619   2.614   7.171 -0.2255 -0.1340 -0.0973
  975loPI   C4B14252   0.583   2.790   7.539  0.0008  0.2134 -0.0889
  976loPI    C114253  14.080   0.791   5.078 -0.1425 -0.0694 -0.0147
  976loPI    C214254  14.234   0.469   4.898 -0.0265  0.0921 -0.2087
  976loPI    C314255  13.839   0.527   4.900 -0.0695 -0.1835  0.0541
  976loPI   PO414256  14.163   0.768   5.330  0.3611 -0.2753 -0.1147
  976loPI   GL114257  14.060   1.069   5.652 -0.0012 -0.1154  0.1159
  976loPI   GL214258  13.896   1.206   5.857 -0.3368 -0.0923  0.3321
  976loPI   C1A14259  14.178   0.922   6.119 -0.2464 -0.0560 -0.0809
  976loPI   C2A14260  14.113   0.893   6.539 -0.0439 -0.0244  0.0691
  976loPI   C3A14261  14.069   0.817   7.011  0.0005 -0.2074 -0.2588
  976loPI   C4A14262  14.093   0.994   7.373 -0.1532 -0.0436  0.3989
  976loPI   C5A14263  14.142   0.925   7.817 -0.0506 -0.1173  0.0506
  976loPI   C6A14264  14.145   0.859   8.255  0.2923  0.1621 -0.0016
  976loPI   C1B14265  13.784   1.288   6.240  0.1550 -0.0192  0.0704
  976loPI   C2B14266  13.982   1.396   6.676 -0.1078  0.1242  0.0758
  976loPI   C3B14267  14.073   1.536   7.091 -0.2611 -0.0604 -0.0762
  976loPI   C4B14268  14.224   1.661   7.450 -0.1995  0.3819  0.1987
  977loPI    C114269   0.328  10.104   5.716 -0.0933 -0.3002  0.0880
  977loPI    C214270   0.695   9.987   5.609  0.0302  0.1489 -0.0006
  977loPI    C314271   0.474  10.207   5.358 -0.2507 -0.0076  0.1048
  977loPI   PO414272   0.379  10.072   6.042  0.0108 -0.0081  0.1479
  977loPI   GL114273   0.460   9.742   6.336  0.0150  0.1113 -0.0102
  977loPI   GL214274   0.138   9.746   6.492 -0.2004 -0.1834  0.0532
  977loPI   C1A14275   0.527   9.516   6.735  0.0761  0.1027  0.1836
  977loPI   C2A14276   0.514   9.643   7.156 -0.0156 -0.2043 -0.0735
  977loPI   C3A14277   0.541   9.672   7.584 -0.2077 -0.0501 -0.1170
  977loPI   C4A14278   0.764   9.582   7.939 -0.1337  0.0677 -0.0911
  977loPI   C5A14279   1.139   9.642   8.143  0.0848  0.1139  0.1593
  977loPI   C6A14280   1.571   9.595   8.305  0.1544 -0.1077 -0.1520
  977loPI   C1B14281   0.082   9.730   6.916  0.1360  0.2080 -0.2377
  977loPI   C2B14282   0.050   9.644   7.360  0.0892 -0.0177  0.1363
  977loPI   C3B14283   0.005   9.634   7.845  0.4517 -0.2124 -0.0313
  977loPI   C4B14284  -0.117   9.642   8.326 -0.0490 -0.2174  0.1746
  978loPI    C114285   7.294   8.538   5.166 -0.2495  0.1913 -0.1245
  978loPI    C214286   7.637   8.380   5.035 -0.2770  0.1024 -0.0899
  978loPI    C314287   7.366   8.148   5.216 -0.2458  0.2210  0.1123
  978loPI   PO414288   7.406   8.805   5.311  0.1187  0.1491  0.1444
  978loPI   GL114289   7.286   9.014   5.675  0.2471 -0.0996  0.1794
  978loPI   GL214290   7.120   9.287   5.691  0.2429 -0.1523 -0.2809
  978loPI   C1A14291   7.316   8.696   6.017  0.1251  0.0233  0.1496
  978loPI   C2A14292   7.615   8.567   6.365  0.1752  0.3073  0.0838
  978loPI   C3A14293   7.661   8.460   6.847 -0.2510 -0.0176  0.0068
  978loPI   C4A14294   7.540   8.620   7.234  0.0461 -0.1630 -0.2036
  978loPI   C5A14295   7.543   8.754   7.655  0.2036  0.2730 -0.2332
  978loPI   C6A14296   7.718   9.032   7.935 -0.1635 -0.0513  0.2422
  978loPI   C1B14297   7.035   9.252   6.206 -0.1908  0.3021  0.1649
  978loPI   C2B14298   7.129   9.398   6.589  0.2555  0.0628  0.2028
  978loPI   C3B14299   7.131   9.477   7.042 -0.3412  0.0215  0.0236
  978loPI   C4B14300   6.918   9.519   7.460  0.3922 -0.3578 -0.0966
  979loPI    C114301   2.028   9.240   6.106  0.2701 -0.1628 -0.0182
  979loPI    C214302   2.012   9.167   5.713  0.2999  0.1153 -0.0727
  979loPI    C314303   2.206   9.490   5.849 -0.0843  0.2635  0.1384
  979loPI   PO414304   1.815   9.220   6.160  0.3202 -0.0522 -0.1830
  979loPI   GL114305   1.627   9.104   6.469 -0.0983  0.0862 -0.1863
  979loPI   GL214306   1.427   9.134   6.570  0.0557  0.4223 -0.1205
  979loPI   C1A14307   1.986   8.928   6.711 -0.2349  0.3935  0.0177
  979loPI   C2A14308   2.105   8.846   7.146  0.3205 -0.2113 -0.0750
  979loPI   C3A14309   2.081   8.461   7.448  0.0989  0.0463 -0.0385
  979loPI   C4A14310   1.950   8.246   7.836  0.0098  0.0676 -0.2410
  979loPI   C5A14311   1.677   8.065   8.147  0.0457  0.2747  0.1889
  979loPI   C6A14312   1.640   7.969   8.639  0.1040  0.1962  0.2278
  979loPI   C1B14313   1.340   9.247   7.044 -0.2313 -0.0807  0.0571
  979loPI   C2B14314   1.457   9.206   7.457 -0.1769 -0.0763  0.0369
  979loPI   C3B14315   1.830   8.883   7.669  0.0494  0.0496 -0.1103
  979loPI   C4B14316   2.309   8.902   7.684  0.2489 -0.1095  0.0091
  980loPI    C114317  14.445  11.716   5.866 -0.0546  0.0934  0.3941
  980loPI    C214318  14.065  11.800   5.773 -0.0540 -0.1195  0.1901
  980loPI    C314319  14.350  12.074   5.716 -0.1662  0.0181  0.2830
  980loPI   PO414320  14.398  11.678   6.147  0.0986 -0.1435  0.0359
  980loPI   GL114321  14.408  11.509   6.559 -0.0664  0.0546  0.0484
  980loPI   GL214322  14.125  11.764   6.568 -0.2358  0.0434  0.0283
  980loPI   C1A14323  14.739  11.724   6.881 -0.0015  0.1084 -0.1176
  980loPI   C2A14324  14.787  12.015   7.320 -0.0213  0.1401  0.3599
  980loPI   C3A14325  14.968  12.079   7.753 -0.1439  0.2257  0.2736
  980loPI   C4A14326  15.013  12.426   7.961  0.3243  0.1320 -0.0121
  980loPI   C5A14327  15.180  12.717   8.191  0.1635  0.0178  0.0100
  980loPI   C6A14328  15.098  13.199   8.244  0.0376 -0.0079 -0.3152
  980loPI   C1B14329  14.148  11.541   6.971  0.4459 -0.1175 -0.3579
  980loPI   C2B14330  14.137  11.381   7.371  0.0969  0.0691 -0.2025
  980loPI   C3B14331  14.311  11.310   7.756  0.0288 -0.0079  0.1735
  980loPI   C4B14332  14.590  11.180   8.070 -0.3294 -0.0473  0.1138
  981loPI    C114333   5.031   2.073   4.947 -0.1915 -0.0312  0.0834
  981loPI    C214334   4.698   2.254   4.821 -0.2051 -0.1478 -0.0506
  981loPI    C314335   4.849   1.948   4.614  0.0504 -0.0211 -0.0549
  981loPI   PO414336   5.019   2.034   5.267  0.0868  0.2332 -0.0090
  981loPI   GL114337   5.176   2.287   5.704 -0.1174  0.2140 -0.1890
  981loPI   GL214338   5.284   1.963   5.660  0.1642  0.0173  0.1302
  981loPI   C1A14339   5.058   2.405   6.079  0.0250 -0.0761  0.1435
  981loPI   C2A14340   5.038   2.404   6.398 -0.0257 -0.1748 -0.4703
  981loPI   C3A14341   5.015   2.310   6.806  0.3143  0.0684  0.3980
  981loPI   C4A14342   4.912   2.203   7.252 -0.0001 -0.1259 -0.1657
  981loPI   C5A14343   4.753   2.254   7.712  0.3003 -0.0799 -0.1299
  981loPI   C6A14344   4.779   2.099   8.207 -0.2421  0.1324  0.1782
  981loPI   C1B14345   5.284   1.954   6.106  0.1254 -0.1602  0.0303
  981loPI   C2B14346   5.262   1.927   6.488  0.0651  0.2217  0.0099
  981loPI   C3B14347   5.230   1.812   6.895 -0.0109 -0.1756  0.1986
  981loPI   C4B14348   5.211   1.916   7.462  0.2616 -0.0083  0.0828
  982loPI    C114349   3.515  13.376   5.435  0.0715  0.0107  0.0669
  982loPI    C214350   3.238  13.247   5.177  0.1257 -0.0497  0.0385
  982loPI    C314351   3.385  13.618   5.144  0.3254 -0.1467 -0.1821
  982loPI   PO414352   3.457  13.169   5.658  0.1349  0.6093 -0.2777
  982loPI   GL114353   3.334  13.238   6.053 -0.2100 -0.2580 -0.1202
  982loPI   GL214354   3.277  13.647   6.141 -0.0245 -0.3151 -0.0425
  982loPI   C1A14355   3.406  13.117   6.554 -0.2834  0.0667 -0.0637
  982loPI   C2A14356   3.462  12.771   6.822  0.1151  0.2999  0.1575
  982loPI   C3A14357   3.369  12.885   7.256  0.1063 -0.1612  0.0491
  982loPI   C4A14358   3.351  13.207   7.509  0.1297  0.0860 -0.1925
  982loPI   C5A14359   3.573  13.386   7.786 -0.1695  0.0432 -0.0561
  982loPI   C6A14360   3.751  13.698   7.849  0.0530 -0.3027 -0.0610
  982loPI   C1B14361   3.131  13.532   6.602  0.1519  0.1866  0.1076
  982loPI   C2B14362   2.949  13.459   7.145 -0.0047 -0.3311  0.3093
  982loPI   C3B14363   2.898  13.560   7.610 -0.1631 -0.1053 -0.2347
  982loPI   C4B14364   2.761  13.814   7.963 -0.0948 -0.0307  0.0315
  983loPI    C114365  10.788   2.522   4.757 -0.0395  0.1219 -0.1304
  983loPI    C214366  11.151   2.356   4.785  0.0101  0.3090  0.4584
  983loPI    C314367  11.115   2.741   4.684 -0.0471  0.2166  0.1130
  983loPI   PO414368  10.630   2.354   4.987 -0.1776  0.1100 -0.0979
  983loPI   GL114369  10.514   2.260   5.412  0.0211  0.1051 -0.1174
  983loPI   GL214370  10.400   2.074   5.617  0.0976 -0.0627  0.0412
  983loPI   C1A14371  10.813   2.378   5.775 -0.1372 -0.3642 -0.0272
  983loPI   C2A14372  10.805   2.500   6.211 -0.0686  0.0541  0.1642
  983loPI   C3A14373  10.785   2.545   6.636  0.0999 -0.2228 -0.0867
  983loPI   C4A14374  10.724   2.375   7.039 -0.0212 -0.2147  0.1797
  983loPI   C5A14375  10.673   2.200   7.555  0.2079 -0.2170 -0.0181
  983loPI   C6A14376  10.620   2.198   7.998 -0.2385 -0.2008 -0.2241
  983loPI   C1B14377   9.980   2.156   5.930 -0.0242  0.0211 -0.2734
  983loPI   C2B14378   9.883   1.879   6.342  0.1065  0.0462 -0.4888
  983loPI   C3B14379   9.846   2.053   6.738 -0.0812 -0.2582  0.2276
  983loPI   C4B14380   9.739   2.080   7.137  0.1170  0.1335 -0.1740
  984loPI    C114381  11.219   8.965   5.587  0.2315 -0.0413 -0.1367
  984loPI    C214382  11.135   8.613   5.417 -0.0645 -0.1502  0.2210
  984loPI    C314383  11.512   8.746   5.427  0.0461 -0.4429  0.0604
  984loPI   PO414384  11.152   8.983   5.754 -0.3144 -0.0602  0.2637
  984loPI   GL114385  11.245   8.718   6.053  0.2274 -0.3645 -0.0744
  984loPI   GL214386  11.044   8.505   6.195 -0.0013  0.1492 -0.1728
  984loPI   C1A14387  11.437   9.043   6.472 -0.2173  0.0066  0.1170
  984loPI   C2A14388  11.475   9.144   6.873 -0.0678 -0.0977 -0.2973
  984loPI   C3A14389  11.479   8.984   7.301  0.1179 -0.2224 -0.3152
  984loPI   C4A14390  11.139   8.902   7.502 -0.0368  0.2890  0.1017
  984loPI   C5A14391  10.741   8.955   7.740  0.0457 -0.0981  0.0116
  984loPI   C6A14392  10.603   8.872   8.038 -0.3427  0.0404 -0.1561
  984loPI   C1B14393  10.993   8.791   6.539 -0.0498 -0.1722  0.0266
  984loPI   C2B14394  10.977   9.208   6.688 -0.0444  0.0614  0.0237
  984loPI   C3B14395  11.161   9.436   7.038 -0.1214  0.1701  0.0083
  984loPI   C4B14396  11.236   9.387   7.460  0.2251 -0.2625  0.0651
  985loPI    C114397   3.115   1.781   5.235  0.0915 -0.0321 -0.1409
  985loPI    C214398   2.797   1.703   5.006 -0.0341 -0.0869  0.0507
  985loPI    C314399   3.150   1.536   4.920 -0.0847 -0.1228 -0.0906
  985loPI   PO414400   3.031   1.672   5.459 -0.0573  0.1831  0.3129
  985loPI   GL114401   2.905   1.651   5.831 -0.3504  0.1371 -0.0859
  985loPI   GL214402   2.738   1.830   6.038  0.1147  0.3976 -0.0648
  985loPI   C1A14403   2.897   1.436   6.243 -0.2561 -0.2519 -0.0386
  985loPI   C2A14404   2.919   1.440   6.712 -0.0921 -0.1859 -0.1007
  985loPI   C3A14405   3.109   1.379   7.117  0.2250 -0.0930 -0.0743
  985loPI   C4A14406   2.953   1.366   7.579  0.2587  0.1036 -0.1866
  985loPI   C5A14407   2.954   1.372   8.060  0.2164 -0.2430  0.0159
  985loPI   C6A14408   2.883   1.260   8.429 -0.0310 -0.1304 -0.0009
  985loPI   C1B14409   2.597   1.787   6.553  0.0964 -0.0009 -0.0610
  985loPI   C2B14410   2.637   1.851   6.939  0.2019 -0.1260 -0.0315
  985loPI   C3B14411   2.795   1.850   7.361 -0.1190  0.2416  0.1218
  985loPI   C4B14412   2.709   1.822   7.839  0.1852  0.0325 -0.1851
  986loPI    C114413  13.764   8.660   5.805 -0.1050 -0.3517 -0.0744
  986loPI    C214414  13.942   8.823   5.486 -0.0731 -0.4237 -0.0935
  986loPI    C314415  13.544   8.838   5.522 -0.0386  0.1225  0.1611
  986loPI   PO414416  13.944   8.793   6.033  0.0565 -0.3084 -0.0013
  986loPI   GL114417  14.001   8.855   6.416  0.3310 -0.1900 -0.0676
  986loPI   GL214418  13.943   8.542   6.552 -0.0755 -0.2586  0.0443
  986loPI   C1A14419  14.220   9.187   6.675  0.0335 -0.1054  0.0311
  986loPI   C2A14420  14.242   9.259   7.091 -0.1239 -0.1505  0.0339
  986loPI   C3A14421  14.243   9.289   7.503 -0.1030  0.2123  0.3254
  986loPI   C4A14422  14.487   9.155   7.815  0.2089 -0.0739 -0.2334
  986loPI   C5A14423  14.618   9.155   8.304  0.0297 -0.0313 -0.1780
  986loPI   C6A14424  15.003   9.350   8.420  0.1096  0.1294 -0.1698
  986loPI   C1B14425  14.022   8.733   6.961 -0.3366  0.0859  0.0190
  986loPI   C2B14426  14.043   8.835   7.377 -0.3133  0.3068 -0.2945
  986loPI   C3B14427  14.055   8.851   7.782  0.0591  0.3081  0.1398
  986loPI   C4B14428  13.957   8.908   8.181 -0.0913  0.3043  0.3782
  987loPI    C114429  18.021  17.348   5.490 -0.2910 -0.0170 -0.0245
  987loPI    C214430  18.105  17.036   5.255  0.2222 -0.0151  0.1433
  987loPI    C314431  18.067  17.401   5.096  0.4985 -0.0246  0.0509
  987loPI   PO414432  17.809  17.324   5.607  0.2605 -0.0472  0.1600
  987loPI   GL114433  17.770  17.564   6.058  0.1423  0.2577 -0.1551
  987loPI   GL214434  17.385  17.554   6.214  0.1288 -0.0266 -0.2391
  987loPI   C1A14435  17.767  17.601   6.477 -0.0466  0.0333  0.0262
  987loPI   C2A14436  17.627  17.613   6.960 -0.2003  0.0982 -0.1945
  987loPI   C3A14437  17.527  17.576   7.399  0.1338  0.0401 -0.0288
  987loPI   C4A14438  17.670  17.508   7.789 -0.2787 -0.3075 -0.0433
  987loPI   C5A14439  17.648  17.455   8.258 -0.1345  0.0892  0.0355
  987loPI   C6A14440  17.890  17.325   8.539  0.3677  0.1499  0.1631
  987loPI   C1B14441  17.281  17.714   6.583 -0.0917  0.1017  0.1212
  987loPI   C2B14442  17.113  17.698   7.064  0.0218 -0.2863  0.1036
  987loPI   C3B14443  17.006  17.675   7.508 -0.1051  0.3441  0.2932
  987loPI   C4B14444  16.847  17.949   7.954 -0.2282  0.0220 -0.0732
  988loPI    C114445  11.683   8.922   5.863  0.2255 -0.2121  0.0718
  988loPI    C214446  11.851   9.284   5.831 -0.1488 -0.0659 -0.3607
  988loPI    C314447  11.519   9.236   6.050 -0.0259 -0.1794 -0.1960
  988loPI   PO414448  11.818   8.737   5.931 -0.0045 -0.3162 -0.0424
  988loPI   GL114449  11.696   8.462   6.147  0.0467  0.1298 -0.0214
  988loPI   GL214450  11.578   8.618   6.353 -0.2034  0.1354  0.2174
  988loPI   C1A14451  11.720   8.157   6.524 -0.0607 -0.1009 -0.0888
  988loPI   C2A14452  11.595   8.228   6.937 -0.3009 -0.0359  0.1066
  988loPI   C3A14453  11.600   8.511   7.276 -0.0725  0.0957 -0.2405
  988loPI   C4A14454  11.692   8.629   7.642 -0.1244  0.1086  0.1301
  988loPI   C5A14455  12.056   8.631   7.939 -0.1610  0.3707 -0.0003
  988loPI   C6A14456  12.243   8.882   8.179  0.1526  0.2170  0.1049
  988loPI   C1B14457  11.680   8.686   6.781  0.0187 -0.1600 -0.0054
  988loPI   C2B14458  11.930   8.845   7.142 -0.2212  0.0604  0.3187
  988loPI   C3B14459  12.284   8.785   7.470  0.1781  0.2389 -0.0319
  988loPI   C4B14460  12.577   8.492   7.646 -0.2363 -0.0096  0.0069
  989loPI    C114461  16.206  11.504   5.593 -0.0194 -0.1444 -0.0762
  989loPI    C214462  16.533  11.288   5.672 -0.0339 -0.1441 -0.0148
  989loPI    C314463  16.263  11.154   5.409 -0.1215 -0.2780  0.1412
  989loPI   PO414464  16.067  11.531   5.811  0.1748  0.1032 -0.0939
  989loPI   GL114465  16.090  11.390   6.315 -0.1215  0.2835  0.0473
  989loPI   GL214466  16.306  11.470   6.226  0.2937  0.1486  0.2631
  989loPI   C1A14467  16.251  11.350   6.728  0.0665 -0.0868 -0.0112
  989loPI   C2A14468  16.178  11.521   7.095  0.0564  0.1449 -0.1477
  989loPI   C3A14469  16.259  11.874   7.434 -0.3736 -0.1614  0.1269
  989loPI   C4A14470  16.438  12.078   7.854  0.0705 -0.2116 -0.2255
  989loPI   C5A14471  16.702  12.459   8.022 -0.1244  0.0576  0.3535
  989loPI   C6A14472  16.944  12.514   8.453 -0.0956 -0.1123 -0.2443
  989loPI   C1B14473  16.627  11.742   6.405  0.0576 -0.1345 -0.1898
  989loPI   C2B14474  16.899  11.828   6.766  0.1991 -0.1838 -0.1030
  989loPI   C3B14475  16.753  11.645   7.156  0.0539  0.0344 -0.1678
  989loPI   C4B14476  16.662  11.640   7.614 -0.0498  0.2354 -0.2963
  990loPI    C114477   2.078   0.178   5.254 -0.0709  0.1340  0.1917
  990loPI    C214478   2.277   0.476   5.077  0.0353 -0.0918 -0.0758
  990loPI    C314479   2.040   0.237   4.861  0.0588 -0.2871  0.1104
  990loPI   PO414480   2.353   0.053   5.445 -0.2591 -0.4724  0.0534
  990loPI   GL114481   2.469   0.244   5.842 -0.0755 -0.1484  0.1701
  990loPI   GL214482   2.396  -0.031   5.971 -0.0840  0.1730 -0.1303
  990loPI   C1A14483   2.685   0.237   6.231  0.0134 -0.1287  0.2909
  990loPI   C2A14484   2.790   0.114   6.672 -0.1247  0.2432  0.1758
  990loPI   C3A14485   2.709  -0.061   7.140  0.1298  0.0530 -0.0384
  990loPI   C4A14486   2.802  -0.017   7.573 -0.3108 -0.0692 -0.2717
  990loPI   C5A14487   3.140  -0.067   7.870  0.2529  0.1637 -0.4018
  990loPI   C6A14488   3.550   0.070   7.819  0.0846 -0.1552  0.3940
  990loPI   C1B14489   2.206   0.060   6.332 -0.2196  0.0503  0.2387
  990loPI   C2B14490   2.289   0.001   6.783 -0.0776  0.0391 -0.2526
  990loPI   C3B14491   2.212   0.139   7.204 -0.2258 -0.1009  0.0235
  990loPI   C4B14492   2.364  -0.131   7.559  0.1686  0.2158 -0.0476
  991loPI    C114493  13.859  10.910   5.624 -0.0704  0.0743  0.0786
  991loPI    C214494  13.710  11.013   5.267 -0.1434  0.1256  0.1236
  991loPI    C314495  14.080  11.126   5.369 -0.1395  0.1500  0.0824
  991loPI   PO414496  13.714  11.016   5.785 -0.0379  0.1186  0.3743
  991loPI   GL114497  13.639  11.355   6.009 -0.2240 -0.0314 -0.1692
  991loPI   GL214498  13.886  11.563   6.193 -0.1480  0.2464  0.0163
  991loPI   C1A14499  13.506  11.425   6.482 -0.0354 -0.1259  0.1074
  991loPI   C2A14500  13.543  11.497   6.944 -0.0089  0.1577 -0.0945
  991loPI   C3A14501  13.616  11.458   7.391 -0.0027  0.0051  0.0946
  991loPI   C4A14502  13.473  11.575   7.886 -0.1082  0.0087  0.0683
  991loPI   C5A14503  13.359  11.452   8.309  0.0753 -0.1865  0.1252
  991loPI   C6A14504  13.616  11.333   8.633 -0.1218  0.1395 -0.1715
  991loPI   C1B14505  13.663  11.874   6.349  0.0034 -0.0233  0.3142
  991loPI   C2B14506  13.692  11.976   6.856 -0.3011  0.2363  0.2274
  991loPI   C3B14507  13.805  11.866   7.201 -0.1216 -0.0008 -0.0198
  991loPI   C4B14508  13.943  11.678   7.707  0.2713 -0.2986 -0.3811
  992loPI    C114509  10.605   4.181   5.351  0.2381  0.0446  0.0595
  992loPI    C214510  10.962   4.037   5.241  0.1036 -0.3363  0.1078
  992loPI    C314511  10.637   3.958   5.021  0.0103 -0.1840  0.1886
  992loPI   PO414512  10.679   4.130   5.631 -0.1682  0.1413 -0.1399
  992loPI   GL114513  10.998   4.305   5.888  0.0042  0.1745  0.2827
  992loPI   GL214514  10.969   4.476   6.078 -0.2457 -0.3951 -0.1488
  992loPI   C1A14515  10.895   4.006   6.175  0.0926 -0.1879  0.2042
  992loPI   C2A14516  10.950   3.978   6.560  0.2796 -0.0758 -0.1400
  992loPI   C3A14517  10.904   3.923   6.929  0.2545 -0.1103  0.0510
  992loPI   C4A14518  10.795   3.794   7.198  0.0474  0.0857 -0.1192
  992loPI   C5A14519  10.737   3.781   7.671 -0.0801  0.0281 -0.0292
  992loPI   C6A14520  10.556   3.545   8.092  0.0523 -0.1130  0.1023
  992loPI   C1B14521  11.192   4.371   6.467  0.0189 -0.2059  0.1067
  992loPI   C2B14522  11.511   4.216   6.752 -0.0673 -0.3356 -0.0201
  992loPI   C3B14523  11.649   4.292   7.182  0.0774  0.0501  0.1309
  992loPI   C4B14524  11.654   4.153   7.679 -0.1035 -0.3178 -0.0256
  993loPI    C114525   3.277   3.599   5.394  0.1281 -0.0821  0.0123
  993loPI    C214526   3.543   3.311   5.472  0.1380 -0.0440  0.1195
  993loPI    C314527   3.484   3.431   5.095  0.0569 -0.2605  0.0617
  993loPI   PO414528   3.308   3.706   5.693 -0.2068  0.1188  0.1236
  993loPI   GL114529   3.553   3.588   5.950  0.1506  0.1258 -0.1182
  993loPI   GL214530   3.689   3.819   5.942 -0.0211 -0.1525  0.0182
  993loPI   C1A14531   3.716   3.378   6.302 -0.1505  0.1169  0.0285
  993loPI   C2A14532   3.877   3.382   6.636 -0.2493  0.0473  0.0174
  993loPI   C3A14533   4.059   3.250   7.045 -0.0018  0.0693  0.1937
  993loPI   C4A14534   3.970   3.234   7.515  0.1318 -0.1166  0.0077
  993loPI   C5A14535   3.999   3.390   7.940 -0.0018 -0.1455  0.1378
  993loPI   C6A14536   3.976   3.746   8.088 -0.0187  0.0814  0.1874
  993loPI   C1B14537   3.842   3.940   6.309 -0.1677  0.1248  0.1249
  993loPI   C2B14538   4.006   4.015   6.765  0.4946 -0.0912 -0.3162
  993loPI   C3B14539   3.982   3.798   7.083  0.0496  0.0173 -0.0720
  993loPI   C4B14540   4.035   3.729   7.542 -0.0018  0.0587  0.0357
  994loPI    C114541   4.842  17.252   4.961  0.0085 -0.2197  0.1122
  994loPI    C214542   5.238  17.301   4.935  0.0187 -0.3150  0.0845
  994loPI    C314543   5.003  17.408   4.630 -0.0399  0.3470  0.3430
  994loPI   PO414544   4.677  17.393   5.177  0.1013  0.4249  0.0123
  994loPI   GL114545   4.610  17.447   5.534  0.1069 -0.0349  0.0508
  994loPI   GL214546   4.345  17.564   5.496  0.0058 -0.1188  0.1504
  994loPI   C1A14547   4.512  17.418   6.120 -0.0363  0.1005 -0.1145
  994loPI   C2A14548   4.506  17.403   6.551 -0.0617  0.0735 -0.1683
  994loPI   C3A14549   4.699  17.351   6.850  0.3971 -0.0146  0.0813
  994loPI   C4A14550   4.730  17.333   7.368  0.0273 -0.1414 -0.0969
  994loPI   C5A14551   5.106  17.237   7.619  0.0644 -0.0630  0.2338
  994loPI   C6A14552   5.512  17.231   7.610 -0.2861  0.1826  0.0664
  994loPI   C1B14553   4.166  17.671   5.865  0.0348 -0.1953  0.0135
  994loPI   C2B14554   4.076  17.515   6.321  0.1619 -0.0882 -0.1644
  994loPI   C3B14555   4.018  17.405   6.668  0.1151 -0.3664 -0.0020
  994loPI   C4B14556   4.189  17.273   7.054 -0.2668 -0.0975 -0.2830
  995loPI    C114557   3.887   0.105   4.913 -0.0682 -0.0246 -0.2067
  995loPI    C214558   4.016   0.336   4.613  0.1997 -0.0238 -0.0937
  995loPI    C314559   3.844  -0.016   4.534  0.1321  0.0438 -0.2526
  995loPI   PO414560   4.103   0.129   5.227  0.1487 -0.0486 -0.3175
  995loPI   GL114561   4.409   0.023   5.541  0.0328  0.1777  0.2342
  995loPI   GL214562   4.741   0.171   5.455 -0.1422  0.0237 -0.1708
  995loPI   C1A14563   4.364  -0.138   6.058 -0.2139  0.0758  0.1825
  995loPI   C2A14564   4.373  -0.334   6.412 -0.0628 -0.2648 -0.1119
  995loPI   C3A14565   4.342  -0.485   6.838  0.0371  0.1938  0.0616
  995loPI   C4A14566   4.403  -0.519   7.353 -0.3728 -0.0903  0.0064
  995loPI   C5A14567   4.100  -0.300   7.716 -0.1945  0.0396  0.0415
  995loPI   C6A14568   4.003  -0.108   8.174 -0.0070 -0.0604  0.0365
  995loPI   C1B14569   4.643   0.274   5.882  0.1252  0.0067 -0.0480
  995loPI   C2B14570   4.715   0.117   6.297 -0.0705  0.3348  0.0373
  995loPI   C3B14571   4.595   0.006   6.667  0.0662  0.1165 -0.0686
  995loPI   C4B14572   4.427  -0.045   7.042 -0.2131  0.0713 -0.0183
  996loPI    C114573   8.604  16.948   5.037 -0.2297  0.1682 -0.2120
  996loPI    C214574   8.929  17.018   4.814 -0.0141 -0.0053  0.0417
  996loPI    C314575   8.706  17.323   4.944  0.1943  0.1328  0.0808
  996loPI   PO414576   8.732  16.759   5.271 -0.1254 -0.0854  0.3102
  996loPI   GL114577   8.706  16.703   5.650  0.0878 -0.1753  0.1419
  996loPI   GL214578   8.930  16.648   5.814 -0.5586 -0.2371 -0.0797
  996loPI   C1A14579   8.627  16.996   6.061  0.2393 -0.2806  0.0483
  996loPI   C2A14580   8.557  17.132   6.456 -0.0863 -0.0674  0.1243
  996loPI   C3A14581   8.335  17.279   6.895  0.1455 -0.1304  0.2662
  996loPI   C4A14582   8.200  17.437   7.272  0.1819  0.2465 -0.1077
  996loPI   C5A14583   7.968  17.378   7.653 -0.1359  0.0071 -0.0613
  996loPI   C6A14584   8.024  17.558   8.045 -0.0970 -0.1972 -0.0432
  996loPI   C1B14585   8.987  16.659   6.155 -0.0165 -0.0784 -0.0256
  996loPI   C2B14586   8.965  16.547   6.700  0.1210 -0.0848  0.0536
  996loPI   C3B14587   9.079  16.666   7.124  0.0025  0.1964  0.1260
  996loPI   C4B14588   9.294  16.734   7.448  0.2317 -0.0907 -0.3832
  997loPI    C114589   6.810   0.330   5.149 -0.0359 -0.0087 -0.0895
  997loPI    C214590   7.095   0.100   4.989 -0.1135 -0.2574  0.1233
  997loPI    C314591   6.710  -0.004   4.954 -0.1747  0.0225 -0.0735
  997loPI   PO414592   6.977   0.419   5.405 -0.1970  0.2221 -0.2070
  997loPI   GL114593   7.143   0.351   5.757  0.1836 -0.1961 -0.3302
  997loPI   GL214594   6.988   0.577   5.953  0.1432 -0.1030  0.0300
  997loPI   C1A14595   7.131   0.090   6.077 -0.0832 -0.2388  0.2386
  997loPI   C2A14596   7.056  -0.227   6.362  0.0646  0.2070 -0.1273
  997loPI   C3A14597   7.078  -0.251   6.822 -0.4156  0.1030  0.1730
  997loPI   C4A14598   7.107  -0.430   7.351  0.1887 -0.2240  0.1255
  997loPI   C5A14599   6.946  -0.602   7.727 -0.1365  0.1539 -0.0664
  997loPI   C6A14600   6.753  -0.884   8.054  0.2177  0.3402 -0.0083
  997loPI   C1B14601   7.001   0.566   6.435  0.2617  0.0873  0.0623
  997loPI   C2B14602   6.929   0.580   6.950  0.0114  0.2601  0.1712
  997loPI   C3B14603   6.877   0.418   7.337 -0.0805 -0.2551  0.0997
  997loPI   C4B14604   6.763   0.510   7.730 -0.1388  0.3036  0.0449
  998loPI    C114605  15.388   4.322   5.422 -0.1676  0.1849 -0.0197
  998loPI    C214606  15.029   4.206   5.287 -0.1228 -0.0110  0.0261
  998loPI    C314607  15.192   4.547   5.155 -0.1572 -0.1114 -0.2824
  998loPI   PO414608  15.420   4.311   5.715  0.1862 -0.1544  0.1690
  998loPI   GL114609  15.200   4.449   6.081  0.2283  0.0195  0.0991
  998loPI   GL214610  15.169   4.765   6.241 -0.1021 -0.0943  0.2308
  998loPI   C1A14611  15.167   4.258   6.493  0.1559 -0.0734  0.0941
  998loPI   C2A14612  15.357   4.089   6.800  0.1132  0.1154 -0.2290
  998loPI   C3A14613  15.312   3.949   7.190 -0.1893  0.0114 -0.3676
  998loPI   C4A14614  15.410   4.117   7.535 -0.2350 -0.0316 -0.0610
  998loPI   C5A14615  15.477   3.885   7.847  0.1504  0.1054 -0.2407
  998loPI   C6A14616  15.640   3.928   8.259 -0.0563 -0.2379  0.1876
  998loPI   C1B14617  14.968   4.899   6.552  0.0240  0.1183  0.0930
  998loPI   C2B14618  15.012   4.799   6.904 -0.0707 -0.1234 -0.2674
  998loPI   C3B14619  15.014   4.398   6.980  0.1475 -0.0982  0.0866
  998loPI   C4B14620  14.985   4.247   7.407 -0.1956 -0.0851 -0.3159
  999loPI    C114621   9.499  17.637   4.869  0.0775  0.0793  0.0247
  999loPI    C214622   9.211  17.912   4.833  0.0460  0.0325 -0.0844
  999loPI    C314623   9.143  17.535   4.718  0.0363 -0.0587  0.2119
  999loPI   PO414624   9.629  17.693   5.073 -0.3456 -0.0291 -0.0760
  999loPI   GL114625   9.577  17.759   5.518 -0.0769  0.0118  0.1570
  999loPI   GL214626   9.777  17.839   5.670 -0.1209 -0.2006 -0.0627
  999loPI   C1A14627   9.441  17.514   5.848 -0.0331 -0.1095  0.1184
  999loPI   C2A14628   9.492  17.376   6.132  0.0817 -0.0234 -0.2241
  999loPI   C3A14629   9.453  17.153   6.552  0.1843  0.4760 -0.1380
  999loPI   C4A14630   9.397  17.036   6.985  0.0326  0.1503  0.0934
  999loPI   C5A14631   9.388  17.226   7.377  0.2041 -0.0522  0.0015
  999loPI   C6A14632   9.355  17.145   7.760  0.0626  0.2448  0.0169
  999loPI   C1B14633   9.680  17.992   6.121  0.1156 -0.1773  0.1874
  999loPI   C2B14634   9.609  18.045   6.642  0.0488 -0.1155 -0.5734
  999loPI   C3B14635   9.632  17.894   6.999 -0.3546 -0.2459  0.4692
  999loPI   C4B14636   9.520  17.752   7.288 -0.0399 -0.1179  0.1049
 1000loPI    C114637  17.995  12.919   5.553  0.3208 -0.1261  0.0977
 1000loPI    C214638  18.157  12.586   5.704  0.2679 -0.1250  0.1569
 1000loPI    C314639  18.146  12.641   5.308  0.0403 -0.3150  0.1346
 1000loPI   PO414640  18.084  13.183   5.651 -0.0720 -0.1566  0.1148
 1000loPI   GL114641  17.964  13.302   5.976  0.3336  0.0975 -0.0087
 1000loPI   GL214642  18.012  12.972   6.085  0.0871  0.1238 -0.1524
 1000loPI   C1A14643  17.971  13.481   6.386 -0.0407  0.1226 -0.0900
 1000loPI   C2A14644  18.164  13.488   6.778 -0.2507  0.0549  0.1674
 1000loPI   C3A14645  18.166  13.471   7.232 -0.0785 -0.1286 -0.0011
 1000loPI   C4A14646  18.277  13.443   7.627 -0.0009 -0.1542  0.3068
 1000loPI   C5A14647  18.556  13.407   7.989  0.2506  0.0632 -0.1251
 1000loPI   C6A14648  18.822  13.516   8.402  0.0323  0.2051  0.1341
 1000loPI   C1B14649  18.131  13.024   6.507 -0.3547 -0.2554 -0.1532
 1000loPI   C2B14650  18.215  13.056   6.987  0.0817  0.1207 -0.0603
 1000loPI   C3B14651  18.489  13.011   7.353 -0.0139 -0.0701 -0.2064
 1000loPI   C4B14652  18.624  12.880   7.804  0.2551 -0.0161 -0.0467
 1001loPI    C114653   2.782   4.284   5.439 -0.0753 -0.0873 -0.0961
 1001loPI    C214654   2.814   3.886   5.428  0.0910 -0.0903  0.3249
 1001loPI    C314655   3.115   4.114   5.297 -0.1351 -0.0945 -0.2299
 1001loPI   PO414656   2.665   4.292   5.666  0.0707 -0.1038 -0.0348
 1001loPI   GL114657   2.941   4.140   6.060  0.1268  0.1013  0.0551
 1001loPI   GL214658   3.148   4.150   5.851 -0.3598 -0.0222 -0.1063
 1001loPI   C1A14659   2.956   4.149   6.480 -0.0809 -0.1593 -0.0008
 1001loPI   C2A14660   3.092   3.989   6.887  0.0837  0.2352 -0.1793
 1001loPI   C3A14661   3.214   3.814   7.205  0.1544  0.0700 -0.5055
 1001loPI   C4A14662   3.265   3.904   7.686 -0.1722  0.2575  0.0354
 1001loPI   C5A14663   3.496   3.831   8.030 -0.0755  0.4341  0.2881
 1001loPI   C6A14664   3.615   4.106   8.348  0.1066 -0.0841  0.1415
 1001loPI   C1B14665   3.392   4.224   6.230  0.0500  0.2716  0.0573
 1001loPI   C2B14666   3.539   4.238   6.639 -0.0561 -0.0159 -0.1614
 1001loPI   C3B14667   3.601   4.160   7.013 -0.1419  0.0829  0.1170
 1001loPI   C4B14668   3.627   4.063   7.380 -0.0456 -0.0766 -0.0831
 1002loPI    C114669  11.111   6.235   5.210  0.0337  0.0921  0.1216
 1002loPI    C214670  10.929   6.226   4.854 -0.0625  0.1119  0.1698
 1002loPI    C314671  11.054   5.885   5.023  0.0017  0.1044  0.1084
 1002loPI   PO414672  10.980   6.407   5.418  0.2857  0.1318  0.0207
 1002loPI   GL114673  11.118   6.606   5.825 -0.1436  0.0685  0.2249
 1002loPI   GL214674  11.294   6.494   6.033  0.1364 -0.2732 -0.1142
 1002loPI   C1A14675  10.761   6.677   6.117  0.0338  0.1339 -0.1021
 1002loPI   C2A14676  10.673   6.650   6.506 -0.5059 -0.2027 -0.1311
 1002loPI   C3A14677  10.648   6.588   6.944  0.2204 -0.2969 -0.0593
 1002loPI   C4A14678  10.479   6.446   7.195  0.1099 -0.0242 -0.0335
 1002loPI   C5A14679  10.303   6.408   7.552 -0.0945  0.2175 -0.1156
 1002loPI   C6A14680  10.500   6.316   7.854  0.0816  0.2371  0.0202
 1002loPI   C1B14681  11.151   6.714   6.425  0.1298 -0.0881  0.1590
 1002loPI   C2B14682  11.000   6.918   6.782  0.0525 -0.0183  0.2680
 1002loPI   C3B14683  10.948   6.820   7.200  0.2327 -0.3994 -0.1454
 1002loPI   C4B14684  10.845   6.638   7.594  0.0453  0.1062  0.1111
 1003loPI    C114685  12.799   4.462   5.703  0.1518 -0.1492  0.1094
 1003loPI    C214686  13.041   4.530   5.392  0.0468  0.2000  0.0997
 1003loPI    C314687  12.900   4.836   5.607 -0.3495 -0.0002  0.1336
 1003loPI   PO414688  12.920   4.247   5.878 -0.5487 -0.1583 -0.0862
 1003loPI   GL114689  12.728   3.997   6.158 -0.1077 -0.2269 -0.4164
 1003loPI   GL214690  12.432   4.159   6.085  0.3712  0.0502 -0.3312
 1003loPI   C1A14691  12.760   4.101   6.598  0.2058  0.0769  0.2237
 1003loPI   C2A14692  12.782   4.102   7.080  0.1197  0.0372 -0.1355
 1003loPI   C3A14693  12.709   4.082   7.478 -0.3743  0.0841  0.4237
 1003loPI   C4A14694  12.496   4.175   7.800  0.1908 -0.0370  0.1044
 1003loPI   C5A14695  12.184   4.477   7.796 -0.2851  0.1429  0.0698
 1003loPI   C6A14696  11.814   4.592   7.594  0.0593  0.2417 -0.5917
 1003loPI   C1B14697  12.259   4.308   6.486  0.0825  0.0831 -0.3040
 1003loPI   C2B14698  12.331   4.212   6.855  0.0627 -0.0403 -0.0792
 1003loPI   C3B14699  12.188   4.180   7.318 -0.0112  0.0148  0.0670
 1003loPI   C4B14700  12.060   3.937   7.729  0.0011 -0.0636  0.1558
 1004loPI    C114701   5.746  12.191   5.312 -0.0295 -0.0548 -0.0679
 1004loPI    C214702   6.132  12.106   5.256 -0.0125  0.0694 -0.1429
 1004loPI    C314703   5.851  11.894   5.066  0.0163 -0.0562 -0.0466
 1004loPI   PO414704   5.743  12.209   5.633 -0.1133 -0.2801 -0.0358
 1004loPI   GL114705   5.840  12.266   6.045  0.2429 -0.1289  0.2991
 1004loPI   GL214706   5.581  12.010   6.106  0.0588  0.3535  0.0528
 1004loPI   C1A14707   6.160  12.133   6.328  0.0780  0.0008  0.1498
 1004loPI   C2A14708   6.110  12.004   6.776 -0.0792  0.0560 -0.0607
 1004loPI   C3A14709   6.162  12.159   7.182  0.0200 -0.1693 -0.1210
 1004loPI   C4A14710   5.896  12.368   7.493 -0.0556  0.0713  0.3142
 1004loPI   C5A14711   5.564  12.525   7.745 -0.3700  0.1632 -0.0646
 1004loPI   C6A14712   5.317  12.892   7.699 -0.2228  0.0801  0.0066
 1004loPI   C1B14713   5.679  12.121   6.523 -0.1473  0.0842  0.1914
 1004loPI   C2B14714   5.617  12.125   6.973 -0.0118 -0.2468  0.3503
 1004loPI   C3B14715   5.519  11.965   7.337  0.0480  0.2613 -0.1157
 1004loPI   C4B14716   5.267  12.031   7.680  0.1938 -0.1100 -0.2169
 1005loPI    C114717   0.980   5.645   5.882  0.0483  0.0471  0.0189
 1005loPI    C214718   0.627   5.725   5.710  0.0685 -0.0577 -0.0717
 1005loPI    C314719   0.967   5.785   5.508  0.0958 -0.1071 -0.0407
 1005loPI   PO414720   0.953   5.753   6.067  0.0865 -0.0077 -0.2155
 1005loPI   GL114721   1.221   5.856   6.379 -0.1484 -0.1405 -0.1707
 1005loPI   GL214722   1.483   5.653   6.565  0.1121  0.4435 -0.0831
 1005loPI   C1A14723   1.075   5.851   6.750  0.2076  0.0777  0.0199
 1005loPI   C2A14724   1.119   5.837   7.253 -0.0171 -0.2392 -0.1475
 1005loPI   C3A14725   1.277   5.855   7.558 -0.0054  0.3540  0.0475
 1005loPI   C4A14726   1.266   6.020   8.013 -0.0896  0.2408  0.0252
 1005loPI   C5A14727   1.164   6.154   8.575 -0.1632  0.2435  0.0818
 1005loPI   C6A14728   0.988   6.345   8.856  0.2044  0.0529 -0.0734
 1005loPI   C1B14729   1.571   5.771   6.999  0.1055 -0.0062  0.0239
 1005loPI   C2B14730   1.811   5.876   7.408  0.2485 -0.0027  0.0747
 1005loPI   C3B14731   1.700   6.071   7.759  0.0049 -0.1370 -0.0677
 1005loPI   C4B14732   1.622   6.149   8.321 -0.0575  0.2085 -0.1765
 1006loPI    C114733   0.583  12.373   5.333  0.2270 -0.0377  0.0598
 1006loPI    C214734   0.519  12.613   5.020  0.2362 -0.0153  0.0752
 1006loPI    C314735   0.639  12.236   4.961 -0.1052 -0.1214  0.0376
 1006loPI   PO414736   0.376  12.406   5.485 -0.1995 -0.1447  0.1952
 1006loPI   GL114737   0.312  12.293   5.890  0.2293  0.0636 -0.1755
 1006loPI   GL214738   0.309  11.975   5.806  0.2223  0.1227  0.1908
 1006loPI   C1A14739   0.173  12.526   6.249 -0.1543 -0.1355 -0.2032
 1006loPI   C2A14740   0.143  12.510   6.698 -0.1215 -0.1935  0.1441
 1006loPI   C3A14741   0.322  12.656   6.976  0.0685  0.0772  0.1083
 1006loPI   C4A14742   0.424  12.507   7.387  0.0145  0.1801 -0.0375
 1006loPI   C5A14743   0.809  12.551   7.678  0.1707 -0.2048  0.1762
 1006loPI   C6A14744   0.900  12.673   8.001 -0.3497  0.0713 -0.0636
 1006loPI   C1B14745   0.288  11.905   6.241 -0.0113 -0.3816 -0.3242
 1006loPI   C2B14746   0.320  12.005   6.561 -0.2646 -0.0523 -0.2136
 1006loPI   C3B14747   0.343  12.037   6.925  0.1740  0.1191  0.0617
 1006loPI   C4B14748   0.243  12.109   7.298  0.2668  0.0716  0.2063
 1007loPI    C114749  14.259   2.440   5.442 -0.2078 -0.0546  0.4644
 1007loPI    C214750  14.643   2.421   5.551 -0.1119 -0.1865  0.1147
 1007loPI    C314751  14.457   2.774   5.538  0.0461 -0.1019  0.1257
 1007loPI   PO414752  14.174   2.177   5.559  0.1351 -0.0303  0.2212
 1007loPI   GL114753  14.203   2.059   5.965  0.1056 -0.0766 -0.2328
 1007loPI   GL214754  14.554   2.036   6.148 -0.2619 -0.0631 -0.0739
 1007loPI   C1A14755  14.020   2.237   6.314 -0.0482 -0.2706 -0.0371
 1007loPI   C2A14756  14.095   2.505   6.571 -0.0195  0.2721 -0.1359
 1007loPI   C3A14757  14.216   2.410   6.996  0.0387  0.1146 -0.2113
 1007loPI   C4A14758  14.266   2.475   7.516  0.1677  0.1391  0.0671
 1007loPI   C5A14759  14.367   2.562   7.915  0.2124 -0.3672 -0.2847
 1007loPI   C6A14760  14.251   2.687   8.295  0.0331  0.5141 -0.0406
 1007loPI   C1B14761  14.558   2.303   6.518 -0.1214  0.2043  0.0715
 1007loPI   C2B14762  14.672   2.421   6.931 -0.0225  0.1206 -0.1222
 1007loPI   C3B14763  14.749   2.603   7.339 -0.0252 -0.0958 -0.0189
 1007loPI   C4B14764  14.732   2.795   7.711 -0.0448 -0.2214  0.0584
 1008loPI    C114765   0.216  10.787   5.796 -0.0687  0.0976 -0.0321
 1008loPI    C214766   0.584  10.940   5.766 -0.0713  0.1600  0.2304
 1008loPI    C314767   0.524  10.550   5.701 -0.0006  0.1938 -0.0519
 1008loPI   PO414768   0.087  10.906   6.131  0.1842 -0.1421  0.1656
 1008loPI   GL114769  -0.188  11.090   6.447  0.0291 -0.2833 -0.2065
 1008loPI   GL214770   0.022  10.730   6.536 -0.0496  0.2277  0.2087
 1008loPI   C1A14771  -0.134  11.184   6.900  0.2301 -0.1396  0.2272
 1008loPI   C2A14772  -0.137  10.951   7.361 -0.3883 -0.1236  0.2259
 1008loPI   C3A14773  -0.281  11.048   7.825  0.0477  0.0104 -0.0240
 1008loPI   C4A14774  -0.377  11.074   8.228  0.2651 -0.2411 -0.1692
 1008loPI   C5A14775  -0.300  11.512   8.458  0.1946  0.2000 -0.0194
 1008loPI   C6A14776  -0.024  11.809   8.424  0.0749 -0.0888 -0.2326
 1008loPI   C1B14777   0.045  10.704   6.919 -0.0596  0.2294  0.3437
 1008loPI   C2B14778   0.176  10.567   7.242 -0.2831  0.0144  0.1325
 1008loPI   C3B14779   0.016  10.584   7.691 -0.0927 -0.1058 -0.1037
 1008loPI   C4B14780  -0.041  10.758   8.138 -0.1581 -0.0607 -0.0333
 1009loPI    C114781   9.828  11.192   5.752 -0.1752 -0.3282  0.1313
 1009loPI    C214782   9.695  11.402   5.439 -0.2025 -0.2530  0.1930
 1009loPI    C314783   9.883  11.054   5.381  0.2506  0.0054  0.0628
 1009loPI   PO414784   9.884  11.394   5.911  0.1464 -0.2839  0.1857
 1009loPI   GL114785   9.687  11.342   6.301 -0.1218 -0.1811 -0.1083
 1009loPI   GL214786   9.453  11.177   6.346  0.0484  0.0579 -0.1886
 1009loPI   C1A14787   9.868  11.254   6.645  0.0669 -0.2021 -0.0954
 1009loPI   C2A14788   9.829  11.354   6.989  0.1018 -0.2194  0.2453
 1009loPI   C3A14789   9.731  11.215   7.354  0.1658 -0.2150 -0.1559
 1009loPI   C4A14790   9.778  11.187   7.747  0.5106  0.4421  0.0978
 1009loPI   C5A14791   9.654  11.523   8.045  0.0505 -0.1191 -0.2126
 1009loPI   C6A14792   9.848  11.853   8.407 -0.1957  0.3011 -0.1710
 1009loPI   C1B14793   9.466  10.993   6.789 -0.1240 -0.2959 -0.3362
 1009loPI   C2B14794   9.365  10.909   7.222 -0.1264 -0.0245  0.0569
 1009loPI   C3B14795   8.989  10.901   7.415  0.0969 -0.2705 -0.2110
 1009loPI   C4B14796   8.815  10.991   7.858  0.0001  0.1202  0.1066
 1010loPI    C114797  12.536  10.670   5.808  0.0435  0.0217  0.0606
 1010loPI    C214798  12.738  10.980   5.655 -0.1743  0.2030  0.1360
 1010loPI    C314799  12.402  10.853   5.478 -0.1047  0.0317  0.1255
 1010loPI   PO414800  12.502  10.764   6.066  0.1435 -0.0594  0.0922
 1010loPI   GL114801  12.832  10.797   6.433  0.0945 -0.0306  0.0915
 1010loPI   GL214802  12.727  10.383   6.282  0.0801  0.0922 -0.2112
 1010loPI   C1A14803  12.943  10.822   6.843  0.2335 -0.1173 -0.0286
 1010loPI   C2A14804  12.875  10.794   7.198  0.4659 -0.0900  0.0764
 1010loPI   C3A14805  12.789  11.026   7.464 -0.1370  0.0377  0.0527
 1010loPI   C4A14806  12.494  10.972   7.806  0.0368 -0.0909 -0.2215
 1010loPI   C5A14807  12.478  11.217   8.080  0.2051 -0.0942  0.0987
 1010loPI   C6A14808  12.356  11.419   8.481  0.1187  0.2523 -0.0611
 1010loPI   C1B14809  12.582  10.072   6.582  0.1067 -0.2633  0.1284
 1010loPI   C2B14810  12.484  10.089   7.002 -0.1156  0.1088 -0.0178
 1010loPI   C3B14811  12.530  10.102   7.402 -0.0337 -0.0277  0.3211
 1010loPI   C4B14812  12.549  10.096   7.888 -0.0447  0.1960 -0.2005
 1011loPI    C114813   4.163   8.665   5.503  0.0207  0.1832 -0.0910
 1011loPI    C214814   3.904   8.915   5.328 -0.0479  0.1464 -0.0424
 1011loPI    C314815   3.975   8.556   5.167 -0.0395  0.1500 -0.0469
 1011loPI   PO414816   4.103   8.768   5.828 -0.2457 -0.2398 -0.2582
 1011loPI   GL114817   4.302   8.786   6.173 -0.1053  0.1540 -0.0277
 1011loPI   GL214818   4.335   8.451   6.306 -0.1239  0.0656  0.1091
 1011loPI   C1A14819   4.050   8.746   6.593  0.2117 -0.1142 -0.0184
 1011loPI   C2A14820   4.100   8.794   6.988  0.2271  0.1687  0.0454
 1011loPI   C3A14821   4.409   8.706   7.312  0.0137  0.2344 -0.2768
 1011loPI   C4A14822   4.483   8.937   7.667  0.1230 -0.2003 -0.0703
 1011loPI   C5A14823   4.275   9.353   7.789 -0.0525  0.1564 -0.4593
 1011loPI   C6A14824   4.076   9.781   7.825  0.1774 -0.2583  0.4179
 1011loPI   C1B14825   4.422   8.439   6.730  0.1236 -0.0624 -0.0911
 1011loPI   C2B14826   4.493   8.285   7.113  0.0819  0.0733  0.1910
 1011loPI   C3B14827   4.332   8.215   7.449  0.0403 -0.2245 -0.3384
 1011loPI   C4B14828   4.064   8.174   7.783  0.1788 -0.1659  0.2409
 1012loPI    C114829   9.913   4.910   5.481 -0.1983  0.2581 -0.1635
 1012loPI    C214830   9.708   4.573   5.546  0.1101  0.0548 -0.2240
 1012loPI    C314831   9.609   4.908   5.741 -0.1401 -0.0922 -0.0936
 1012loPI   PO414832  10.245   4.870   5.543  0.4617 -0.2722  0.2593
 1012loPI   GL114833  10.227   5.080   5.918 -0.0970 -0.1899 -0.2396
 1012loPI   GL214834  10.211   5.390   5.948  0.1373 -0.1425 -0.0251
 1012loPI   C1A14835   9.813   4.965   6.193 -0.0714 -0.0540  0.1151
 1012loPI   C2A14836   9.568   4.864   6.560  0.1258 -0.1444  0.0860
 1012loPI   C3A14837   9.203   4.874   6.831  0.1116  0.2053 -0.2645
 1012loPI   C4A14838   8.868   4.697   7.013  0.0239  0.0090 -0.1607
 1012loPI   C5A14839   8.671   4.755   7.502 -0.2292  0.1570 -0.2527
 1012loPI   C6A14840   8.901   4.715   7.897  0.0259  0.0037  0.2005
 1012loPI   C1B14841  10.289   5.215   6.375 -0.0898  0.0127  0.0153
 1012loPI   C2B14842  10.047   5.112   6.661 -0.1059 -0.1511 -0.1753
 1012loPI   C3B14843   9.815   5.138   6.993 -0.0312  0.0383  0.0585
 1012loPI   C4B14844   9.547   5.018   7.334  0.0194  0.4177  0.1852
 1013loPI    C114845   0.049   7.177   6.021  0.0321 -0.2634  0.0775
 1013loPI    C214846  -0.226   7.288   5.753 -0.0392 -0.3281  0.1235
 1013loPI    C314847   0.162   7.345   5.676 -0.0721 -0.0841  0.1294
 1013loPI   PO414848  -0.069   7.389   6.223  0.3109 -0.0897  0.1860
 1013loPI   GL114849  -0.295   7.327   6.553 -0.2178 -0.0898  0.1029
 1013loPI   GL214850  -0.243   7.600   6.742  0.1807 -0.3942  0.1409
 1013loPI   C1A14851  -0.410   7.011   6.873 -0.2755 -0.1935 -0.3939
 1013loPI   C2A14852  -0.592   7.023   7.290  0.0878 -0.1758  0.1270
 1013loPI   C3A14853  -0.756   6.993   7.603  0.1460  0.4548 -0.1944
 1013loPI   C4A14854  -0.909   7.070   8.095 -0.0849 -0.0615  0.3302
 1013loPI   C5A14855  -0.653   7.234   8.467  0.0264  0.1204  0.0212
 1013loPI   C6A14856  -0.504   7.613   8.615  0.2013  0.1536  0.0902
 1013loPI   C1B14857  -0.646   7.458   6.898 -0.0302  0.0078 -0.1722
 1013loPI   C2B14858  -0.932   7.388   7.353 -0.3069  0.1240  0.0716
 1013loPI   C3B14859  -1.061   7.573   7.701  0.2102 -0.1214  0.0635
 1013loPI   C4B14860  -0.861   7.621   8.126 -0.2246  0.1630 -0.2028
 1014loPI    C114861   7.526   6.339   4.850 -0.0665 -0.1434  0.3404
 1014loPI    C214862   7.149   6.330   4.718 -0.0171  0.0234  0.1841
 1014loPI    C314863   7.366   5.995   4.723 -0.0488 -0.0033 -0.0773
 1014loPI   PO414864   7.492   6.395   5.065 -0.2590 -0.0513  0.2087
 1014loPI   GL114865   7.620   6.345   5.431  0.0268  0.0206 -0.0364
 1014loPI   GL214866   7.689   6.679   5.506 -0.0496  0.0817 -0.0292
 1014loPI   C1A14867   7.404   6.213   5.808 -0.0858  0.2933 -0.0890
 1014loPI   C2A14868   7.418   5.970   6.290  0.0490 -0.1117 -0.1654
 1014loPI   C3A14869   7.417   5.906   6.617 -0.3669  0.0882 -0.0302
 1014loPI   C4A14870   7.145   5.993   6.944  0.1293  0.1771 -0.1829
 1014loPI   C5A14871   7.282   6.284   7.136 -0.0012  0.2144 -0.0237
 1014loPI   C6A14872   7.464   6.496   7.391 -0.1609 -0.3736 -0.1051
 1014loPI   C1B14873   7.672   6.610   5.902  0.2085  0.0018 -0.0069
 1014loPI   C2B14874   7.529   6.510   6.248 -0.0418 -0.1565  0.1817
 1014loPI   C3B14875   7.172   6.359   6.485 -0.0074 -0.0354 -0.3206
 1014loPI   C4B14876   6.781   6.535   6.477  0.0988  0.0057  0.2431
 1015loPI    C114877  14.945   7.990   5.686 -0.0581  0.0870  0.0158
 1015loPI    C214878  14.692   7.852   5.409  0.2927 -0.0960 -0.2218
 1015loPI    C314879  14.760   8.245   5.440 -0.1942 -0.0222  0.0036
 1015loPI   PO414880  14.842   7.926   5.971 -0.1545  0.0695 -0.1834
 1015loPI   GL114881  14.879   8.235   6.369 -0.1647  0.1304  0.2495
 1015loPI   GL214882  14.830   8.017   6.476 -0.0092 -0.0569 -0.2822
 1015loPI   C1A14883  14.898   8.485   6.747  0.0800  0.3008 -0.0836
 1015loPI   C2A14884  15.022   8.616   7.136  0.4083  0.3405  0.1759
 1015loPI   C3A14885  15.025   8.795   7.603 -0.0914  0.0288 -0.1188
 1015loPI   C4A14886  15.009   9.015   7.954  0.0676  0.0425  0.0902
 1015loPI   C5A14887  15.351   9.143   8.113 -0.1042  0.1333 -0.1033
 1015loPI   C6A14888  15.492   9.382   8.435 -0.2528  0.0457 -0.3096
 1015loPI   C1B14889  14.833   8.031   6.979  0.0042  0.3612  0.2022
 1015loPI   C2B14890  15.004   7.940   7.408  0.0086 -0.0214  0.3113
 1015loPI   C3B14891  15.129   7.849   7.775 -0.0330 -0.1289 -0.0378
 1015loPI   C4B14892  15.396   7.943   8.075 -0.1383  0.2394  0.1464
 1016loPI    C114893  17.018  11.453   5.632 -0.1743  0.2034 -0.2715
 1016loPI    C214894  17.114  11.141   5.862  0.1077  0.4533 -0.0425
 1016loPI    C314895  17.123  11.106   5.464  0.0070  0.1336 -0.0196
 1016loPI   PO414896  17.026  11.624   5.790  0.2965 -0.2886 -0.2995
 1016loPI   GL114897  17.208  11.626   6.182 -0.0827  0.1593 -0.1618
 1016loPI   GL214898  17.160  11.384   6.488 -0.2504  0.3404  0.0063
 1016loPI   C1A14899  17.378  11.873   6.529  0.0649  0.0156 -0.0907
 1016loPI   C2A14900  17.514  11.871   6.990  0.1402 -0.1691  0.2877
 1016loPI   C3A14901  17.720  11.970   7.389  0.2235  0.0584  0.1860
 1016loPI   C4A14902  18.097  11.870   7.634 -0.0429  0.0178 -0.1898
 1016loPI   C5A14903  18.197  12.074   8.000  0.3217 -0.1626  0.2201
 1016loPI   C6A14904  18.069  12.354   8.233  0.0115  0.2402 -0.0503
 1016loPI   C1B14905  17.240  11.438   6.923  0.1092 -0.0868  0.0811
 1016loPI   C2B14906  17.291  11.517   7.391  0.3807 -0.3715 -0.1140
 1016loPI   C3B14907  17.141  11.505   7.846 -0.3442 -0.0699  0.0305
 1016loPI   C4B14908  16.899  11.624   8.214 -0.2366  0.1027  0.0462
 1017loPI    C114909  17.990  13.747   5.598  0.0330 -0.0934  0.1358
 1017loPI    C214910  18.172  13.857   5.259  0.1482  0.1309  0.2676
 1017loPI    C314911  17.911  13.553   5.258  0.2123  0.0747 -0.0037
 1017loPI   PO414912  18.243  13.728   5.773 -0.0512  0.0577  0.2516
 1017loPI   GL114913  18.275  13.804   6.236 -0.1296 -0.0271 -0.2609
 1017loPI   GL214914  18.374  14.075   6.432  0.1008 -0.1065  0.0702
 1017loPI   C1A14915  18.611  13.641   6.543  0.0381  0.3052  0.4167
 1017loPI   C2A14916  18.589  13.539   6.968  0.1369 -0.1600 -0.0472
 1017loPI   C3A14917  18.655  13.503   7.370  0.2562 -0.0063  0.2172
 1017loPI   C4A14918  18.994  13.196   7.623  0.0979  0.2846  0.2075
 1017loPI   C5A14919  19.041  13.180   8.097  0.0174  0.1176  0.2843
 1017loPI   C6A14920  19.316  13.522   8.280 -0.0111  0.2667  0.4873
 1017loPI   C1B14921  18.345  13.974   6.824 -0.1396 -0.0169 -0.1294
 1017loPI   C2B14922  18.360  13.941   7.331  0.2849 -0.0402  0.0186
 1017loPI   C3B14923  18.419  13.879   7.759 -0.1435  0.1068 -0.2546
 1017loPI   C4B14924  18.400  13.995   8.200  0.1356 -0.2460  0.0140
 1018loPI    C114925  18.115   3.485   5.869  0.2904 -0.2187 -0.1119
 1018loPI    C214926  17.984   3.300   5.540 -0.2083 -0.0492 -0.0186
 1018loPI    C314927  18.009   3.699   5.548  0.1232 -0.0683  0.0407
 1018loPI   PO414928  18.334   3.419   5.987 -0.0485 -0.1488 -0.0373
 1018loPI   GL114929  18.393   3.695   6.437  0.1213  0.0525  0.1472
 1018loPI   GL214930  18.631   3.593   6.331  0.0788 -0.0528 -0.1235
 1018loPI   C1A14931  18.397   3.813   6.843  0.3181  0.1451  0.1501
 1018loPI   C2A14932  18.454   3.648   7.273  0.1642 -0.0975 -0.0419
 1018loPI   C3A14933  18.467   3.456   7.672  0.1631  0.2822 -0.1947
 1018loPI   C4A14934  18.744   3.376   8.089  0.0660  0.0458 -0.0200
 1018loPI   C5A14935  19.097   3.165   8.315  0.3846 -0.0957  0.1904
 1018loPI   C6A14936  19.496   2.872   8.228  0.1321 -0.0932  0.2628
 1018loPI   C1B14937  18.733   3.454   6.714 -0.0754  0.1280 -0.1123
 1018loPI   C2B14938  18.995   3.697   6.907  0.1419  0.1225 -0.0169
 1018loPI   C3B14939  19.080   3.764   7.259 -0.2333  0.0631  0.0032
 1018loPI   C4B14940  18.887   3.744   7.659  0.0183 -0.3435  0.0117
 1019loPI    C114941   3.494  14.977   5.174 -0.2327 -0.1835  0.0213
 1019loPI    C214942   3.264  14.823   4.885 -0.0867  0.1670 -0.2908
 1019loPI    C314943   3.642  14.927   4.805  0.0854 -0.1038  0.1346
 1019loPI   PO414944   3.288  15.068   5.372 -0.0613  0.3838  0.0397
 1019loPI   GL114945   3.363  14.949   5.821  0.0865 -0.1103 -0.1470
 1019loPI   GL214946   3.140  15.016   6.117 -0.1600  0.0174 -0.1067
 1019loPI   C1A14947   3.656  14.902   6.154  0.2463  0.2710  0.0193
 1019loPI   C2A14948   3.871  14.956   6.505 -0.1706  0.1170  0.2438
 1019loPI   C3A14949   3.871  14.904   6.926  0.0072  0.1605 -0.3019
 1019loPI   C4A14950   3.785  14.613   7.242 -0.3085 -0.1913  0.1058
 1019loPI   C5A14951   3.884  14.549   7.659  0.0692  0.2244  0.2053
 1019loPI   C6A14952   4.184  14.596   7.933  0.0377  0.1089  0.3546
 1019loPI   C1B14953   3.299  15.030   6.552  0.1465 -0.1052 -0.0295
 1019loPI   C2B14954   3.381  14.975   6.956  0.4026  0.0299 -0.2558
 1019loPI   C3B14955   3.537  14.988   7.278  0.1309 -0.0056  0.1449
 1019loPI   C4B14956   3.816  15.023   7.627 -0.2246 -0.0598 -0.0394
 1020loPI    C114957   8.037  17.853   5.141 -0.2219  0.1555  0.1573
 1020loPI    C214958   8.039  17.995   4.767  0.0397  0.2063  0.1765
 1020loPI    C314959   8.238  17.659   4.855 -0.0884  0.1499  0.2542
 1020loPI   PO414960   8.045  18.017   5.312 -0.0076 -0.0438 -0.0699
 1020loPI   GL114961   7.881  18.305   5.490  0.1307 -0.0542 -0.1345
 1020loPI   GL214962   8.299  18.441   5.456  0.1003  0.1489 -0.0266
 1020loPI   C1A14963   7.929  18.626   5.903  0.1549 -0.0188 -0.1966
 1020loPI   C2A14964   7.960  18.882   6.426 -0.3025  0.0443  0.2005
 1020loPI   C3A14965   7.992  18.924   6.807  0.0224  0.0602  0.2310
 1020loPI   C4A14966   7.914  18.851   7.299  0.1427  0.0344 -0.0893
 1020loPI   C5A14967   8.125  18.951   7.781 -0.0507 -0.1747  0.2329
 1020loPI   C6A14968   8.190  19.297   8.161  0.0980  0.0685 -0.1787
 1020loPI   C1B14969   8.217  18.248   5.908 -0.0208 -0.0103 -0.1307
 1020loPI   C2B14970   7.977  18.399   6.342  0.0143  0.1415  0.2492
 1020loPI   C3B14971   7.760  18.451   6.822 -0.2197  0.1690  0.0364
 1020loPI   C4B14972   7.695  18.409   7.173 -0.2577  0.0360 -0.0009
 1021loPI    C114973  18.061   6.668   5.827  0.0388  0.3600 -0.0230
 1021loPI    C214974  18.300   6.861   5.571  0.2406  0.1961  0.0394
 1021loPI    C314975  18.022   6.609   5.434  0.3171  0.1444 -0.0215
 1021loPI   PO414976  18.195   6.612   6.000 -0.1503 -0.1505  0.0247
 1021loPI   GL114977  18.116   6.667   6.469  0.1111 -0.0335 -0.1562
 1021loPI   GL214978  18.282   6.939   6.476 -0.1497  0.0855 -0.1712
 1021loPI   C1A14979  18.103   6.611   6.861 -0.3571  0.0218  0.2548
 1021loPI   C2A14980  18.058   6.632   7.268  0.1913  0.1312  0.1225
 1021loPI   C3A14981  17.800   6.566   7.589  0.0476  0.0492 -0.1772
 1021loPI   C4A14982  17.550   6.633   7.980  0.1645  0.2564  0.0134
 1021loPI   C5A14983  17.481   6.644   8.299 -0.1067  0.1267  0.1317
 1021loPI   C6A14984  17.831   6.816   8.626  0.2089  0.0701 -0.0494
 1021loPI   C1B14985  18.318   7.076   6.907  0.0348 -0.2438 -0.1618
 1021loPI   C2B14986  18.146   7.304   7.149  0.1977 -0.0015 -0.1785
 1021loPI   C3B14987  18.049   7.038   7.515 -0.4392 -0.0588  0.0582
 1021loPI   C4B14988  17.899   6.975   7.920  0.0428 -0.0776 -0.0183
 1022loPI    C114989  17.021   9.698   5.768 -0.1797 -0.3792  0.0341
 1022loPI    C214990  17.256   9.395   5.880 -0.0534 -0.2796  0.0400
 1022loPI    C314991  17.025   9.359   5.556 -0.1655 -0.4436  0.1365
 1022loPI   PO414992  16.915   9.800   6.027 -0.1139  0.0886 -0.0401
 1022loPI   GL114993  16.920   9.662   6.400 -0.2638  0.2342 -0.3577
 1022loPI   GL214994  17.130   9.881   6.510  0.0168 -0.1797 -0.1374
 1022loPI   C1A14995  17.039   9.490   6.771  0.0890  0.1062  0.2526
 1022loPI   C2A14996  16.850   9.490   7.215 -0.1561 -0.1643 -0.0688
 1022loPI   C3A14997  16.935   9.611   7.590 -0.0977 -0.3243  0.0624
 1022loPI   C4A14998  16.940   9.761   8.001 -0.1432  0.0995 -0.1343
 1022loPI   C5A14999  16.948   9.908   8.390 -0.0548  0.1339 -0.1061
 1022loPI   C6A15000  16.574  10.000   8.654 -0.0214 -0.2743  0.4453
 1022loPI   C1B15001  16.955   9.995   6.919  0.1814 -0.1380  0.2639
 1022loPI   C2B15002  16.894  10.072   7.350  0.2615 -0.1922  0.1556
 1022loPI   C3B15003  16.763  10.147   7.764  0.2214  0.1793  0.1207
 1022loPI   C4B15004  16.779  10.323   8.165 -0.1025 -0.1472 -0.1045
 1023loPI    C115005   6.083  15.882   5.122 -0.2714  0.0322 -0.2730
 1023loPI    C215006   6.183  15.504   5.038 -0.3206 -0.0230 -0.0874
 1023loPI    C315007   5.808  15.592   5.146 -0.2364  0.0293  0.1676
 1023loPI   PO415008   6.332  16.000   5.299  0.3231  0.0173 -0.2913
 1023loPI   GL115009   6.347  16.242   5.617 -0.2749 -0.0148 -0.1264
 1023loPI   GL215010   6.182  16.450   5.614 -0.0086  0.0946  0.1735
 1023loPI   C1A15011   6.404  16.362   6.018  0.1771 -0.1811  0.0777
 1023loPI   C2A15012   6.325  16.675   6.313  0.0584 -0.2114  0.1390
 1023loPI   C3A15013   6.148  16.784   6.694  0.0793 -0.3155  0.2304
 1023loPI   C4A15014   5.800  17.037   6.976  0.1016 -0.0317 -0.0317
 1023loPI   C5A15015   5.362  16.963   7.144  0.1536 -0.0844  0.1236
 1023loPI   C6A15016   4.967  16.942   7.124  0.1399 -0.2050 -0.3176
 1023loPI   C1B15017   6.178  16.838   5.861 -0.3842 -0.0022 -0.0916
 1023loPI   C2B15018   6.051  17.071   6.183 -0.1221 -0.6486 -0.1163
 1023loPI   C3B15019   5.849  17.533   6.275  0.0864  0.2199 -0.1757
 1023loPI   C4B15020   5.874  17.855   6.530  0.1324  0.1827  0.2052
 1024loPI    C115021  17.833  15.266   5.336  0.0920  0.0534 -0.3859
 1024loPI    C215022  17.776  14.925   5.136  0.0957 -0.0611 -0.1943
 1024loPI    C315023  18.147  15.043   5.229  0.0717 -0.2793  0.2029
 1024loPI   PO415024  17.597  15.268   5.510  0.0216 -0.1280  0.0662
 1024loPI   GL115025  17.354  15.019   5.779  0.1898 -0.0099 -0.0287
 1024loPI   GL215026  17.025  14.968   5.937 -0.2210  0.0668  0.1683
 1024loPI   C1A15027  17.300  15.232   6.214  0.2244  0.1851  0.1400
 1024loPI   C2A15028  17.387  15.241   6.630 -0.1443  0.2925  0.2131
 1024loPI   C3A15029  17.385  15.218   7.028  0.1130 -0.0785 -0.1689
 1024loPI   C4A15030  17.439  15.372   7.482  0.0469  0.0612  0.1547
 1024loPI   C5A15031  17.339  15.134   7.892 -0.1757 -0.0307  0.3645
 1024loPI   C6A15032  17.097  14.887   8.244 -0.0654  0.2274  0.1486
 1024loPI   C1B15033  16.788  14.723   6.261  0.1878  0.0649  0.4620
 1024loPI   C2B15034  16.549  14.546   6.541 -0.0849 -0.1224 -0.1512
 1024loPI   C3B15035  16.581  14.533   7.005  0.2221 -0.1271 -0.4792
 1024loPI   C4B15036  16.673  14.393   7.462 -0.1839  0.2041 -0.0896
 1025loPI    C115037   1.110  17.672   5.759 -0.2969  0.1987  0.0779
 1025loPI    C215038   1.001  17.541   5.397 -0.0095 -0.0081  0.0626
 1025loPI    C315039   0.937  17.314   5.720  0.0667  0.0166  0.0952
 1025loPI   PO415040   1.447  17.696   5.758 -0.0535  0.1440  0.1546
 1025loPI   GL115041   1.750  17.704   6.017  0.1631 -0.0914  0.1204
 1025loPI   GL215042   2.018  17.810   5.920  0.2085 -0.2850 -0.0005
 1025loPI   C1A15043   1.435  17.819   6.405 -0.1392  0.1321  0.3730
 1025loPI   C2A15044   1.436  17.824   6.828  0.1686  0.2262  0.1538
 1025loPI   C3A15045   1.378  17.703   7.208 -0.3385  0.2788  0.0575
 1025loPI   C4A15046   1.539  17.742   7.585 -0.0320  0.1598 -0.1962
 1025loPI   C5A15047   1.614  17.648   7.967  0.0089  0.0783 -0.1606
 1025loPI   C6A15048   1.831  17.704   8.323  0.2023 -0.0888  0.1304
 1025loPI   C1B15049   1.952  17.834   6.425  0.2172  0.0512 -0.1533
 1025loPI   C2B15050   1.956  17.770   6.832 -0.1654  0.1179 -0.0574
 1025loPI   C3B15051   1.974  17.761   7.244  0.0924  0.2418  0.2217
 1025loPI   C4B15052   2.018  17.598   7.570  0.0733  0.3792  0.1459
 1026loPI    C115053  16.400   5.336   6.011 -0.0273  0.0629  0.0374
 1026loPI    C215054  16.621   5.385   6.341 -0.0162 -0.0980  0.0544
 1026loPI    C315055  16.780   5.456   5.981 -0.0190  0.0474  0.0814
 1026loPI   PO415056  16.171   5.223   6.112 -0.1236 -0.1499 -0.0751
 1026loPI   GL115057  16.147   5.324   6.465  0.0919 -0.0796  0.2205
 1026loPI   GL215058  15.834   5.493   6.621 -0.1565  0.1027  0.0274
 1026loPI   C1A15059  15.986   5.156   6.908  0.2724  0.1425 -0.1561
 1026loPI   C2A15060  15.967   4.996   7.407 -0.0543  0.1412  0.0489
 1026loPI   C3A15061  15.749   4.896   7.672 -0.0616 -0.0334  0.0810
 1026loPI   C4A15062  15.670   5.004   8.013  0.0695  0.2436  0.1659
 1026loPI   C5A15063  15.490   5.129   8.351  0.3505 -0.0355 -0.0997
 1026loPI   C6A15064  15.014   5.115   8.515 -0.2362 -0.1105 -0.3480
 1026loPI   C1B15065  15.694   5.507   7.099 -0.1079 -0.0963 -0.1646
 1026loPI   C2B15066  15.609   5.360   7.529 -0.1052 -0.0786  0.2135
 1026loPI   C3B15067  15.486   5.488   7.928 -0.1021 -0.1156  0.0558
 1026loPI   C4B15068  15.452   5.656   8.368  0.0461 -0.1599 -0.3682
 1027loPI    C115069   3.266  10.518   5.435  0.1419 -0.0398 -0.1469
 1027loPI    C215070   3.362  10.183   5.632 -0.1001 -0.1074 -0.1411
 1027loPI    C315071   3.224  10.162   5.257 -0.0456 -0.0084 -0.1671
 1027loPI   PO415072   3.092  10.672   5.625 -0.1757  0.1376  0.1709
 1027loPI   GL115073   3.179  10.729   6.047 -0.0458  0.2075 -0.1615
 1027loPI   GL215074   3.069  10.351   6.018 -0.2088 -0.2127 -0.2432
 1027loPI   C1A15075   3.160  10.732   6.509  0.0208  0.0415  0.0154
 1027loPI   C2A15076   2.999  10.454   6.899 -0.1449 -0.0772  0.1294
 1027loPI   C3A15077   2.909  10.205   7.080 -0.1884 -0.1208 -0.0229
 1027loPI   C4A15078   2.842  10.137   7.446  0.0550 -0.0716 -0.1577
 1027loPI   C5A15079   2.653   9.888   7.730 -0.1021 -0.1422  0.0267
 1027loPI   C6A15080   2.409   9.800   8.192 -0.1990  0.1582  0.0152
 1027loPI   C1B15081   3.483  10.492   6.298 -0.0787  0.0007 -0.1421
 1027loPI   C2B15082   3.921  10.442   6.519  0.2992 -0.0567 -0.2611
 1027loPI   C3B15083   4.072  10.574   6.954  0.3751  0.4051 -0.4683
 1027loPI   C4B15084   4.308  10.653   7.341  0.0206 -0.1071  0.0358
 1028loPI    C115085   7.568  14.689   5.243  0.0936  0.1269 -0.0667
 1028loPI    C215086   7.664  14.305   5.183 -0.3319  0.0496 -0.2872
 1028loPI    C315087   7.847  14.593   4.973 -0.1625 -0.0468 -0.2735
 1028loPI   PO415088   7.597  14.712   5.530 -0.2531 -0.0264  0.1494
 1028loPI   GL115089   7.283  14.862   5.763 -0.0025 -0.1586  0.0015
 1028loPI   GL215090   7.357  14.583   5.975 -0.1727  0.1395  0.0721
 1028loPI   C1A15091   7.275  15.058   6.216 -0.0527 -0.2307 -0.5302
 1028loPI   C2A15092   7.109  14.958   6.633 -0.1361  0.3162  0.2185
 1028loPI   C3A15093   6.976  14.883   7.076  0.0356  0.0897 -0.0862
 1028loPI   C4A15094   7.005  14.887   7.542  0.2964  0.4352  0.0562
 1028loPI   C5A15095   7.005  14.558   7.935 -0.0422 -0.0148 -0.0209
 1028loPI   C6A15096   6.860  14.135   7.973 -0.0863  0.0205 -0.3301
 1028loPI   C1B15097   7.242  14.590   6.349 -0.1244  0.1764 -0.0554
 1028loPI   C2B15098   7.228  14.494   6.778 -0.2529 -0.2167  0.0422
 1028loPI   C3B15099   7.175  14.330   7.088 -0.1840 -0.0002  0.0164
 1028loPI   C4B15100   7.140  14.299   7.530 -0.3189 -0.1269  0.1192
 1029loPI    C115101   1.237   1.783   5.631  0.1321 -0.2574 -0.1732
 1029loPI    C215102   1.506   2.057   5.742  0.0186 -0.2263  0.0296
 1029loPI    C315103   1.626   1.690   5.640  0.1382 -0.2135  0.1212
 1029loPI   PO415104   1.016   1.844   5.783  0.0465  0.1444 -0.2713
 1029loPI   GL115105   0.748   1.898   6.172 -0.0746  0.0737 -0.2944
 1029loPI   GL215106   1.124   1.903   6.233  0.1097 -0.1370  0.0268
 1029loPI   C1A15107   0.714   1.606   6.523  0.3281 -0.0820 -0.3349
 1029loPI   C2A15108   0.537   1.372   6.827  0.0436  0.1028  0.0663
 1029loPI   C3A15109   0.565   1.279   7.157 -0.0064  0.2755  0.0409
 1029loPI   C4A15110   0.788   1.284   7.568  0.2446 -0.2217  0.1238
 1029loPI   C5A15111   1.096   1.350   7.948  0.0304 -0.0424 -0.1019
 1029loPI   C6A15112   1.430   1.075   8.147  0.0514 -0.4285 -0.2695
 1029loPI   C1B15113   1.226   1.661   6.599  0.2738 -0.1344 -0.0286
 1029loPI   C2B15114   1.056   1.429   7.005  0.2879  0.1595 -0.0131
 1029loPI   C3B15115   1.258   1.418   7.387 -0.0003 -0.2460  0.1686
 1029loPI   C4B15116   1.525   1.282   7.741 -0.0167 -0.1444 -0.4511
 1030loPI    C115117  16.676   6.994   5.589 -0.0816 -0.2636  0.0152
 1030loPI    C215118  16.342   7.134   5.420  0.1380  0.1683 -0.0770
 1030loPI    C315119  16.525   6.813   5.266 -0.1721 -0.0078 -0.0884
 1030loPI   PO415120  16.644   7.110   5.887  0.0953  0.2000 -0.1079
 1030loPI   GL115121  16.428   7.242   6.321 -0.0982 -0.2075 -0.1487
 1030loPI   GL215122  16.614   7.487   6.447  0.1123  0.0269 -0.0172
 1030loPI   C1A15123  16.377   7.125   6.714 -0.0880  0.0100  0.1074
 1030loPI   C2A15124  16.580   6.766   6.975 -0.0712  0.0619  0.0253
 1030loPI   C3A15125  16.477   6.600   7.373  0.0220  0.0441  0.2884
 1030loPI   C4A15126  16.556   6.618   7.797  0.3218  0.1029 -0.1494
 1030loPI   C5A15127  16.300   6.445   7.972  0.2326  0.1954  0.0993
 1030loPI   C6A15128  16.107   6.266   8.412  0.1859  0.2925 -0.1646
 1030loPI   C1B15129  16.175   7.554   6.647  0.2598 -0.0993 -0.0213
 1030loPI   C2B15130  15.942   7.823   6.741 -0.1947  0.1116 -0.1451
 1030loPI   C3B15131  15.826   8.037   7.076 -0.1324 -0.2166  0.2266
 1030loPI   C4B15132  15.835   8.554   7.179  0.1264  0.1859  0.3949
 1031loPI    C115133  12.181   0.816   5.194 -0.1228  0.0201  0.0582
 1031loPI    C215134  11.909   0.696   4.927  0.1574 -0.3104 -0.0868
 1031loPI    C315135  12.292   0.732   4.819  0.1564  0.2941  0.0750
 1031loPI   PO415136  12.172   0.682   5.462  0.3586  0.2559 -0.1745
 1031loPI   GL115137  12.362   0.575   5.776 -0.0584 -0.2093 -0.2186
 1031loPI   GL215138  12.320   0.921   5.855 -0.4410 -0.1759 -0.3204
 1031loPI   C1A15139  12.241   0.629   6.233 -0.1957  0.0876 -0.1145
 1031loPI   C2A15140  12.308   0.677   6.667 -0.3098 -0.2878 -0.2534
 1031loPI   C3A15141  12.332   0.760   7.022 -0.0510  0.4190  0.1842
 1031loPI   C4A15142  12.311   0.875   7.434 -0.0207 -0.0433 -0.0119
 1031loPI   C5A15143  12.078   1.001   7.763  0.2718  0.1553 -0.3276
 1031loPI   C6A15144  11.601   1.026   8.013  0.0743  0.0501 -0.1096
 1031loPI   C1B15145  12.726   0.676   6.098  0.1762  0.0900 -0.1176
 1031loPI   C2B15146  12.811   0.664   6.549  0.0254 -0.0843  0.0743
 1031loPI   C3B15147  12.872   0.606   6.999 -0.0797  0.2115  0.0215
 1031loPI   C4B15148  12.775   0.698   7.400  0.1357 -0.0952  0.0627
 1032loPI    C115149  12.745  11.846   5.517 -0.0651 -0.3199 -0.1200
 1032loPI    C215150  12.623  12.174   5.322  0.2231 -0.1456 -0.0136
 1032loPI    C315151  12.438  11.824   5.261 -0.2385  0.0810  0.0455
 1032loPI   PO415152  12.711  11.927   5.776  0.1722 -0.0288  0.2529
 1032loPI   GL115153  12.474  11.837   6.154 -0.1368  0.0490 -0.0742
 1032loPI   GL215154  12.243  11.593   6.303  0.1075 -0.1436  0.0821
 1032loPI   C1A15155  12.863  11.883   6.432 -0.0262  0.0204 -0.0667
 1032loPI   C2A15156  13.257  11.824   6.689 -0.3234  0.1507 -0.0232
 1032loPI   C3A15157  13.273  11.835   7.131  0.0407 -0.1273 -0.1712
 1032loPI   C4A15158  13.320  11.875   7.496 -0.1043  0.1085  0.1418
 1032loPI   C5A15159  13.598  12.083   7.784 -0.2313  0.1013 -0.1122
 1032loPI   C6A15160  13.938  12.099   8.163  0.0182  0.0459 -0.1678
 1032loPI   C1B15161  12.401  11.674   6.675  0.0771 -0.1009 -0.2915
 1032loPI   C2B15162  12.638  11.709   7.047 -0.0115 -0.0216  0.2130
 1032loPI   C3B15163  12.742  12.027   7.347 -0.3014 -0.0067  0.2599
 1032loPI   C4B15164  12.874  12.413   7.564 -0.0516 -0.0837 -0.0636
 1033loPI    C115165   4.405  12.908   5.262 -0.0339 -0.0042 -0.1369
 1033loPI    C215166   4.284  12.609   5.025  0.0985 -0.0577 -0.1380
 1033loPI    C315167   4.146  12.980   4.967  0.1747 -0.0596 -0.3362
 1033loPI   PO415168   4.336  12.857   5.476  0.2305 -0.1356  0.1166
 1033loPI   GL115169   4.351  12.614   5.854  0.1295  0.1412  0.1150
 1033loPI   GL215170   4.666  12.742   5.830  0.1602  0.0444  0.1297
 1033loPI   C1A15171   4.062  12.552   6.175 -0.5000 -0.2789 -0.2850
 1033loPI   C2A15172   3.853  12.391   6.575 -0.2056  0.0665 -0.0013
 1033loPI   C3A15173   3.896  12.500   6.961 -0.4670 -0.0665 -0.0035
 1033loPI   C4A15174   3.893  12.617   7.471  0.0650  0.1048  0.0195
 1033loPI   C5A15175   3.523  12.695   7.775 -0.2345 -0.0176  0.1443
 1033loPI   C6A15176   3.150  12.435   7.806 -0.0597 -0.1771 -0.0116
 1033loPI   C1B15177   4.969  12.682   6.130 -0.2296  0.0176 -0.2842
 1033loPI   C2B15178   5.127  12.922   6.399 -0.2753 -0.0194 -0.2641
 1033loPI   C3B15179   4.948  13.084   6.694 -0.2207 -0.1875  0.0897
 1033loPI   C4B15180   4.735  13.090   6.963 -0.0104 -0.2111 -0.2796
 1034loPI    C115181  14.271  13.602   5.750  0.1838  0.0496 -0.0279
 1034loPI    C215182  14.210  13.658   5.359  0.3846  0.1150 -0.0509
 1034loPI    C315183  14.530  13.454   5.484  0.2907  0.0448  0.0780
 1034loPI   PO415184  14.023  13.572   5.827 -0.0018 -0.3109 -0.3697
 1034loPI   GL115185  13.760  13.705   6.244 -0.1268 -0.0368 -0.0698
 1034loPI   GL215186  13.482  13.539   6.411  0.0306  0.1849  0.4424
 1034loPI   C1A15187  13.948  13.603   6.614  0.0786  0.0771  0.0489
 1034loPI   C2A15188  13.831  13.593   7.080  0.1768 -0.0753 -0.2075
 1034loPI   C3A15189  13.939  13.729   7.372  0.1083 -0.1974 -0.1184
 1034loPI   C4A15190  14.128  13.908   7.833 -0.1248  0.2131  0.0352
 1034loPI   C5A15191  14.063  14.033   8.224  0.1733  0.0484 -0.0399
 1034loPI   C6A15192  14.384  14.117   8.540 -0.2130  0.1398  0.2974
 1034loPI   C1B15193  13.572  13.962   6.615  0.1081 -0.0833 -0.0547
 1034loPI   C2B15194  13.642  14.038   7.000  0.0851  0.3941 -0.1161
 1034loPI   C3B15195  13.618  14.198   7.313 -0.0651  0.0175  0.0855
 1034loPI   C4B15196  13.600  14.095   7.782  0.1390 -0.1982 -0.0147
 1035loPI    C115197  13.269   5.682   5.903 -0.0349 -0.0707 -0.1887
 1035loPI    C215198  13.157   5.602   5.527  0.1001 -0.0739 -0.2285
 1035loPI    C315199  12.891   5.575   5.825  0.0437 -0.2754 -0.2951
 1035loPI   PO415200  13.510   5.509   5.945 -0.0743 -0.1610 -0.0331
 1035loPI   GL115201  13.753   5.402   6.324  0.1237 -0.1279  0.0247
 1035loPI   GL215202  13.958   5.726   6.280  0.1072  0.0049  0.0094
 1035loPI   C1A15203  13.520   5.350   6.687  0.0661 -0.0854  0.3211
 1035loPI   C2A15204  13.390   5.208   7.105 -0.0858  0.0316 -0.0947
 1035loPI   C3A15205  13.139   5.251   7.516  0.2451 -0.2187 -0.0179
 1035loPI   C4A15206  12.920   5.450   7.916  0.1941  0.0801 -0.1551
 1035loPI   C5A15207  12.897   5.469   8.351 -0.0012 -0.0139  0.0920
 1035loPI   C6A15208  12.712   5.786   8.621  0.2193  0.0916  0.0957
 1035loPI   C1B15209  13.838   5.714   6.715 -0.0585 -0.1050  0.2378
 1035loPI   C2B15210  13.730   5.706   7.109  0.0390  0.1809  0.1789
 1035loPI   C3B15211  13.616   5.530   7.517  0.2306 -0.1072  0.1566
 1035loPI   C4B15212  13.791   5.638   7.804 -0.0774  0.2859 -0.1622
 1036loPI    C115213   6.102   2.424   4.849  0.1217 -0.0532  0.0973
 1036loPI    C215214   5.766   2.632   4.782  0.1389 -0.0180  0.1198
 1036loPI    C315215   6.045   2.603   4.496  0.0918 -0.0945  0.0811
 1036loPI   PO415216   5.945   2.217   4.943  0.1496 -0.0985 -0.0682
 1036loPI   GL115217   5.901   2.179   5.429 -0.1190 -0.0464 -0.1499
 1036loPI   GL215218   5.679   2.417   5.556  0.1818 -0.1287  0.3555
 1036loPI   C1A15219   6.139   2.275   5.761  0.0398  0.0550 -0.0495
 1036loPI   C2A15220   6.159   2.359   6.219 -0.1622 -0.3817 -0.0283
 1036loPI   C3A15221   6.006   2.407   6.560 -0.1111  0.1047 -0.0001
 1036loPI   C4A15222   6.043   2.377   7.152  0.1628 -0.0314  0.1728
 1036loPI   C5A15223   6.055   2.387   7.619 -0.2184 -0.0158  0.1814
 1036loPI   C6A15224   6.114   2.063   7.933  0.4045  0.1396 -0.2535
 1036loPI   C1B15225   5.540   2.359   5.979  0.0050 -0.0374  0.0844
 1036loPI   C2B15226   5.549   2.442   6.358 -0.0544  0.1784  0.1295
 1036loPI   C3B15227   5.433   2.508   6.701 -0.2913  0.1161 -0.0809
 1036loPI   C4B15228   5.349   2.403   7.182 -0.1756  0.0243 -0.2941
 1037loPI    C115229  15.768   5.222   5.684 -0.1638 -0.2307  0.0161
 1037loPI    C215230  15.714   5.355   5.311  0.1021 -0.1649 -0.0007
 1037loPI    C315231  15.806   4.971   5.375  0.0941 -0.1676 -0.0055
 1037loPI   PO415232  15.648   5.164   5.858  0.1245 -0.1466 -0.1394
 1037loPI   GL115233  15.633   5.163   6.295 -0.1085 -0.0512 -0.0914
 1037loPI   GL215234  15.332   5.230   6.291  0.2448  0.1482  0.0347
 1037loPI   C1A15235  15.562   5.001   6.669  0.0920 -0.1287  0.1193
 1037loPI   C2A15236  15.595   4.990   7.116  0.1333  0.1358  0.0164
 1037loPI   C3A15237  15.270   4.788   7.392 -0.3082 -0.1198  0.5070
 1037loPI   C4A15238  15.392   4.559   7.746 -0.0145  0.0599  0.0436
 1037loPI   C5A15239  15.598   4.403   8.124  0.2350 -0.2848 -0.0772
 1037loPI   C6A15240  15.995   4.255   8.410 -0.1577 -0.0240  0.2785
 1037loPI   C1B15241  15.292   5.394   6.737 -0.1137  0.0053 -0.0250
 1037loPI   C2B15242  15.110   5.239   7.109  0.3355  0.0089  0.1626
 1037loPI   C3B15243  15.110   5.259   7.512  0.1542 -0.2156  0.2086
 1037loPI   C4B15244  15.219   5.062   7.879  0.3260 -0.0217  0.0367
 1038loPI    C115245  11.009   1.707   4.905  0.1121  0.1727  0.0405
 1038loPI    C215246  11.203   1.891   4.607 -0.1918  0.1738 -0.1620
 1038loPI    C315247  11.100   1.506   4.571  0.1254  0.0578  0.1128
 1038loPI   PO415248  11.155   1.829   5.106 -0.5482  0.1674  0.1362
 1038loPI   GL115249  11.341   1.948   5.516  0.0808  0.0216 -0.3232
 1038loPI   GL215250  11.652   1.784   5.505 -0.0110 -0.0802  0.0648
 1038loPI   C1A15251  11.163   2.028   5.951 -0.0991  0.0672  0.2408
 1038loPI   C2A15252  11.021   2.034   6.321 -0.2448 -0.0003  0.2348
 1038loPI   C3A15253  10.871   2.038   6.685  0.2014 -0.2131 -0.2087
 1038loPI   C4A15254  11.074   2.048   7.155  0.0668 -0.3503 -0.1468
 1038loPI   C5A15255  11.183   1.979   7.592 -0.1168 -0.3504 -0.0366
 1038loPI   C6A15256  11.534   1.915   7.910  0.1851 -0.1195  0.0553
 1038loPI   C1B15257  11.610   1.769   6.009 -0.1157 -0.0833 -0.0887
 1038loPI   C2B15258  11.629   1.555   6.369  0.0856  0.0975  0.0400
 1038loPI   C3B15259  11.685   1.615   6.817  0.2245  0.1458 -0.1153
 1038loPI   C4B15260  11.732   1.561   7.167 -0.0486 -0.1049  0.0154
 1039loPI    C115261   1.423   4.294   5.769 -0.0624 -0.1248  0.0385
 1039loPI    C215262   1.371   4.032   6.066  0.2005  0.0804  0.2715
 1039loPI    C315263   1.261   3.936   5.693  0.2432 -0.3377  0.3613
 1039loPI   PO415264   1.720   4.406   5.852 -0.1859 -0.1244  0.0569
 1039loPI   GL115265   1.949   4.207   6.155  0.0216  0.0333  0.1956
 1039loPI   GL215266   1.838   3.920   6.233 -0.2123 -0.3673 -0.2229
 1039loPI   C1A15267   1.997   4.476   6.521 -0.2221  0.0688 -0.0262
 1039loPI   C2A15268   2.075   4.391   6.901  0.0123  0.2946 -0.2195
 1039loPI   C3A15269   2.246   4.522   7.265  0.1942  0.0719  0.2602
 1039loPI   C4A15270   2.168   4.351   7.719 -0.1019  0.2413  0.0859
 1039loPI   C5A15271   2.545   4.238   7.918  0.6774  0.1590 -0.0474
 1039loPI   C6A15272   2.561   3.861   8.242  0.0501  0.0024 -0.0523
 1039loPI   C1B15273   1.992   3.858   6.688 -0.2879  0.0342 -0.1690
 1039loPI   C2B15274   2.072   3.910   7.039 -0.1537  0.1498 -0.0198
 1039loPI   C3B15275   2.199   3.862   7.422  0.0797 -0.1080  0.1104
 1039loPI   C4B15276   2.191   3.851   7.879  0.1016  0.1454  0.1326
 1040loPI    C115277   7.772   7.819   5.470  0.0916 -0.1711  0.2518
 1040loPI    C215278   7.556   7.623   5.196  0.1038 -0.0477  0.1534
 1040loPI    C315279   7.788   7.930   5.087 -0.0679  0.1502  0.3348
 1040loPI   PO415280   7.585   7.874   5.656  0.2229 -0.3689 -0.0714
 1040loPI   GL115281   7.523   8.021   5.971  0.1273  0.1139 -0.1543
 1040loPI   GL215282   7.214   8.228   6.161  0.1143 -0.0535  0.1973
 1040loPI   C1A15283   7.506   7.840   6.378 -0.2296  0.0995 -0.0877
 1040loPI   C2A15284   7.440   7.821   6.814 -0.3596 -0.1127  0.0615
 1040loPI   C3A15285   7.695   7.707   7.161  0.1280 -0.0626 -0.0617
 1040loPI   C4A15286   7.691   7.767   7.571  0.0741  0.1458 -0.1100
 1040loPI   C5A15287   7.656   8.201   7.780 -0.2096 -0.0158  0.0455
 1040loPI   C6A15288   7.608   8.519   8.122  0.1129 -0.2798  0.2182
 1040loPI   C1B15289   7.278   8.229   6.553 -0.0167  0.1568 -0.2409
 1040loPI   C2B15290   7.217   8.208   6.981  0.1220 -0.2032 -0.0313
 1040loPI   C3B15291   7.320   8.276   7.419 -0.0072 -0.2132 -0.0176
 1040loPI   C4B15292   7.186   8.352   7.686  0.1262 -0.0528 -0.3762
 1041loPI    C115293  12.392  18.179   5.487  0.1265  0.0348 -0.1539
 1041loPI    C215294  12.667  18.070   5.218  0.0688 -0.0987 -0.1597
 1041loPI    C315295  12.297  17.920   5.196  0.0054  0.0522 -0.1305
 1041loPI   PO415296  12.623  18.139   5.709 -0.0072 -0.0820 -0.1676
 1041loPI   GL115297  12.720  18.316   6.067  0.0349  0.0806 -0.0336
 1041loPI   GL215298  13.043  18.202   6.035 -0.0283  0.0056 -0.1171
 1041loPI   C1A15299  12.486  18.439   6.533 -0.0097  0.1474  0.1710
 1041loPI   C2A15300  12.519  18.496   6.978 -0.3239 -0.0711 -0.1148
 1041loPI   C3A15301  12.460  18.476   7.322  0.0302  0.1494  0.4181
 1041loPI   C4A15302  12.295  18.573   7.665  0.1607  0.0064  0.3767
 1041loPI   C5A15303  12.538  18.884   7.876 -0.0308  0.2913 -0.1446
 1041loPI   C6A15304  12.973  18.958   7.899  0.0811  0.1274 -0.0978
 1041loPI   C1B15305  13.024  18.383   6.434 -0.2690  0.1590  0.2761
 1041loPI   C2B15306  13.037  18.400   6.803  0.0593 -0.0773  0.2132
 1041loPI   C3B15307  12.991  18.331   7.250 -0.3187  0.2937 -0.1088
 1041loPI   C4B15308  12.839  18.500   7.745  0.3708  0.0154 -0.0626
 1042loPI    C115309  13.235   7.972   5.944  0.0888  0.0502  0.1710
 1042loPI    C215310  13.633   7.990   5.909  0.0837 -0.1553 -0.0188
 1042loPI    C315311  13.411   7.858   5.603 -0.1543  0.2276 -0.0180
 1042loPI   PO415312  13.124   8.233   6.054 -0.0023  0.0956 -0.1418
 1042loPI   GL115313  12.811   8.466   6.303 -0.2451  0.1490  0.1906
 1042loPI   GL215314  12.902   8.099   6.488  0.2069  0.0340 -0.2883
 1042loPI   C1A15315  12.556   8.598   6.639  0.1815  0.1717  0.1072
 1042loPI   C2A15316  12.649   8.440   7.033 -0.0712 -0.2999 -0.1841
 1042loPI   C3A15317  13.047   8.192   7.121 -0.0541  0.0563  0.1951
 1042loPI   C4A15318  13.329   7.993   7.337  0.2443 -0.1466  0.2228
 1042loPI   C5A15319  13.357   7.944   7.771 -0.1603  0.0627  0.0687
 1042loPI   C6A15320  13.585   7.610   8.043 -0.0241  0.0139  0.0352
 1042loPI   C1B15321  12.662   7.961   6.788  0.1230 -0.1352  0.4407
 1042loPI   C2B15322  12.470   8.016   7.173  0.0810  0.1819 -0.1488
 1042loPI   C3B15323  12.381   8.022   7.525  0.0482  0.1412 -0.0871
 1042loPI   C4B15324  12.246   7.961   7.980 -0.1639 -0.0224  0.4171
 1043loPI    C115325  10.800  17.574   5.112  0.0345  0.1247  0.1000
 1043loPI    C215326  11.144  17.478   4.933  0.0505  0.2492  0.0633
 1043loPI    C315327  10.820  17.558   4.713  0.0500  0.3260  0.0915
 1043loPI   PO415328  10.862  17.688   5.264  0.0690 -0.0061  0.4168
 1043loPI   GL115329  10.935  17.700   5.722  0.0451  0.3249 -0.1147
 1043loPI   GL215330  11.029  18.004   5.571  0.0992 -0.2482  0.1243
 1043loPI   C1A15331  10.635  17.360   6.004  0.1755  0.0066 -0.2722
 1043loPI   C2A15332  10.383  17.061   6.366  0.2372 -0.0414  0.1634
 1043loPI   C3A15333  10.378  16.870   6.601  0.2062 -0.1023 -0.2010
 1043loPI   C4A15334  10.312  16.857   7.103  0.1130 -0.2281 -0.0466
 1043loPI   C5A15335  10.286  17.059   7.444  0.3892 -0.0041  0.0647
 1043loPI   C6A15336  10.343  17.494   7.540 -0.3190  0.2311  0.0321
 1043loPI   C1B15337  11.136  18.146   5.959  0.2789  0.0448  0.2258
 1043loPI   C2B15338  11.075  17.891   6.213  0.0807  0.0587  0.2957
 1043loPI   C3B15339  11.040  17.932   6.608  0.3950  0.3366 -0.0531
 1043loPI   C4B15340  11.218  17.953   7.045 -0.0280  0.2870  0.0153
 1044loPI    C115341   9.302  10.458   5.638  0.0560  0.0963 -0.1299
 1044loPI    C215342   8.937  10.389   5.490 -0.0111  0.1565  0.0063
 1044loPI    C315343   9.216  10.562   5.261 -0.0032 -0.0800 -0.1659
 1044loPI   PO415344   9.418  10.325   5.779 -0.2147 -0.2452  0.1293
 1044loPI   GL115345   9.579  10.293   6.198 -0.3375 -0.1705 -0.3962
 1044loPI   GL215346   9.782  10.101   6.129 -0.0096  0.0880 -0.1840
 1044loPI   C1A15347   9.712  10.527   6.564 -0.1639 -0.2273 -0.2247
 1044loPI   C2A15348   9.907  10.795   6.801  0.2223  0.1703 -0.1362
 1044loPI   C3A15349   9.998  10.799   7.177 -0.1354 -0.0024 -0.1927
 1044loPI   C4A15350   9.826  10.729   7.550 -0.1653  0.2174 -0.1950
 1044loPI   C5A15351   9.404  10.609   7.734  0.0589 -0.2830 -0.1348
 1044loPI   C6A15352   9.115  10.480   7.990 -0.1280  0.5612 -0.0650
 1044loPI   C1B15353   9.688  10.025   6.588 -0.1156 -0.2846  0.1952
 1044loPI   C2B15354   9.570  10.091   6.915  0.3546  0.0760 -0.0834
 1044loPI   C3B15355   9.522   9.833   7.254  0.1267  0.0940 -0.0462
 1044loPI   C4B15356   9.227   9.701   7.712 -0.0163 -0.2297  0.3199
 1045loPI    C115357   9.853   0.942   5.296 -0.0623  0.0549 -0.0244
 1045loPI    C215358   9.455   0.899   5.279 -0.0656 -0.0811  0.3054
 1045loPI    C315359   9.681   0.802   4.963 -0.2789 -0.1777  0.1802
 1045loPI   PO415360   9.876   0.776   5.540  0.0171  0.0025  0.3531
 1045loPI   GL115361  10.003   0.858   5.959 -0.2865 -0.2432 -0.0561
 1045loPI   GL215362  10.218   1.082   6.012  0.0312 -0.2149  0.0528
 1045loPI   C1A15363  10.044   0.828   6.439 -0.2088  0.1910 -0.0856
 1045loPI   C2A15364  10.161   0.733   6.797 -0.0255 -0.1188  0.1158
 1045loPI   C3A15365  10.223   0.725   7.088 -0.0865  0.1758 -0.2044
 1045loPI   C4A15366  10.431   0.800   7.426  0.2308 -0.0320  0.0090
 1045loPI   C5A15367  10.679   1.003   7.722  0.1702 -0.0116  0.0088
 1045loPI   C6A15368  11.101   0.947   7.855  0.3989  0.0109 -0.1999
 1045loPI   C1B15369  10.370   1.189   6.524 -0.0715 -0.1668 -0.1144
 1045loPI   C2B15370  10.353   1.187   6.981  0.1114 -0.1645  0.0258
 1045loPI   C3B15371  10.399   1.289   7.371 -0.1273 -0.1985 -0.0668
 1045loPI   C4B15372  10.118   1.352   7.612  0.2388  0.2600  0.2134
 1046loPI    C115373  14.879  16.782   5.409  0.2488 -0.1085 -0.0967
 1046loPI    C215374  14.675  16.978   5.126  0.1308 -0.0233  0.0464
 1046loPI    C315375  15.074  16.965   5.112  0.1359  0.1610 -0.0081
 1046loPI   PO415376  14.706  16.839   5.629  0.0161  0.0845 -0.0224
 1046loPI   GL115377  14.698  16.847   6.039 -0.1114  0.3716  0.2085
 1046loPI   GL215378  14.827  16.544   6.095 -0.3042 -0.1931 -0.1222
 1046loPI   C1A15379  14.768  17.233   6.345  0.0673 -0.1806 -0.0803
 1046loPI   C2A15380  14.745  17.229   6.729 -0.3815 -0.1828 -0.0955
 1046loPI   C3A15381  14.692  17.566   7.014  0.1508  0.0026  0.0317
 1046loPI   C4A15382  14.509  17.629   7.488 -0.0265  0.0893  0.1200
 1046loPI   C5A15383  14.202  17.632   7.861  0.0365 -0.0497 -0.0301
 1046loPI   C6A15384  14.066  17.884   8.176  0.5126 -0.2607 -0.1157
 1046loPI   C1B15385  14.734  16.728   6.481 -0.1844 -0.0598 -0.2770
 1046loPI   C2B15386  14.645  16.804   6.980  0.3303  0.2151  0.1171
 1046loPI   C3B15387  14.456  16.613   7.278 -0.3366  0.3779 -0.3121
 1046loPI   C4B15388  14.655  16.108   7.477  0.1061  0.0781 -0.0891
 1047loPI    C115389   0.822  10.696   6.125 -0.1266  0.0530 -0.1959
 1047loPI    C215390   0.968  10.402   5.897  0.0455 -0.1180  0.1280
 1047loPI    C315391   1.201  10.577   6.171 -0.0960  0.2312  0.0304
 1047loPI   PO415392   0.529  10.542   6.265  0.1787 -0.0877  0.0576
 1047loPI   GL115393   0.421  10.251   6.501  0.0564 -0.3006  0.0726
 1047loPI   GL215394   0.397  10.463   6.718  0.3719 -0.0510 -0.2623
 1047loPI   C1A15395   0.697  10.026   6.730 -0.0645  0.2707  0.2576
 1047loPI   C2A15396   0.790  10.075   7.057 -0.4448 -0.0266  0.1173
 1047loPI   C3A15397   0.946  10.002   7.494 -0.0618  0.1069 -0.0388
 1047loPI   C4A15398   0.857  10.101   7.943 -0.4379  0.2172  0.1648
 1047loPI   C5A15399   0.871  10.039   8.332  0.0955 -0.1370  0.1417
 1047loPI   C6A15400   0.786   9.729   8.564 -0.0089  0.2371 -0.0982
 1047loPI   C1B15401   0.309  10.154   6.964  0.2132 -0.2706 -0.2294
 1047loPI   C2B15402   0.383  10.095   7.416  0.0239 -0.0160  0.0621
 1047loPI   C3B15403   0.270  10.105   7.781  0.0487 -0.0959 -0.1236
 1047loPI   C4B15404   0.058  10.290   8.186 -0.0617  0.3758  0.0901
 1048loPI    C115405   7.244   1.926   5.289  0.2411  0.1693  0.1762
 1048loPI    C215406   7.485   1.749   5.023 -0.0423 -0.1019  0.0935
 1048loPI    C315407   7.115   1.609   5.082 -0.1175  0.1939  0.3540
 1048loPI   PO415408   7.403   1.876   5.551  0.0675  0.1700 -0.0152
 1048loPI   GL115409   7.290   1.916   5.877 -0.0510  0.2835 -0.1466
 1048loPI   GL215410   7.002   2.133   5.775  0.0271 -0.2766 -0.1442
 1048loPI   C1A15411   7.403   1.931   6.338 -0.0968  0.1060  0.3696
 1048loPI   C2A15412   7.527   2.010   6.656 -0.1657  0.3007 -0.0123
 1048loPI   C3A15413   7.662   1.994   7.132 -0.0847  0.1621 -0.2889
 1048loPI   C4A15414   7.441   2.088   7.480 -0.0150 -0.0435 -0.1636
 1048loPI   C5A15415   7.572   2.091   7.902  0.2197 -0.1026 -0.0632
 1048loPI   C6A15416   7.896   2.009   8.037  0.0661 -0.0740  0.2946
 1048loPI   C1B15417   6.830   1.856   6.049  0.2242 -0.1110 -0.1826
 1048loPI   C2B15418   6.977   1.594   6.300  0.1582 -0.0387 -0.1043
 1048loPI   C3B15419   6.871   1.632   6.708  0.1108 -0.0997  0.0586
 1048loPI   C4B15420   6.656   1.747   7.079 -0.0685 -0.0859  0.0553
 1049loPI    C115421   8.607   3.535   5.366 -0.0658  0.0033  0.0366
 1049loPI    C215422   8.213   3.484   5.316 -0.1258  0.3708  0.1057
 1049loPI    C315423   8.434   3.638   5.020  0.0483 -0.2317 -0.0930
 1049loPI   PO415424   8.619   3.537   5.661  0.2546  0.1156  0.2083
 1049loPI   GL115425   8.668   3.409   6.025 -0.0465  0.1159 -0.3953
 1049loPI   GL215426   8.326   3.486   6.056 -0.0689 -0.0931 -0.0972
 1049loPI   C1A15427   8.627   3.320   6.542  0.1611 -0.0468 -0.0201
 1049loPI   C2A15428   8.494   3.284   6.825 -0.1010  0.0072 -0.2983
 1049loPI   C3A15429   8.376   3.167   7.183 -0.1669  0.4089  0.0789
 1049loPI   C4A15430   8.463   3.485   7.476  0.1040 -0.1703  0.2321
 1049loPI   C5A15431   8.483   3.617   7.896  0.0914 -0.2374 -0.3250
 1049loPI   C6A15432   8.299   3.995   7.975  0.0104 -0.0839 -0.2100
 1049loPI   C1B15433   8.135   3.261   6.370 -0.3168 -0.4471  0.1816
 1049loPI   C2B15434   7.993   3.103   6.718  0.0906 -0.0156 -0.3527
 1049loPI   C3B15435   7.780   3.099   7.014 -0.1499 -0.1647  0.2125
 1049loPI   C4B15436   7.733   2.995   7.437 -0.1066  0.0481  0.2275
 1050loPI    C115437   0.253  14.637   5.820  0.0074 -0.0995 -0.0774
 1050loPI    C215438   0.199  14.697   5.428  0.1747  0.0762 -0.0751
 1050loPI    C315439   0.556  14.579   5.566  0.0980 -0.0496  0.0182
 1050loPI   PO415440   0.039  14.663   5.917 -0.2053 -0.1141 -0.3537
 1050loPI   GL115441  -0.019  14.939   6.201 -0.4400 -0.0774 -0.5521
 1050loPI   GL215442   0.222  15.105   6.129 -0.1019 -0.1686  0.0751
 1050loPI   C1A15443   0.017  15.040   6.583 -0.1999  0.1851 -0.1509
 1050loPI   C2A15444   0.191  15.137   6.943  0.0863  0.0043 -0.0939
 1050loPI   C3A15445   0.269  15.220   7.257  0.0692 -0.0204 -0.1622
 1050loPI   C4A15446   0.527  15.335   7.606  0.0678  0.4101  0.2093
 1050loPI   C5A15447   0.641  15.371   7.911  0.0083  0.0352 -0.1354
 1050loPI   C6A15448   0.621  15.669   8.187  0.1618  0.0215 -0.1500
 1050loPI   C1B15449   0.512  15.084   6.459 -0.0304 -0.0382  0.0656
 1050loPI   C2B15450   0.688  14.948   6.842  0.0311  0.0545  0.0967
 1050loPI   C3B15451   0.729  14.926   7.248 -0.2207 -0.1594 -0.0609
 1050loPI   C4B15452   0.979  14.898   7.569 -0.0529 -0.0184 -0.3072
 1051loPI    C115453  11.500   1.050   4.857 -0.0921  0.2206  0.0172
 1051loPI    C215454  11.632   0.879   4.520  0.0151  0.1851  0.0766
 1051loPI    C315455  11.262   1.030   4.536 -0.1443 -0.1943  0.0764
 1051loPI   PO415456  11.775   1.171   4.958  0.1015  0.1183  0.0124
 1051loPI   GL115457  11.822   1.266   5.415  0.0808 -0.2804 -0.2212
 1051loPI   GL215458  11.730   1.033   5.554  0.0638 -0.0978 -0.0300
 1051loPI   C1A15459  11.482   1.349   5.821  0.2249  0.2350 -0.0436
 1051loPI   C2A15460  11.474   1.140   6.163  0.1435  0.2206 -0.2018
 1051loPI   C3A15461  11.503   1.185   6.697  0.3624  0.1792 -0.0651
 1051loPI   C4A15462  11.393   1.105   7.107  0.0360  0.0726  0.2347
 1051loPI   C5A15463  11.433   0.989   7.486 -0.0059  0.0624 -0.0198
 1051loPI   C6A15464  11.541   0.581   7.771  0.0418 -0.2378 -0.0263
 1051loPI   C1B15465  11.839   0.855   5.988  0.1558 -0.1309  0.0555
 1051loPI   C2B15466  11.769   0.816   6.413 -0.0638  0.0342 -0.1105
 1051loPI   C3B15467  11.837   0.829   6.800  0.2032  0.0020  0.0092
 1051loPI   C4B15468  11.853   0.992   7.221 -0.0653 -0.0645 -0.0961
 1052loPI    C115469   8.828  18.087   5.128  0.1718  0.0845  0.1619
 1052loPI    C215470   8.448  18.085   5.003  0.2243  0.1899 -0.0040
 1052loPI    C315471   8.719  17.854   4.821  0.2085 -0.0081  0.2188
 1052loPI   PO415472   8.763  18.191   5.321 -0.1124  0.1082  0.0214
 1052loPI   GL115473   8.531  18.068   5.625  0.0096 -0.0217  0.3758
 1052loPI   GL215474   8.444  17.835   5.922  0.1032 -0.0139  0.1604
 1052loPI   C1A15475   8.782  18.087   6.060 -0.0888 -0.1083 -0.0719
 1052loPI   C2A15476   8.895  17.970   6.478 -0.2163  0.0642  0.1995
 1052loPI   C3A15477   9.060  17.985   6.856 -0.1570 -0.2135 -0.0826
 1052loPI   C4A15478   9.072  17.992   7.241 -0.0178  0.1913 -0.2590
 1052loPI   C5A15479   9.333  18.065   7.570 -0.1299  0.0258  0.1002
 1052loPI   C6A15480   9.530  18.512   7.685 -0.0890 -0.2400  0.2752
 1052loPI   C1B15481   8.356  18.077   6.359  0.1397 -0.1560  0.0468
 1052loPI   C2B15482   8.321  18.386   6.694 -0.1736 -0.2560 -0.1051
 1052loPI   C3B15483   8.204  18.405   7.135  0.2763 -0.3178  0.0399
 1052loPI   C4B15484   8.173  18.410   7.531  0.1084 -0.0187 -0.3283
 1053loPI    C115485  17.342  14.038   5.779  0.0125 -0.1185  0.0067
 1053loPI    C215486  17.401  13.725   5.538 -0.4012 -0.0815 -0.1512
 1053loPI    C315487  17.597  13.749   5.886 -0.1062 -0.3396 -0.2939
 1053loPI   PO415488  17.080  14.065   5.853  0.0441 -0.1696 -0.1222
 1053loPI   GL115489  16.914  14.245   6.093  0.2911 -0.1129 -0.2224
 1053loPI   GL215490  16.704  14.012   6.274 -0.0717 -0.0403 -0.1390
 1053loPI   C1A15491  17.051  14.370   6.486 -0.0233 -0.0712 -0.2155
 1053loPI   C2A15492  17.046  14.419   6.917  0.2620  0.3113 -0.1530
 1053loPI   C3A15493  17.180  14.416   7.400  0.3477  0.0669 -0.1442
 1053loPI   C4A15494  17.166  14.408   7.847  0.2600 -0.0557 -0.0235
 1053loPI   C5A15495  16.755  14.580   7.949  0.1323  0.1220  0.0413
 1053loPI   C6A15496  16.414  14.468   7.903  0.0533 -0.1326  0.0585
 1053loPI   C1B15497  16.779  14.009   6.666 -0.1004 -0.1617 -0.0749
 1053loPI   C2B15498  16.831  14.018   7.166  0.3536 -0.0427 -0.1121
 1053loPI   C3B15499  16.917  13.964   7.655 -0.0719 -0.0884  0.0095
 1053loPI   C4B15500  16.905  13.809   8.071 -0.1322  0.0668  0.0094
 1054loPI    C115501   8.250   0.572   4.822 -0.0985  0.0689 -0.2310
 1054loPI    C215502   8.065   0.252   4.976  0.2512  0.0038  0.0668
 1054loPI    C315503   7.880   0.478   4.703 -0.1104 -0.2842  0.0668
 1054loPI   PO415504   8.370   0.712   5.155 -0.0410 -0.0149 -0.0767
 1054loPI   GL115505   8.638   0.685   5.577  0.0155 -0.0112  0.0907
 1054loPI   GL215506   8.842   0.847   5.709 -0.0291  0.2412 -0.2326
 1054loPI   C1A15507   8.523   0.454   6.026 -0.0734  0.2288 -0.2101
 1054loPI   C2A15508   8.687   0.266   6.402  0.1181 -0.0540  0.2254
 1054loPI   C3A15509   8.791   0.324   6.888 -0.0028 -0.1267 -0.2086
 1054loPI   C4A15510   8.632   0.429   7.258 -0.0337 -0.2879 -0.2075
 1054loPI   C5A15511   8.622   0.443   7.656  0.1045 -0.1806  0.1900
 1054loPI   C6A15512   8.520   0.051   7.909  0.1336 -0.3238  0.2764
 1054loPI   C1B15513   8.669   1.100   6.131 -0.1609 -0.2415 -0.2105
 1054loPI   C2B15514   8.769   1.108   6.546 -0.1665 -0.1948  0.2002
 1054loPI   C3B15515   8.912   1.082   6.943 -0.1226 -0.0841  0.0354
 1054loPI   C4B15516   8.834   0.891   7.364 -0.0088  0.0664 -0.0243
 1055loPI    C115517  13.581   0.014   5.374  0.1300 -0.0880 -0.0708
 1055loPI    C215518  13.218   0.179   5.343  0.0702 -0.2215 -0.0900
 1055loPI    C315519  13.318  -0.129   5.108  0.2880 -0.0214 -0.2658
 1055loPI   PO415520  13.570  -0.098   5.675  0.3584  0.0139 -0.1008
 1055loPI   GL115521  13.765   0.095   5.990  0.3783 -0.0582 -0.0354
 1055loPI   GL215522  13.482   0.001   6.237 -0.1451  0.0030  0.3204
 1055loPI   C1A15523  13.826   0.339   6.379 -0.2689  0.2768 -0.2992
 1055loPI   C2A15524  13.854   0.413   6.849  0.1211  0.2044  0.2204
 1055loPI   C3A15525  13.805   0.487   7.242 -0.2050  0.2251 -0.1274
 1055loPI   C4A15526  13.761   0.652   7.625 -0.0397  0.0932  0.1916
 1055loPI   C5A15527  13.914   0.454   8.016 -0.1493 -0.1467 -0.2851
 1055loPI   C6A15528  13.780   0.502   8.396  0.4549  0.0113 -0.0979
 1055loPI   C1B15529  13.421  -0.057   6.643  0.1805 -0.1214  0.2585
 1055loPI   C2B15530  13.476   0.025   7.087  0.1097  0.0324  0.1012
 1055loPI   C3B15531  13.564   0.159   7.478  0.3406 -0.0154 -0.0588
 1055loPI   C4B15532  13.699  -0.023   7.871  0.1901  0.2686 -0.1404
 1056loPI    C115533  11.309   9.461   5.623  0.2254 -0.0068 -0.0120
 1056loPI    C215534  11.546   9.277   5.359 -0.0202 -0.2680 -0.0552
 1056loPI    C315535  11.163   9.352   5.267 -0.1400 -0.4672  0.2672
 1056loPI   PO415536  11.505   9.671   5.741 -0.0746  0.0485  0.0125
 1056loPI   GL115537  11.725   9.716   6.158 -0.0473  0.0958  0.1271
 1056loPI   GL215538  11.493   9.960   6.173  0.2010  0.0347  0.2656
 1056loPI   C1A15539  11.906   9.431   6.495  0.1184 -0.1884 -0.2293
 1056loPI   C2A15540  11.930   9.377   6.911  0.0304 -0.0484  0.1692
 1056loPI   C3A15541  11.737   9.493   7.233 -0.2382  0.4813 -0.0708
 1056loPI   C4A15542  11.578   9.549   7.716 -0.0838  0.1986  0.1573
 1056loPI   C5A15543  11.172   9.410   7.955  0.0364  0.1559 -0.0862
 1056loPI   C6A15544  10.916   9.201   8.259 -0.1932  0.1419 -0.1313
 1056loPI   C1B15545  11.608  10.154   6.593 -0.0487  0.0835  0.1300
 1056loPI   C2B15546  11.880  10.333   6.894 -0.0875 -0.1823 -0.0639
 1056loPI   C3B15547  12.076  10.275   7.273  0.0813 -0.0136  0.0931
 1056loPI   C4B15548  12.179  10.532   7.719 -0.5679 -0.1408  0.3626
 1057loPI    C115549   6.073   4.162   5.424  0.0298 -0.2449 -0.0878
 1057loPI    C215550   5.682   4.210   5.358  0.0784  0.0813 -0.1548
 1057loPI    C315551   5.926   4.118   5.055  0.0857  0.0969 -0.1536
 1057loPI   PO415552   6.209   4.425   5.473 -0.0140 -0.0383 -0.0620
 1057loPI   GL115553   6.326   4.701   5.836  0.1101  0.1395  0.0182
 1057loPI   GL215554   6.037   4.692   5.990  0.1674  0.0600 -0.3553
 1057loPI   C1A15555   6.571   4.674   6.204 -0.5470 -0.1255  0.0470
 1057loPI   C2A15556   6.593   4.561   6.568 -0.2840 -0.0750 -0.1852
 1057loPI   C3A15557   6.622   4.572   7.022  0.0735 -0.2971  0.0950
 1057loPI   C4A15558   6.282   4.464   7.367 -0.0821 -0.2483  0.0223
 1057loPI   C5A15559   5.899   4.579   7.526  0.2898  0.0613  0.0757
 1057loPI   C6A15560   5.843   4.588   7.958 -0.3870 -0.1605  0.0392
 1057loPI   C1B15561   6.104   4.647   6.450  0.0940 -0.0502 -0.2372
 1057loPI   C2B15562   6.090   4.583   6.857  0.1712 -0.0432 -0.0085
 1057loPI   C3B15563   5.937   4.216   7.137  0.1932 -0.0713  0.1772
 1057loPI   C4B15564   5.929   3.993   7.562 -0.0551  0.0130 -0.0543
 1058loPI    C115565  15.963   2.456   5.611  0.0164  0.0515  0.0704
 1058loPI    C215566  16.014   2.174   5.332 -0.2100 -0.0922  0.1708
 1058loPI    C315567  15.651   2.330   5.395 -0.0666  0.3073  0.0387
 1058loPI   PO415568  16.132   2.429   5.739 -0.1879  0.0571 -0.2119
 1058loPI   GL115569  16.324   2.333   6.166 -0.0910  0.0349 -0.0250
 1058loPI   GL215570  16.101   2.049   6.166  0.0659 -0.3627  0.4061
 1058loPI   C1A15571  16.537   2.324   6.466  0.2089 -0.1879  0.1637
 1058loPI   C2A15572  16.685   2.352   6.892 -0.0854  0.0135  0.3521
 1058loPI   C3A15573  16.640   2.197   7.279 -0.1364  0.3070  0.1599
 1058loPI   C4A15574  16.708   2.265   7.657 -0.4542 -0.4838 -0.2167
 1058loPI   C5A15575  16.620   2.139   8.075  0.1423 -0.2866 -0.0449
 1058loPI   C6A15576  16.629   1.725   8.375  0.0362  0.2705 -0.1319
 1058loPI   C1B15577  15.936   1.912   6.495  0.0424  0.3904 -0.3148
 1058loPI   C2B15578  15.657   2.078   6.850  0.2602 -0.4640  0.0125
 1058loPI   C3B15579  15.494   2.187   7.281  0.1794 -0.1558  0.0146
 1058loPI   C4B15580  15.273   2.092   7.643 -0.2035  0.2381 -0.0216
 1059loPI    C115581   9.008   0.437   5.325  0.5470  0.0701 -0.3928
 1059loPI    C215582   8.886   0.799   5.206 -0.0988  0.0342  0.1058
 1059loPI    C315583   8.760   0.472   5.013 -0.0927  0.0399  0.0921
 1059loPI   PO415584   9.209   0.470   5.380 -0.0427  0.1703 -0.0848
 1059loPI   GL115585   9.297   0.678   5.718 -0.0101 -0.1536  0.1713
 1059loPI   GL215586   9.510   0.698   5.862  0.0637  0.2512  0.0571
 1059loPI   C1A15587   9.009   0.562   6.037  0.2848 -0.0225  0.1744
 1059loPI   C2A15588   8.972   0.705   6.348 -0.0193 -0.2378  0.0081
 1059loPI   C3A15589   9.129   0.678   6.764 -0.0545  0.0366 -0.2276
 1059loPI   C4A15590   9.103   0.509   7.174 -0.1614  0.1515 -0.1452
 1059loPI   C5A15591   9.020   0.258   7.456 -0.1897  0.1414 -0.1536
 1059loPI   C6A15592   9.000   0.306   7.908 -0.1228 -0.1836 -0.0748
 1059loPI   C1B15593   9.500   0.732   6.302  0.0338 -0.2527 -0.0826
 1059loPI   C2B15594   9.624   0.813   6.663 -0.0320  0.1834 -0.0356
 1059loPI   C3B15595   9.589   0.746   7.003  0.0483  0.4038 -0.0951
 1059loPI   C4B15596   9.733   0.584   7.255 -0.0160 -0.2451 -0.0993
 1060loPI    C115597  15.835  15.826   5.276  0.0648  0.0637  0.0676
 1060loPI    C215598  15.759  15.436   5.233 -0.1929  0.1319 -0.1250
 1060loPI    C315599  15.633  15.696   4.956  0.0934  0.3388 -0.0660
 1060loPI   PO415600  15.843  15.849   5.544 -0.0051 -0.0609 -0.4340
 1060loPI   GL115601  15.828  15.791   5.949 -0.0328 -0.3901 -0.2193
 1060loPI   GL215602  15.880  15.458   6.133  0.1844  0.1624  0.3434
 1060loPI   C1A15603  16.042  15.901   6.317  0.0410  0.3124 -0.2780
 1060loPI   C2A15604  16.129  15.937   6.675  0.1237 -0.2383  0.0971
 1060loPI   C3A15605  16.219  15.985   7.164 -0.2387 -0.0474 -0.3168
 1060loPI   C4A15606  16.422  16.032   7.534  0.1493 -0.1460 -0.0600
 1060loPI   C5A15607  16.531  16.014   7.948  0.2026 -0.3218  0.1024
 1060loPI   C6A15608  16.893  16.304   8.105  0.1436  0.0407 -0.3285
 1060loPI   C1B15609  15.918  15.493   6.547 -0.2383 -0.2148  0.1280
 1060loPI   C2B15610  16.029  15.516   6.965  0.0434  0.0508 -0.0281
 1060loPI   C3B15611  16.013  15.635   7.414  0.1321  0.1748  0.0944
 1060loPI   C4B15612  16.078  15.763   7.788  0.2194 -0.1481 -0.0577
 1061loPI    C115613   2.202  14.986   5.446 -0.0869 -0.0837 -0.0053
 1061loPI    C215614   2.286  14.947   5.057  0.0121  0.1545 -0.0096
 1061loPI    C315615   2.079  14.662   5.246  0.1461 -0.0638 -0.1858
 1061loPI   PO415616   2.458  15.063   5.521 -0.1965  0.2476 -0.5789
 1061loPI   GL115617   2.552  15.034   5.980 -0.1167  0.0254 -0.0871
 1061loPI   GL215618   2.670  15.311   6.050 -0.0465  0.1949  0.3139
 1061loPI   C1A15619   2.747  14.925   6.425 -0.1861  0.0088 -0.3840
 1061loPI   C2A15620   2.863  15.006   6.819 -0.0942  0.2767  0.1639
 1061loPI   C3A15621   3.039  14.850   7.265  0.1424  0.1175 -0.2014
 1061loPI   C4A15622   3.327  14.584   7.544  0.1250  0.1241  0.1711
 1061loPI   C5A15623   3.505  14.718   7.920  0.2288  0.2489 -0.0526
 1061loPI   C6A15624   3.772  14.504   8.250 -0.0038  0.0547  0.2654
 1061loPI   C1B15625   2.634  15.394   6.556  0.1232  0.2041 -0.3418
 1061loPI   C2B15626   2.681  15.439   6.942  0.3438 -0.2117 -0.2195
 1061loPI   C3B15627   2.762  15.279   7.308  0.0045 -0.2564  0.2804
 1061loPI   C4B15628   2.746  15.023   7.673  0.1151 -0.1528  0.3060
 1062loPI    C115629  10.172   5.392   5.344  0.1783 -0.1229  0.0404
 1062loPI    C215630  10.025   5.499   4.987  0.3261  0.1296  0.0532
 1062loPI    C315631  10.088   5.113   5.070  0.1391  0.0576 -0.1337
 1062loPI   PO415632  10.102   5.530   5.442  0.0549  0.1698  0.0080
 1062loPI   GL115633   9.738   5.397   5.751  0.1303 -0.1075 -0.0539
 1062loPI   GL215634   9.761   5.646   5.927  0.2629  0.0651  0.2427
 1062loPI   C1A15635   9.369   5.282   6.055  0.2104 -0.0844 -0.0561
 1062loPI   C2A15636   9.298   5.276   6.502  0.1064  0.1028 -0.4180
 1062loPI   C3A15637   9.384   5.305   6.869  0.0427 -0.1720  0.1771
 1062loPI   C4A15638   9.444   5.458   7.352 -0.1447  0.0028  0.4774
 1062loPI   C5A15639   9.225   5.624   7.625  0.1210 -0.0352 -0.2301
 1062loPI   C6A15640   9.162   5.472   7.992 -0.4753  0.3930  0.2405
 1062loPI   C1B15641   9.839   5.439   6.354  0.1664 -0.2455  0.4475
 1062loPI   C2B15642   9.792   5.588   6.743 -0.1743 -0.0200  0.4117
 1062loPI   C3B15643   9.831   5.646   7.150 -0.3992  0.0818 -0.2087
 1062loPI   C4B15644   9.969   5.453   7.383  0.1291 -0.0741  0.0634
 1063loPI    C115645   4.396  11.113   5.670 -0.0102 -0.1325 -0.1255
 1063loPI    C215646   4.237  11.212   5.316  0.1275  0.1695 -0.1062
 1063loPI    C315647   4.330  11.497   5.580  0.2965 -0.0336  0.0576
 1063loPI   PO415648   4.564  10.903   5.617 -0.0487  0.3547  0.1879
 1063loPI   GL115649   4.773  10.716   6.063 -0.0187 -0.0074 -0.0137
 1063loPI   GL215650   5.013  10.351   6.106 -0.1897 -0.1489  0.1728
 1063loPI   C1A15651   4.675  10.576   6.461  0.3250 -0.1258  0.4437
 1063loPI   C2A15652   4.573  10.435   6.904 -0.1792 -0.3353  0.3028
 1063loPI   C3A15653   4.614  10.237   7.337  0.1911 -0.1025 -0.0585
 1063loPI   C4A15654   4.676  10.632   7.691 -0.1907  0.0186  0.3662
 1063loPI   C5A15655   4.707  10.995   7.500 -0.3099  0.2216  0.1810
 1063loPI   C6A15656   4.696  11.421   7.643  0.0655  0.0500 -0.4188
 1063loPI   C1B15657   4.920  10.148   6.489 -0.2034 -0.4602 -0.1986
 1063loPI   C2B15658   4.924   9.974   6.851 -0.0070 -0.0716  0.0271
 1063loPI   C3B15659   4.946   9.808   7.266 -0.0986 -0.2172 -0.2473
 1063loPI   C4B15660   5.083  10.083   7.606  0.0653 -0.2955  0.1255
 1064loPI    C115661  11.034   9.862   5.361 -0.1507 -0.2118  0.0228
 1064loPI    C215662  10.790  10.035   5.095  0.0744 -0.2003 -0.1800
 1064loPI    C315663  11.089   9.801   4.969  0.2052 -0.1665  0.0624
 1064loPI   PO415664  10.930   9.765   5.550 -0.2732 -0.4016 -0.0608
 1064loPI   GL115665  11.061   9.871   5.946  0.1137  0.1341 -0.1511
 1064loPI   GL215666  11.092   9.613   6.036  0.0018 -0.0366  0.0510
 1064loPI   C1A15667  11.034   9.994   6.397  0.2811 -0.2568  0.1896
 1064loPI   C2A15668  10.989   9.823   6.806 -0.0009  0.0071 -0.1545
 1064loPI   C3A15669  10.924   9.868   7.243  0.1172 -0.1594 -0.0180
 1064loPI   C4A15670  11.029   9.774   7.614  0.0963 -0.0388  0.0224
 1064loPI   C5A15671  10.919   9.888   8.011 -0.0537  0.1494  0.1304
 1064loPI   C6A15672  10.743  10.216   8.157  0.1061  0.0305  0.1984
 1064loPI   C1B15673  11.288   9.521   6.437 -0.0547 -0.1476 -0.2451
 1064loPI   C2B15674  11.492   9.716   6.757 -0.0123  0.1180 -0.1732
 1064loPI   C3B15675  11.495   9.974   7.188 -0.1053 -0.1299 -0.0815
 1064loPI   C4B15676  11.640  10.005   7.601 -0.0182 -0.1025 -0.1873
 1065loPI    C115677  10.806  12.758   5.325  0.0983 -0.0654 -0.2866
 1065loPI    C215678  10.777  12.363   5.376  0.0227 -0.0456 -0.1723
 1065loPI    C315679  10.688  12.526   5.022 -0.1446 -0.1099 -0.1610
 1065loPI   PO415680  10.658  12.807   5.538  0.0768 -0.0201 -0.4129
 1065loPI   GL115681  10.454  12.912   6.008  0.0382  0.1297  0.0569
 1065loPI   GL215682  10.153  12.880   6.145 -0.0693 -0.2127  0.1034
 1065loPI   C1A15683  10.520  13.040   6.486 -0.2934 -0.0703 -0.1320
 1065loPI   C2A15684  10.429  12.922   6.992 -0.2353 -0.0546 -0.5208
 1065loPI   C3A15685  10.381  12.534   7.292 -0.0302  0.0300 -0.4399
 1065loPI   C4A15686  10.260  12.541   7.715  0.0842  0.0171  0.0683
 1065loPI   C5A15687  10.194  12.269   8.000  0.1860  0.0234  0.2776
 1065loPI   C6A15688  10.089  11.854   7.927  0.0682 -0.2019 -0.1335
 1065loPI   C1B15689  10.020  12.873   6.575  0.1329 -0.0748 -0.1924
 1065loPI   C2B15690   9.943  12.834   7.020 -0.1536 -0.0810 -0.0533
 1065loPI   C3B15691   9.848  12.615   7.398 -0.2813  0.0860 -0.0362
 1065loPI   C4B15692   9.571  12.941   7.626 -0.2563 -0.1001  0.0090
 1066loPI    C115693   8.307   9.515   5.123 -0.1137 -0.0473 -0.0459
 1066loPI    C215694   8.582   9.714   4.912 -0.0979  0.0079  0.0266
 1066loPI    C315695   8.486   9.339   4.812 -0.1078  0.0420 -0.0934
 1066loPI   PO415696   8.245   9.665   5.359 -0.1212 -0.0527  0.0076
 1066loPI   GL115697   8.230   9.580   5.812  0.1254  0.0512 -0.0217
 1066loPI   GL215698   8.625   9.630   5.875 -0.3966 -0.0282 -0.1506
 1066loPI   C1A15699   7.976   9.394   6.143 -0.0468  0.1387 -0.1173
 1066loPI   C2A15700   8.072   9.264   6.627 -0.1731  0.0498 -0.0318
 1066loPI   C3A15701   7.989   9.316   7.048  0.1707 -0.1820 -0.2586
 1066loPI   C4A15702   7.958   9.138   7.515 -0.0529  0.0655 -0.1369
 1066loPI   C5A15703   8.197   8.988   7.692  0.0667 -0.0935 -0.1621
 1066loPI   C6A15704   8.419   8.856   8.052  0.1295 -0.3924 -0.0415
 1066loPI   C1B15705   8.500   9.480   6.304 -0.1739 -0.3148 -0.5015
 1066loPI   C2B15706   8.465   9.424   6.853  0.3233 -0.1318  0.1086
 1066loPI   C3B15707   8.422   9.533   7.272  0.0191  0.2197  0.2997
 1066loPI   C4B15708   8.212   9.600   7.665  0.1181 -0.0244  0.0299
 1067loPI    C115709  16.836  17.069   5.752  0.1906 -0.0241 -0.0122
 1067loPI    C215710  16.793  17.122   5.358 -0.0935 -0.1734 -0.0041
 1067loPI    C315711  16.906  16.766   5.501 -0.1682 -0.1720  0.0592
 1067loPI   PO415712  16.972  17.355   5.861 -0.1111 -0.0441 -0.0907
 1067loPI   GL115713  16.873  17.545   6.160 -0.0938  0.1125 -0.4663
 1067loPI   GL215714  16.955  17.869   6.212 -0.1317 -0.0432 -0.4440
 1067loPI   C1A15715  16.857  17.270   6.571 -0.3706 -0.4295 -0.0006
 1067loPI   C2A15716  16.771  17.298   7.067  0.0572 -0.0272  0.0033
 1067loPI   C3A15717  16.662  17.234   7.526 -0.2358 -0.2441  0.1905
 1067loPI   C4A15718  16.832  17.419   7.885 -0.1530 -0.0256  0.0808
 1067loPI   C5A15719  17.273  17.673   7.936  0.0965 -0.3763  0.2250
 1067loPI   C6A15720  17.621  17.893   8.083 -0.3438  0.0115 -0.1716
 1067loPI   C1B15721  16.871  17.989   6.521  0.1285 -0.2789  0.0203
 1067loPI   C2B15722  16.895  18.242   6.939  0.1674  0.1230  0.2337
 1067loPI   C3B15723  16.805  18.149   7.415 -0.1826 -0.1053 -0.1678
 1067loPI   C4B15724  16.744  18.395   7.792  0.1348  0.1084  0.0973
 1068loPI    C115725   7.626   9.240   5.042  0.1234  0.0082  0.0539
 1068loPI    C215726   7.997   9.101   5.096  0.1261 -0.0587 -0.1306
 1068loPI    C315727   7.732   8.887   4.886 -0.0194 -0.0144  0.0062
 1068loPI   PO415728   7.521   9.293   5.262 -0.0939 -0.0410 -0.0488
 1068loPI   GL115729   7.780   9.393   5.649 -0.1667 -0.1446  0.0732
 1068loPI   GL215730   7.947   9.157   5.572  0.1347 -0.1244  0.1356
 1068loPI   C1A15731   7.538   9.495   6.033  0.1563  0.1578 -0.2038
 1068loPI   C2A15732   7.635   9.595   6.530 -0.1096  0.0133 -0.1225
 1068loPI   C3A15733   7.614   9.614   6.862 -0.0450  0.3521  0.0474
 1068loPI   C4A15734   7.439   9.719   7.300  0.2382  0.1620  0.0092
 1068loPI   C5A15735   7.289  10.129   7.611 -0.0605 -0.2588  0.3595
 1068loPI   C6A15736   7.382  10.557   7.919  0.1743 -0.2395 -0.1129
 1068loPI   C1B15737   7.722   8.941   5.931  0.2311 -0.1604 -0.1176
 1068loPI   C2B15738   7.542   9.108   6.376  0.0406  0.1728  0.1260
 1068loPI   C3B15739   7.708   8.982   6.782 -0.3041  0.1993 -0.1381
 1068loPI   C4B15740   8.039   8.794   7.095  0.0852 -0.0974  0.1102
 1069loPI    C115741  17.396   8.332   6.235  0.3153  0.0834  0.1032
 1069loPI    C215742  17.023   8.473   6.269  0.1671 -0.1833 -0.3224
 1069loPI    C315743  17.323   8.721   6.178  0.0958  0.0299  0.0056
 1069loPI   PO415744  17.407   8.184   6.404  0.0513 -0.3396  0.0825
 1069loPI   GL115745  17.349   7.885   6.715 -0.4831  0.1715  0.0353
 1069loPI   GL215746  17.661   7.971   6.817  0.0027  0.1842  0.0629
 1069loPI   C1A15747  17.156   7.801   7.072 -0.2154  0.4993  0.3039
 1069loPI   C2A15748  16.847   7.983   7.309  0.1775 -0.1786  0.1428
 1069loPI   C3A15749  16.587   8.327   7.609 -0.0910 -0.2404 -0.0264
 1069loPI   C4A15750  16.343   8.323   7.931  0.1786 -0.3476  0.1609
 1069loPI   C5A15751  16.002   8.089   8.089  0.0338  0.1510  0.0098
 1069loPI   C6A15752  15.782   7.809   8.330 -0.2224 -0.1246 -0.2356
 1069loPI   C1B15753  17.650   7.843   7.206  0.1509  0.1204 -0.0328
 1069loPI   C2B15754  17.766   7.528   7.595 -0.0096  0.1099 -0.0554
 1069loPI   C3B15755  17.870   7.442   8.064 -0.0959  0.1589  0.2331
 1069loPI   C4B15756  18.130   7.738   8.501  0.0534  0.0685 -0.0598
 1070loPI    C115757  10.821  14.681   5.280 -0.0553 -0.0645  0.1761
 1070loPI    C215758  10.502  14.892   5.162  0.1379  0.0394 -0.1733
 1070loPI    C315759  10.552  14.516   5.034 -0.0232 -0.1005  0.1651
 1070loPI   PO415760  10.847  14.644   5.520  0.1914 -0.1376 -0.2490
 1070loPI   GL115761  10.966  14.690   6.010 -0.1019  0.1134 -0.0447
 1070loPI   GL215762  10.813  15.005   6.175  0.2015  0.0080 -0.0982
 1070loPI   C1A15763  11.121  14.448   6.445 -0.1914  0.1494  0.1208
 1070loPI   C2A15764  11.179  14.202   6.787  0.1506 -0.0883 -0.0046
 1070loPI   C3A15765  11.047  14.171   7.226 -0.0067  0.0059  0.2863
 1070loPI   C4A15766  10.933  14.090   7.644  0.1671  0.2004 -0.3281
 1070loPI   C5A15767  10.736  13.848   7.952  0.1163  0.1703  0.0559
 1070loPI   C6A15768  10.598  13.764   8.301  0.0669 -0.1266 -0.1235
 1070loPI   C1B15769  10.704  14.730   6.473  0.0223  0.0045  0.2706
 1070loPI   C2B15770  10.829  14.625   6.917  0.4400  0.0155  0.1413
 1070loPI   C3B15771  10.565  14.439   7.184 -0.0287  0.0695  0.0159
 1070loPI   C4B15772  10.249  14.364   7.410 -0.0863  0.0098  0.0379
 1071loPI    C115773  16.645  10.779   5.772  0.0247 -0.1898  0.0588
 1071loPI    C215774  16.600  10.804   5.376  0.0320  0.0143  0.0698
 1071loPI    C315775  16.854  10.538   5.532 -0.1230 -0.2083 -0.0525
 1071loPI   PO415776  16.437  10.771   5.864 -0.1671  0.0531  0.0227
 1071loPI   GL115777  16.424  10.980   6.273  0.1264  0.1310  0.0097
 1071loPI   GL215778  16.119  10.884   6.427  0.1501 -0.1774  0.3289
 1071loPI   C1A15779  16.689  11.218   6.588 -0.1708  0.1530 -0.1021
 1071loPI   C2A15780  16.703  11.219   6.946 -0.0406  0.1831  0.2389
 1071loPI   C3A15781  16.456  11.243   7.379 -0.1190 -0.3473 -0.1109
 1071loPI   C4A15782  16.410  11.130   7.773 -0.2449  0.1103 -0.1104
 1071loPI   C5A15783  16.069  11.217   8.094  0.2129  0.0360  0.1884
 1071loPI   C6A15784  15.773  11.084   8.236  0.1591  0.0247 -0.0572
 1071loPI   C1B15785  16.422  10.771   6.746 -0.1537 -0.3660 -0.0108
 1071loPI   C2B15786  16.431  10.804   7.109  0.3205  0.0404  0.1755
 1071loPI   C3B15787  16.273  10.712   7.478  0.0387 -0.1570  0.1215
 1071loPI   C4B15788  15.890  10.492   7.421 -0.1189 -0.1315  0.1034
 1072loPI    C115789   9.594   7.721   5.429 -0.0296  0.0058  0.1449
 1072loPI    C215790   9.529   7.827   5.049 -0.0803 -0.1959  0.0957
 1072loPI    C315791   9.819   8.005   5.260 -0.0677 -0.0664 -0.0290
 1072loPI   PO415792   9.482   7.528   5.447 -0.0232 -0.6211 -0.0876
 1072loPI   GL115793   9.318   7.420   5.827  0.2319  0.2313  0.1498
 1072loPI   GL215794   9.372   7.094   5.744  0.1195 -0.0421 -0.0671
 1072loPI   C1A15795   9.120   7.483   6.271  0.2050 -0.0348  0.2787
 1072loPI   C2A15796   9.065   7.416   6.678 -0.1811 -0.1828  0.3024
 1072loPI   C3A15797   8.877   7.398   7.044  0.0382  0.2036 -0.1575
 1072loPI   C4A15798   8.548   7.427   7.336 -0.2035  0.2140 -0.2665
 1072loPI   C5A15799   8.383   7.206   7.612 -0.3196  0.0063 -0.0302
 1072loPI   C6A15800   8.421   7.116   7.976  0.0179 -0.0188  0.1171
 1072loPI   C1B15801   9.214   7.005   6.151  0.2808  0.1703  0.0064
 1072loPI   C2B15802   8.919   7.029   6.422  0.1088  0.0870 -0.0252
 1072loPI   C3B15803   8.752   6.990   6.767  0.1735 -0.6277  0.0151
 1072loPI   C4B15804   8.715   6.937   7.250  0.2544  0.1168  0.1293
 1073loPI    C115805   1.384  17.199   5.437  0.1345  0.1572 -0.2079
 1073loPI    C215806   1.660  17.200   5.147  0.1455  0.0409 -0.1981
 1073loPI    C315807   1.359  16.936   5.137  0.3588 -0.2212  0.0964
 1073loPI   PO415808   1.426  17.206   5.693 -0.1502 -0.0331  0.3414
 1073loPI   GL115809   1.259  17.308   6.105  0.0412  0.2361  0.0349
 1073loPI   GL215810   1.172  16.984   6.030  0.1754 -0.0672 -0.1303
 1073loPI   C1A15811   1.087  17.364   6.536 -0.3082 -0.3047  0.0320
 1073loPI   C2A15812   1.117  17.268   6.939  0.0006  0.0727 -0.0602
 1073loPI   C3A15813   1.059  17.140   7.373 -0.1674 -0.0572 -0.2022
 1073loPI   C4A15814   0.859  17.035   7.743 -0.3069 -0.3760 -0.1373
 1073loPI   C5A15815   0.754  17.003   8.194  0.1991 -0.1483  0.0116
 1073loPI   C6A15816   0.292  16.840   8.282  0.2181 -0.2100 -0.2680
 1073loPI   C1B15817   1.259  16.894   6.416  0.1092 -0.0389 -0.1850
 1073loPI   C2B15818   1.356  16.804   6.879  0.0041  0.1121 -0.5246
 1073loPI   C3B15819   1.411  16.803   7.360  0.0933  0.0042 -0.0788
 1073loPI   C4B15820   1.404  17.212   7.701  0.0950 -0.1672  0.1086
 1074loPI    C115821   9.062   9.013   5.506 -0.2904  0.0598  0.2448
 1074loPI    C215822   8.833   8.701   5.406 -0.0714 -0.1916  0.5088
 1074loPI    C315823   9.232   8.670   5.391 -0.0444  0.2222  0.1129
 1074loPI   PO415824   8.960   9.101   5.770 -0.0920 -0.1414  0.2442
 1074loPI   GL115825   8.994   9.170   6.206  0.1831  0.0362 -0.2740
 1074loPI   GL215826   9.099   9.340   6.409 -0.0775  0.1341  0.0971
 1074loPI   C1A15827   8.677   9.016   6.579  0.0886  0.0480  0.0634
 1074loPI   C2A15828   8.596   8.901   7.064  0.1642 -0.0166 -0.2803
 1074loPI   C3A15829   8.411   8.636   7.348  0.1127  0.2322  0.0181
 1074loPI   C4A15830   8.351   8.196   7.539  0.0923  0.0709  0.0092
 1074loPI   C5A15831   8.682   8.066   7.859 -0.0339  0.0008  0.3961
 1074loPI   C6A15832   8.987   7.776   8.154 -0.2009 -0.1216  0.1013
 1074loPI   C1B15833   9.089   9.145   6.835  0.3068  0.0979 -0.0487
 1074loPI   C2B15834   8.967   9.322   7.255  0.3286  0.1206  0.0073
 1074loPI   C3B15835   8.769   9.464   7.698 -0.1380 -0.1932  0.3250
 1074loPI   C4B15836   8.535   9.431   8.042  0.0134 -0.1122 -0.0958
 1075loPI    C115837   8.153  14.004   5.181  0.0279  0.1433  0.0196
 1075loPI    C215838   8.425  14.295   5.215 -0.1107  0.2871 -0.0870
 1075loPI    C315839   8.259  14.216   4.860  0.0549 -0.0422 -0.0958
 1075loPI   PO415840   8.062  14.086   5.511  0.1091  0.0361  0.0486
 1075loPI   GL115841   8.205  14.286   5.923  0.2617 -0.0472  0.2592
 1075loPI   GL215842   7.923  14.482   5.922 -0.2270  0.2302  0.1512
 1075loPI   C1A15843   8.175  14.121   6.315  0.3418 -0.0091  0.0173
 1075loPI   C2A15844   8.144  14.144   6.774 -0.1012  0.1283  0.1001
 1075loPI   C3A15845   8.144  14.214   7.243  0.0001  0.2738 -0.0465
 1075loPI   C4A15846   8.241  14.120   7.761  0.0571  0.3048 -0.2173
 1075loPI   C5A15847   8.599  14.172   8.000 -0.1455  0.2155 -0.0086
 1075loPI   C6A15848   8.868  14.306   8.374 -0.1136 -0.0275  0.0789
 1075loPI   C1B15849   7.722  14.356   6.302 -0.3030  0.1177  0.1464
 1075loPI   C2B15850   7.714  14.373   6.818 -0.2514  0.1552  0.2280
 1075loPI   C3B15851   7.601  14.432   7.290 -0.1403  0.0176  0.3932
 1075loPI   C4B15852   7.617  14.255   7.748 -0.0322  0.0983 -0.0459
 1076loPI    C115853   5.687  12.879   5.251  0.0551 -0.0529 -0.1047
 1076loPI    C215854   5.304  12.991   5.220 -0.0248 -0.2814  0.0362
 1076loPI    C315855   5.514  12.903   4.891 -0.0267  0.0555 -0.0590
 1076loPI   PO415856   5.795  13.024   5.404  0.0902 -0.0250  0.0038
 1076loPI   GL115857   5.748  13.197   5.877 -0.0858  0.0437  0.0142
 1076loPI   GL215858   5.997  13.061   5.824 -0.0169  0.3810  0.2525
 1076loPI   C1A15859   5.849  13.245   6.271 -0.0270 -0.2558  0.0889
 1076loPI   C2A15860   5.794  13.312   6.760  0.0428  0.1352 -0.1395
 1076loPI   C3A15861   5.674  13.261   7.244 -0.0714  0.1348  0.0423
 1076loPI   C4A15862   5.529  13.420   7.662  0.1228 -0.0121  0.0344
 1076loPI   C5A15863   5.646  13.495   8.097  0.3197 -0.1719 -0.0789
 1076loPI   C6A15864   5.433  13.703   8.447 -0.0639  0.2362 -0.2155
 1076loPI   C1B15865   6.043  12.759   6.179 -0.0131 -0.0706  0.2256
 1076loPI   C2B15866   6.083  12.544   6.591 -0.0504 -0.0277 -0.1669
 1076loPI   C3B15867   6.419  12.388   6.866  0.1504  0.3161  0.1032
 1076loPI   C4B15868   6.661  12.348   7.231 -0.2413  0.2782 -0.3280
 1077loPI    C115869  15.897   9.912   5.765 -0.1372  0.0967 -0.1224
 1077loPI    C215870  15.889   9.657   5.457 -0.0888  0.2843 -0.2809
 1077loPI    C315871  16.193   9.914   5.496  0.0929  0.0177  0.1258
 1077loPI   PO415872  15.831   9.832   5.959 -0.4071  0.1905  0.2394
 1077loPI   GL115873  16.066   9.694   6.298 -0.2209  0.0048  0.0694
 1077loPI   GL215874  15.805   9.545   6.357 -0.1090 -0.0748 -0.0031
 1077loPI   C1A15875  16.439   9.588   6.602 -0.1138  0.0440 -0.1885
 1077loPI   C2A15876  16.356   9.754   7.039 -0.1258  0.1617 -0.1322
 1077loPI   C3A15877  16.432   9.769   7.509  0.0422 -0.1053  0.0877
 1077loPI   C4A15878  16.444   9.770   7.897  0.0578 -0.3523  0.2671
 1077loPI   C5A15879  16.398   9.608   8.230  0.1085 -0.2447 -0.2079
 1077loPI   C6A15880  16.116   9.713   8.617  0.0448  0.1512  0.4371
 1077loPI   C1B15881  15.732   9.532   6.803  0.2812 -0.0640  0.3669
 1077loPI   C2B15882  15.747   9.570   7.193 -0.0624 -0.1802 -0.0587
 1077loPI   C3B15883  15.916   9.729   7.564  0.1992  0.1100 -0.2338
 1077loPI   C4B15884  15.927   9.928   7.904 -0.0343  0.0336  0.3825
 1078loPI    C115885  10.553   5.703   5.444 -0.2823  0.1953 -0.0171
 1078loPI    C215886  10.629   6.049   5.258  0.1255  0.1311  0.0209
 1078loPI    C315887  10.556   5.720   5.044  0.1130  0.1602 -0.0197
 1078loPI   PO415888  10.511   5.802   5.651  0.0191 -0.0345  0.3069
 1078loPI   GL115889  10.668   5.721   6.010  0.0359  0.1746  0.2115
 1078loPI   GL215890  10.745   5.372   6.161 -0.1164 -0.0197 -0.4871
 1078loPI   C1A15891  10.908   5.775   6.343  0.0554  0.0197 -0.0717
 1078loPI   C2A15892  10.957   5.778   6.805 -0.1674 -0.1209  0.3442
 1078loPI   C3A15893  10.988   5.743   7.223  0.0217 -0.1075 -0.3100
 1078loPI   C4A15894  11.073   5.629   7.651  0.3671 -0.1340 -0.2478
 1078loPI   C5A15895  11.171   5.933   8.011 -0.2490 -0.0871  0.2939
 1078loPI   C6A15896  11.540   6.093   8.297 -0.1854  0.1179  0.2774
 1078loPI   C1B15897  10.852   5.161   6.615  0.1248 -0.1170 -0.4059
 1078loPI   C2B15898  10.721   5.206   7.038  0.0375 -0.0941 -0.2049
 1078loPI   C3B15899  10.312   5.103   7.251  0.1439  0.1146 -0.1028
 1078loPI   C4B15900  10.076   4.972   7.545  0.1059 -0.2615  0.1320
 1079loPI    C115901   7.995  13.157   5.349  0.2047 -0.0041  0.1556
 1079loPI    C215902   8.161  13.090   4.991 -0.1292  0.0178 -0.0070
 1079loPI    C315903   8.012  13.451   5.078 -0.1357 -0.0146  0.1187
 1079loPI   PO415904   7.801  12.973   5.337  0.3502 -0.0106 -0.1288
 1079loPI   GL115905   7.560  12.970   5.668 -0.1341 -0.1450  0.1851
 1079loPI   GL215906   7.762  13.299   5.759 -0.1313  0.2126  0.1779
 1079loPI   C1A15907   7.281  12.814   5.953 -0.1112  0.1715 -0.0988
 1079loPI   C2A15908   7.082  12.725   6.335 -0.1065 -0.0795  0.0553
 1079loPI   C3A15909   7.244  12.850   6.736 -0.0590 -0.0014 -0.1783
 1079loPI   C4A15910   7.056  13.024   7.149 -0.0843  0.0365 -0.2488
 1079loPI   C5A15911   6.747  12.980   7.414 -0.2505 -0.1871 -0.2048
 1079loPI   C6A15912   6.673  12.850   7.749 -0.0983  0.0033  0.3930
 1079loPI   C1B15913   7.705  13.307   6.070  0.1070 -0.1240 -0.0488
 1079loPI   C2B15914   7.540  13.219   6.478  0.2258 -0.0731 -0.0543
 1079loPI   C3B15915   7.480  13.356   6.857  0.0735  0.0248  0.1449
 1079loPI   C4B15916   7.413  13.346   7.237  0.0605  0.0717  0.0258
 1080POPI    C115917   5.135   8.986   5.589  0.0181 -0.0070  0.0849
 1080POPI    C215918   4.886   8.877   5.296  0.1534  0.0674 -0.0594
 1080POPI    C315919   5.240   9.040   5.207  0.2678 -0.0656  0.1431
 1080POPI   PO415920   5.135   8.764   5.724 -0.1597 -0.1851 -0.0618
 1080POPI   GL115921   4.896   8.486   6.036  0.1250 -0.0817  0.1572
 1080POPI   GL215922   4.772   8.225   6.117  0.2026  0.2597 -0.2496
 1080POPI   C1A15923   4.763   8.670   6.413 -0.0450  0.0577 -0.0399
 1080POPI   D2A15924   4.908   8.544   6.868  0.2004 -0.2624 -0.1595
 1080POPI   C3A15925   4.910   8.538   7.366  0.0366  0.2435  0.0175
 1080POPI   C4A15926   4.877   8.471   7.761  0.1215 -0.0762 -0.1743
 1080POPI   C1B15927   4.757   8.140   6.534  0.1937  0.3929 -0.3232
 1080POPI   C2B15928   4.914   8.048   6.945 -0.0923 -0.0316 -0.1845
 1080POPI   C3B15929   4.922   8.056   7.352 -0.4269 -0.0487 -0.0267
 1080POPI   C4B15930   4.729   7.980   7.725  0.2220  0.0202  0.3277
 1081POPI    C115931  11.494   5.032   5.239 -0.0316 -0.0864 -0.2486
 1081POPI    C215932  11.710   4.891   4.933  0.0616 -0.3132 -0.0812
 1081POPI    C315933  11.337   5.023   4.871  0.0556 -0.4203 -0.2812
 1081POPI   PO415934  11.666   4.962   5.483 -0.0422  0.0030 -0.0231
 1081POPI   GL115935  11.593   5.052   5.909  0.1610  0.0596 -0.0483
 1081POPI   GL215936  11.722   5.281   5.937 -0.1502  0.2655 -0.0163
 1081POPI   C1A15937  11.921   4.828   6.275  0.1047 -0.1790 -0.0940
 1081POPI   D2A15938  12.148   4.926   6.614 -0.2476  0.0107 -0.0009
 1081POPI   C3A15939  11.990   5.112   6.919 -0.1579  0.1435  0.0715
 1081POPI   C4A15940  11.956   5.288   7.392  0.0916  0.1750 -0.0178
 1081POPI   C1B15941  11.807   5.309   6.368  0.0279  0.1632 -0.0587
 1081POPI   C2B15942  11.856   5.506   6.637  0.1429 -0.1141 -0.0513
 1081POPI   C3B15943  11.792   5.616   7.089 -0.0594 -0.1481 -0.0543
 1081POPI   C4B15944  11.862   5.827   7.468  0.2066  0.0136 -0.0790
 1082POPI    C115945  10.371   8.443   5.658 -0.0882 -0.0461  0.1038
 1082POPI    C215946  10.110   8.461   5.356  0.0469  0.0402 -0.0086
 1082POPI    C315947  10.456   8.660   5.333  0.2620 -0.3252  0.0040
 1082POPI   PO415948  10.187   8.473   5.880 -0.1246 -0.1213 -0.0691
 1082POPI   GL115949   9.905   8.361   6.108 -0.0793 -0.1695 -0.0076
 1082POPI   GL215950   9.679   8.535   6.216  0.0110 -0.0577  0.0994
 1082POPI   C1A15951   9.885   8.194   6.575 -0.1701  0.0707  0.0336
 1082POPI   D2A15952   9.931   7.978   6.930  0.0904 -0.0464  0.1199
 1082POPI   C3A15953   9.737   7.964   7.275 -0.0063 -0.0917 -0.2417
 1082POPI   C4A15954   9.748   7.857   7.639 -0.1517  0.2686  0.1787
 1082POPI   C1B15955   9.726   8.695   6.585  0.0992 -0.1332 -0.0184
 1082POPI   C2B15956   9.644   8.850   7.004  0.1011 -0.1564  0.2122
 1082POPI   C3B15957   9.786   8.898   7.519 -0.2663  0.1220 -0.0549
 1082POPI   C4B15958   9.658   9.069   7.889 -0.1461 -0.0446 -0.0086
 1083POPI    C115959  11.150   0.756   5.076  0.1115  0.1559  0.0072
 1083POPI    C215960  11.437   0.580   4.861  0.0298 -0.1280  0.1253
 1083POPI    C315961  11.104   0.378   4.952 -0.1749  0.1723  0.0561
 1083POPI   PO415962  11.252   0.886   5.267 -0.4482 -0.1995 -0.0719
 1083POPI   GL115963  10.959   1.076   5.614  0.0412 -0.1838 -0.1543
 1083POPI   GL215964  10.652   1.237   5.715  0.3014  0.1193  0.1471
 1083POPI   C1A15965  11.027   1.006   6.101  0.0931 -0.0592  0.1066
 1083POPI   D2A15966  10.968   1.092   6.452  0.2212  0.2942 -0.1183
 1083POPI   C3A15967  10.895   1.148   6.819  0.1730  0.1924  0.0436
 1083POPI   C4A15968  10.864   0.847   7.232  0.0251 -0.0100  0.0727
 1083POPI   C1B15969  10.629   1.325   6.124  0.0422 -0.0141 -0.0116
 1083POPI   C2B15970  10.698   1.544   6.494  0.2743  0.0089  0.0140
 1083POPI   C3B15971  10.698   1.602   6.902 -0.0711  0.1879 -0.1942
 1083POPI   C4B15972  10.541   1.747   7.188  0.0087  0.1537  0.1513
 1084POPI    C115973   4.705   6.267   5.475 -0.1991 -0.0064  0.0846
 1084POPI    C215974   4.507   5.992   5.262  0.1732  0.1097 -0.4305
 1084POPI    C315975   4.312   6.308   5.411 -0.1836 -0.2252 -0.1701
 1084POPI   PO415976   4.801   6.181   5.725  0.0930 -0.3796 -0.1702
 1084POPI   GL115977   4.959   6.471   6.037 -0.3151 -0.0437 -0.2557
 1084POPI   GL215978   5.024   6.739   6.093  0.2658 -0.0166 -0.1148
 1084POPI   C1A15979   5.386   6.262   6.178  0.0028 -0.5583 -0.0028
 1084POPI   D2A15980   5.861   6.060   6.230  0.1548 -0.2523 -0.0892
 1084POPI   C3A15981   6.068   5.760   6.515  0.2183  0.1179  0.3502
 1084POPI   C4A15982   6.181   5.586   6.943 -0.1092 -0.1673  0.1540
 1084POPI   C1B15983   5.079   6.573   6.506  0.0432  0.0052  0.0134
 1084POPI   C2B15984   5.410   6.263   6.779  0.1576  0.0041  0.0561
 1084POPI   C3B15985   5.770   5.996   6.998  0.0161  0.1026 -0.2488
 1084POPI   C4B15986   5.927   5.753   7.411  0.0293 -0.1124  0.1555
 1085POPI    C115987   9.101  14.058   5.748  0.2638 -0.2547 -0.1466
 1085POPI    C215988   9.366  14.156   5.465  0.1631 -0.1265 -0.1972
 1085POPI    C315989   8.974  14.172   5.386  0.1298  0.0636 -0.0033
 1085POPI   PO415990   9.060  14.251   5.937  0.2271  0.0348  0.0618
 1085POPI   GL115991   9.167  14.394   6.272  0.0460 -0.0158 -0.2615
 1085POPI   GL215992   9.042  14.717   6.379 -0.5025 -0.4900 -0.3049
 1085POPI   C1A15993   9.205  14.237   6.619  0.2385 -0.0183  0.0041
 1085POPI   D2A15994   9.282  14.007   7.068 -0.1323  0.1600  0.1157
 1085POPI   C3A15995   9.312  14.161   7.450 -0.1344 -0.0493 -0.0143
 1085POPI   C4A15996   9.527  14.380   7.812 -0.1066 -0.1754 -0.2639
 1085POPI   C1B15997   9.064  14.639   6.815 -0.1241 -0.4260 -0.0024
 1085POPI   C2B15998   9.135  14.479   7.093 -0.1325  0.1598 -0.0139
 1085POPI   C3B15999   8.993  14.595   7.442 -0.1190 -0.1152 -0.0416
 1085POPI   C4B16000   9.068  14.538   7.842  0.2019  0.0374  0.0139
 1086POPI    C116001   9.083   7.829   5.392 -0.2151 -0.0848  0.0358
 1086POPI    C216002   8.944   8.169   5.234 -0.0713 -0.0573 -0.0326
 1086POPI    C316003   9.319   8.151   5.373 -0.0663 -0.1981 -0.0629
 1086POPI   PO416004   8.913   7.705   5.639  0.1009  0.4129  0.0605
 1086POPI   GL116005   8.695   7.723   6.026  0.2612  0.0740  0.0825
 1086POPI   GL216006   8.774   7.974   6.266 -0.2993 -0.0851 -0.0474
 1086POPI   C1A16007   8.594   7.421   6.410  0.0833 -0.2650  0.2269
 1086POPI   D2A16008   8.447   7.431   6.803  0.1967 -0.1508 -0.0107
 1086POPI   C3A16009   8.153   7.626   6.934  0.0556 -0.3415  0.0269
 1086POPI   C4A16010   8.159   7.765   7.320 -0.0423 -0.5206  0.1329
 1086POPI   C1B16011   8.995   7.896   6.659  0.0026 -0.0484 -0.0169
 1086POPI   C2B16012   9.278   8.002   6.990  0.0137 -0.0579 -0.2287
 1086POPI   C3B16013   9.260   8.033   7.463 -0.0661  0.0493 -0.1962
 1086POPI   C4B16014   9.333   7.686   7.748  0.1964  0.1149 -0.1948
 1087POPI    C116015   7.411  17.085   5.255  0.1280  0.2257  0.1050
 1087POPI    C216016   7.773  16.989   5.112  0.1135  0.3283 -0.0025
 1087POPI    C316017   7.464  17.032   4.862 -0.0027  0.1170  0.1016
 1087POPI   PO416018   7.395  17.249   5.439 -0.2184 -0.1510 -0.2913
 1087POPI   GL116019   7.541  17.379   5.740 -0.0096  0.3258 -0.0040
 1087POPI   GL216020   7.817  17.275   5.890  0.1832 -0.0858 -0.1317
 1087POPI   C1A16021   7.268  17.363   6.089  0.1574  0.2437  0.0025
 1087POPI   D2A16022   7.056  17.047   6.212 -0.1741 -0.2496  0.3039
 1087POPI   C3A16023   7.102  16.894   6.624  0.3003  0.2578 -0.0793
 1087POPI   C4A16024   6.911  16.839   6.983 -0.0821  0.4638  0.0216
 1087POPI   C1B16025   7.862  17.435   6.203  0.0712  0.1428 -0.2470
 1087POPI   C2B16026   7.892  17.445   6.620  0.2207 -0.1569  0.1052
 1087POPI   C3B16027   7.780  17.452   6.973  0.0525  0.0805 -0.1664
 1087POPI   C4B16028   7.548  17.452   7.290  0.0905 -0.1601 -0.0786
 1088POPI    C116029   5.191  11.451   5.412 -0.1665 -0.0612  0.2134
 1088POPI    C216030   5.136  11.060   5.472  0.1363 -0.1120  0.1785
 1088POPI    C316031   5.501  11.218   5.508  0.0840  0.1001 -0.1763
 1088POPI   PO416032   5.002  11.594   5.529  0.1793 -0.3739  0.3040
 1088POPI   GL116033   4.818  11.469   5.839 -0.1448  0.1561  0.0390
 1088POPI   GL216034   4.800  11.226   5.906 -0.2162 -0.0906 -0.0899
 1088POPI   C1A16035   4.920  11.574   6.206  0.2293 -0.0951  0.2576
 1088POPI   D2A16036   4.836  11.525   6.693  0.1810  0.0209  0.0830
 1088POPI   C3A16037   4.790  11.374   7.108  0.0843  0.1647 -0.0388
 1088POPI   C4A16038   5.150  11.165   7.228  0.2239  0.3489 -0.2936
 1088POPI   C1B16039   4.662  11.138   6.304 -0.1148 -0.0735  0.1585
 1088POPI   C2B16040   4.778  11.053   6.683  0.0097 -0.2176 -0.3868
 1088POPI   C3B16041   4.813  10.828   7.069  0.0023 -0.0848  0.1713
 1088POPI   C4B16042   5.111  10.510   7.375 -0.1748 -0.3198 -0.0697
 1089POPI    C116043   6.466   1.372   5.215  0.3762 -0.0256 -0.1001
 1089POPI    C216044   6.530   1.207   5.574  0.1173  0.1409  0.0251
 1089POPI    C316045   6.832   1.246   5.316  0.2841 -0.0737  0.1845
 1089POPI   PO416046   6.102   1.327   5.348  0.0047 -0.0930 -0.0152
 1089POPI   GL116047   6.031   1.307   5.833  0.0592  0.1023  0.1497
 1089POPI   GL216048   5.980   1.514   6.068 -0.2113 -0.0915 -0.3878
 1089POPI   C1A16049   6.154   1.050   6.219  0.0225 -0.2255 -0.2278
 1089POPI   D2A16050   6.224   1.001   6.603 -0.0077  0.3192 -0.1669
 1089POPI   C3A16051   6.112   0.980   7.016  0.1119 -0.0559 -0.1353
 1089POPI   C4A16052   6.033   1.019   7.475  0.2606  0.0117 -0.1514
 1089POPI   C1B16053   5.932   1.440   6.553  0.2545 -0.1610  0.1274
 1089POPI   C2B16054   5.883   1.502   7.042 -0.0278 -0.3104 -0.0578
 1089POPI   C3B16055   5.606   1.436   7.378  0.0508  0.0380  0.1135
 1089POPI   C4B16056   5.561   1.059   7.738 -0.4671  0.0150 -0.0114
 1090POPI    C116057  10.020  15.087   5.392  0.0199  0.1436  0.0440
 1090POPI    C216058  10.235  15.371   5.209  0.0550 -0.0371 -0.2000
 1090POPI    C316059   9.877  15.267   5.065 -0.0833  0.0791  0.0533
 1090POPI   PO416060  10.133  15.102   5.605  0.3231  0.1873  0.3238
 1090POPI   GL116061  10.064  15.201   5.978  0.0680  0.0620  0.0709
 1090POPI   GL216062   9.901  15.340   6.063  0.1936 -0.3820 -0.0265
 1090POPI   C1A16063  10.264  15.051   6.339  0.0357  0.2807 -0.0590
 1090POPI   D2A16064  10.479  15.153   6.629  0.3040 -0.1470  0.0029
 1090POPI   C3A16065  10.367  15.342   6.969  0.1205  0.0074  0.1189
 1090POPI   C4A16066  10.095  15.532   7.284  0.0228  0.0225 -0.0156
 1090POPI   C1B16067   9.586  15.611   6.383 -0.0897  0.0703 -0.2346
 1090POPI   C2B16068   9.270  15.709   6.800 -0.2263  0.1261  0.2860
 1090POPI   C3B16069   9.339  15.747   7.169 -0.0805 -0.1048 -0.0321
 1090POPI   C4B16070   9.275  15.773   7.697 -0.1608 -0.2453  0.0887
 1091POPI    C116071  16.061   3.326   5.584  0.1138  0.0916 -0.2330
 1091POPI    C216072  15.871   3.543   5.307 -0.2148  0.1215  0.0094
 1091POPI    C316073  15.791   3.153   5.346 -0.0405  0.0787 -0.0515
 1091POPI   PO416074  16.061   3.537   5.794 -0.2894 -0.0608  0.2054
 1091POPI   GL116075  16.001   3.819   6.215  0.0899  0.0634 -0.1662
 1091POPI   GL216076  16.256   3.633   6.230 -0.0240 -0.3199  0.0464
 1091POPI   C1A16077  15.703   3.728   6.588 -0.0466 -0.0714 -0.0992
 1091POPI   D2A16078  15.528   3.571   7.027 -0.3045 -0.1155 -0.0200
 1091POPI   C3A16079  15.488   3.556   7.455 -0.0534  0.0580 -0.2363
 1091POPI   C4A16080  15.715   3.405   7.736 -0.0161  0.1035 -0.0606
 1091POPI   C1B16081  15.985   3.280   6.564  0.2002  0.1291  0.0038
 1091POPI   C2B16082  16.117   2.913   6.810  0.2743 -0.0856 -0.0125
 1091POPI   C3B16083  16.293   2.729   7.170  0.3913  0.1384 -0.0374
 1091POPI   C4B16084  16.355   2.590   7.465  0.0633  0.1270 -0.1410
 1092POPI    C116085   0.005   3.989   5.959 -0.2666  0.0920 -0.0987
 1092POPI    C216086   0.387   3.872   5.941 -0.3102 -0.1007  0.1680
 1092POPI    C316087   0.202   4.004   5.612 -0.0658 -0.1696  0.0007
 1092POPI   PO416088   0.015   4.172   6.209  0.0504  0.1668 -0.2348
 1092POPI   GL116089   0.172   4.339   6.580  0.0146  0.1614 -0.0625
 1092POPI   GL216090   0.190   4.625   6.712 -0.2279 -0.1473  0.0826
 1092POPI   C1A16091  -0.138   4.203   6.872 -0.0665 -0.0238 -0.0145
 1092POPI   D2A16092   0.021   4.140   7.332  0.0565 -0.1820 -0.1769
 1092POPI   C3A16093   0.232   3.946   7.675  0.2271 -0.0844  0.1695
 1092POPI   C4A16094   0.269   3.798   8.052  0.3649  0.0699  0.0414
 1092POPI   C1B16095   0.083   4.632   7.126 -0.1799 -0.0212  0.1303
 1092POPI   C2B16096   0.238   4.744   7.602 -0.0354  0.1180  0.1640
 1092POPI   C3B16097   0.387   4.931   7.950 -0.2074 -0.0874 -0.0469
 1092POPI   C4B16098   0.384   5.237   8.106  0.1539  0.0246  0.0376
 1093POPI    C116099  10.090  13.796   5.642 -0.1266  0.2478 -0.0453
 1093POPI    C216100   9.737  13.812   5.831 -0.2617  0.0968 -0.2798
 1093POPI    C316101   9.753  13.847   5.433 -0.0040  0.1668 -0.2656
 1093POPI   PO416102  10.190  13.515   5.878 -0.1221 -0.0073  0.2412
 1093POPI   GL116103   9.972  13.396   6.219  0.0310 -0.1017 -0.0354
 1093POPI   GL216104   9.705  13.288   6.159 -0.0301  0.7637 -0.1736
 1093POPI   C1A16105  10.076  13.536   6.653 -0.0605 -0.2053  0.1410
 1093POPI   D2A16106  10.007  13.390   7.055  0.0655 -0.1959  0.0148
 1093POPI   C3A16107   9.896  13.435   7.542 -0.1289 -0.2905 -0.3182
 1093POPI   C4A16108   9.600  13.386   7.913 -0.0657  0.0085 -0.2811
 1093POPI   C1B16109   9.674  13.219   6.696  0.0754  0.1983 -0.3119
 1093POPI   C2B16110   9.566  13.200   7.137 -0.3910 -0.1208 -0.1362
 1093POPI   C3B16111   9.223  13.296   7.379 -0.0196  0.2265 -0.1376
 1093POPI   C4B16112   9.072  13.250   7.720  0.0114  0.0449 -0.1485
 1094POPI    C116113   7.659  11.475   5.555  0.2231 -0.0292  0.2630
 1094POPI    C216114   7.889  11.276   5.295  0.0835  0.2555 -0.0872
 1094POPI    C316115   7.499  11.190   5.325  0.1977 -0.1398  0.4157
 1094POPI   PO416116   7.832  11.522   5.705 -0.3583  0.2032 -0.3020
 1094POPI   GL116117   8.183  11.294   6.035  0.0598 -0.0217  0.0619
 1094POPI   GL216118   8.510  11.291   6.090  0.1807  0.0972  0.1312
 1094POPI   C1A16119   7.786  11.171   6.371  0.0675  0.2396 -0.1050
 1094POPI   D2A16120   7.456  11.277   6.740  0.0811  0.2490 -0.1075
 1094POPI   C3A16121   7.549  11.223   7.130  0.3351  0.1702 -0.3097
 1094POPI   C4A16122   7.409  11.295   7.494 -0.1169 -0.1922 -0.1338
 1094POPI   C1B16123   8.377  11.275   6.549  0.0578  0.1772  0.0629
 1094POPI   C2B16124   8.089  11.164   6.880  0.2297  0.2496  0.0819
 1094POPI   C3B16125   8.104  11.131   7.313 -0.5349 -0.2624  0.0414
 1094POPI   C4B16126   8.101  11.182   7.729 -0.1087 -0.0709  0.0042
 1095POPI    C116127   5.650  15.135   5.266  0.1863 -0.0717 -0.1533
 1095POPI    C216128   5.685  14.812   5.499  0.0792  0.0186 -0.0101
 1095POPI    C316129   5.406  14.822   5.213 -0.0711  0.0740  0.1368
 1095POPI   PO416130   5.586  15.330   5.474 -0.1875  0.3120 -0.0117
 1095POPI   GL116131   5.806  15.646   5.732 -0.0795 -0.0064 -0.1397
 1095POPI   GL216132   5.947  15.948   5.670  0.0683 -0.0943 -0.0409
 1095POPI   C1A16133   5.584  15.439   6.101  0.0721  0.2612  0.2023
 1095POPI   D2A16134   5.076  15.406   6.135 -0.0298  0.0061  0.2038
 1095POPI   C3A16135   5.105  15.451   6.556 -0.0383  0.0483  0.2072
 1095POPI   C4A16136   5.125  15.322   6.977 -0.0575 -0.1777 -0.2989
 1095POPI   C1B16137   5.960  16.170   5.943 -0.0004  0.2384  0.1408
 1095POPI   C2B16138   5.885  16.461   6.184  0.1202  0.1413  0.0568
 1095POPI   C3B16139   5.684  16.700   6.493 -0.1460 -0.0539 -0.0484
 1095POPI   C4B16140   5.358  16.830   6.650  0.1703 -0.0543  0.1670
 1096POPI    C116141  11.365   0.200   5.343 -0.0521 -0.0370  0.0174
 1096POPI    C216142  11.172  -0.076   5.127 -0.1886  0.2086 -0.1798
 1096POPI    C316143  11.507   0.091   4.985 -0.0200  0.0358  0.0076
 1096POPI   PO416144  11.170   0.387   5.431 -0.0812  0.1926  0.0770
 1096POPI   GL116145  11.092   0.548   5.812 -0.2090  0.0683 -0.0212
 1096POPI   GL216146  11.401   0.721   5.808  0.4416  0.0134 -0.0069
 1096POPI   C1A16147  10.849   0.359   6.195  0.1780 -0.1874  0.2004
 1096POPI   D2A16148  10.913   0.251   6.616  0.0956 -0.0454  0.0117
 1096POPI   C3A16149  11.012   0.287   7.040 -0.3282  0.3837 -0.3618
 1096POPI   C4A16150  10.961   0.139   7.375  0.0438 -0.2474 -0.0056
 1096POPI   C1B16151  11.363   0.610   6.292  0.0218  0.1724 -0.0620
 1096POPI   C2B16152  11.242   0.753   6.760  0.0278  0.0610 -0.0546
 1096POPI   C3B16153  11.327   0.611   7.177  0.1409 -0.0195 -0.1211
 1096POPI   C4B16154  11.093   0.544   7.548 -0.1404  0.0806  0.1604
 1097POPI    C116155   0.864   4.168   5.924  0.1081 -0.1003 -0.1100
 1097POPI    C216156   0.741   4.042   5.564  0.1618  0.1109 -0.2035
 1097POPI    C316157   0.631   4.403   5.698  0.1848  0.0541 -0.0297
 1097POPI   PO416158   0.858   3.920   6.106  0.0901  0.2108 -0.0745
 1097POPI   GL116159   0.941   3.606   6.385 -0.0063 -0.0296 -0.2503
 1097POPI   GL216160   1.158   3.811   6.501  0.0466  0.0573 -0.0201
 1097POPI   C1A16161   1.047   3.318   6.677  0.0423  0.0134  0.0148
 1097POPI   D2A16162   0.831   3.131   6.981  0.1159  0.0803 -0.0173
 1097POPI   C3A16163   1.016   2.969   7.447 -0.2129  0.1459 -0.1291
 1097POPI   C4A16164   1.024   2.774   7.846  0.2075 -0.0988 -0.4253
 1097POPI   C1B16165   1.556   4.074   6.722  0.3721  0.1347 -0.0171
 1097POPI   C2B16166   1.616   3.960   7.120  0.1403 -0.2967  0.0960
 1097POPI   C3B16167   1.732   4.057   7.647  0.0310  0.4125  0.3575
 1097POPI   C4B16168   1.890   4.099   8.144  0.3607  0.4093 -0.2323
 1098POPI    C116169   7.618   5.905   5.185 -0.0686  0.1088 -0.0184
 1098POPI    C216170   7.562   5.592   4.943  0.0829  0.2346 -0.2193
 1098POPI    C316171   7.354   5.622   5.283  0.0888 -0.0980 -0.1836
 1098POPI   PO416172   7.908   5.902   5.212 -0.0255 -0.0128  0.0983
 1098POPI   GL116173   7.987   6.051   5.599  0.1891 -0.1612 -0.3011
 1098POPI   GL216174   7.783   5.817   5.665  0.1704 -0.1375 -0.1437
 1098POPI   C1A16175   7.884   6.130   6.055  0.3664  0.0770 -0.1714
 1098POPI   D2A16176   7.809   6.183   6.576 -0.2392  0.3027  0.3354
 1098POPI   C3A16177   7.517   6.479   6.763  0.2414 -0.1007  0.0430
 1098POPI   C4A16178   7.378   6.842   6.949 -0.0762  0.2401  0.4127
 1098POPI   C1B16179   7.565   5.585   5.899 -0.1071 -0.1712 -0.1678
 1098POPI   C2B16180   7.574   5.489   6.281 -0.0979 -0.0459 -0.0591
 1098POPI   C3B16181   7.826   5.204   6.636 -0.3066  0.2525  0.1534
 1098POPI   C4B16182   8.000   5.089   7.037  0.2650 -0.2761 -0.3596
 1099POPI    C116183   6.149  10.246   5.289 -0.2835 -0.0772  0.0211
 1099POPI    C216184   6.113   9.905   5.494 -0.2082 -0.1081 -0.0166
 1099POPI    C316185   6.301   9.907   5.142  0.3148  0.0774  0.2533
 1099POPI   PO416186   6.150  10.426   5.509 -0.0888 -0.0661  0.1497
 1099POPI   GL116187   6.174  10.481   5.854 -0.0177 -0.3952  0.0776
 1099POPI   GL216188   6.028  10.129   5.937 -0.0088  0.0867  0.0126
 1099POPI   C1A16189   6.078  10.868   6.173  0.0557 -0.0069  0.3270
 1099POPI   D2A16190   5.905  11.207   6.328  0.1063 -0.1647 -0.0308
 1099POPI   C3A16191   5.997  11.256   6.708  0.0336  0.2573  0.1807
 1099POPI   C4A16192   6.154  11.598   7.027 -0.2794  0.1428 -0.2287
 1099POPI   C1B16193   6.313  10.041   6.180 -0.0954 -0.1058 -0.0455
 1099POPI   C2B16194   6.530  10.140   6.465 -0.3001 -0.0250 -0.1066
 1099POPI   C3B16195   6.741  10.254   6.718 -0.2336  0.2941 -0.0709
 1099POPI   C4B16196   7.078  10.357   6.901  0.0045 -0.0459  0.2103
 1100POPI    C116197   2.213  10.755   5.917  0.0529 -0.2941  0.0577
 1100POPI    C216198   2.225  11.018   5.616  0.0852 -0.1500  0.1835
 1100POPI    C316199   1.991  10.695   5.590  0.0939 -0.1428  0.0012
 1100POPI   PO416200   2.182  10.927   6.129 -0.1525 -0.2741 -0.1024
 1100POPI   GL116201   1.988  10.894   6.511  0.1254 -0.0075  0.2431
 1100POPI   GL216202   1.644  10.730   6.427  0.1912  0.0986  0.0150
 1100POPI   C1A16203   1.852  10.985   6.911 -0.0877 -0.0690  0.1380
 1100POPI   D2A16204   1.778  11.104   7.451  0.0213 -0.0037  0.1823
 1100POPI   C3A16205   1.983  11.087   7.805  0.1237  0.2124  0.1985
 1100POPI   C4A16206   1.767  11.333   8.213 -0.1485 -0.0641  0.1544
 1100POPI   C1B16207   1.445  10.646   6.882 -0.0355 -0.0554 -0.0941
 1100POPI   C2B16208   1.353  10.831   7.254  0.0475 -0.3783  0.3534
 1100POPI   C3B16209   1.254  10.858   7.655 -0.1958 -0.1242  0.0147
 1100POPI   C4B16210   1.543  10.844   7.870 -0.0072  0.2655 -0.0493
 1101POPI    C116211   2.974  17.602   5.289 -0.2206  0.0033  0.1327
 1101POPI    C216212   2.780  17.724   4.961 -0.0971  0.2866  0.1614
 1101POPI    C316213   3.093  17.932   5.096 -0.0416  0.0763  0.3635
 1101POPI   PO416214   2.786  17.522   5.483 -0.0752  0.4077 -0.0471
 1101POPI   GL116215   2.637  17.508   5.840  0.0488 -0.3000 -0.0990
 1101POPI   GL216216   2.512  17.683   5.901  0.1645 -0.1146  0.1564
 1101POPI   C1A16217   3.001  17.497   6.109 -0.3289 -0.2249 -0.1689
 1101POPI   D2A16218   3.169  17.178   6.423 -0.1615  0.0830  0.2047
 1101POPI   C3A16219   3.158  17.213   6.910 -0.1526  0.2313  0.3586
 1101POPI   C4A16220   3.209  17.270   7.301  0.1138  0.0414 -0.0456
 1101POPI   C1B16221   2.504  17.850   6.339  0.0130 -0.0699 -0.1413
 1101POPI   C2B16222   2.521  17.802   6.815 -0.0837  0.0049  0.2146
 1101POPI   C3B16223   2.521  17.643   7.287 -0.2057  0.0870 -0.0328
 1101POPI   C4B16224   2.633  17.645   7.672  0.1822 -0.1339 -0.0007
 1102POPI    C116225  14.454  14.357   5.876  0.2023  0.0369 -0.2077
 1102POPI    C216226  14.113  14.375   5.668 -0.1810 -0.1544  0.3763
 1102POPI    C316227  14.359  14.064   5.621  0.0494  0.1024 -0.2276
 1102POPI   PO416228  14.321  14.449   6.154  0.0429  0.1496  0.4378
 1102POPI   GL116229  14.522  14.592   6.426  0.2326  0.0517  0.1401
 1102POPI   GL216230  14.722  14.427   6.587  0.1730 -0.0249  0.1032
 1102POPI   C1A16231  14.552  14.964   6.554  0.0392 -0.0562  0.0015
 1102POPI   D2A16232  14.487  15.143   7.025  0.1759 -0.0999  0.2737
 1102POPI   C3A16233  14.616  15.058   7.437 -0.3394 -0.2667  0.4433
 1102POPI   C4A16234  14.562  15.268   7.789 -0.1167 -0.0923 -0.0345
 1102POPI   C1B16235  14.722  14.150   6.874  0.0806  0.0667  0.0169
 1102POPI   C2B16236  14.804  13.909   7.166  0.3143  0.1802 -0.1086
 1102POPI   C3B16237  15.081  13.917   7.427 -0.3188  0.1843  0.1566
 1102POPI   C4B16238  15.137  14.244   7.722 -0.1093  0.1744 -0.0718
 1103POPI    C116239   5.518   9.803   5.351  0.2689 -0.0698  0.4267
 1103POPI    C216240   5.750   9.587   5.107  0.0363 -0.1218  0.2478
 1103POPI    C316241   5.757   9.987   5.088 -0.1536 -0.1277 -0.0138
 1103POPI   PO416242   5.605   9.807   5.557  0.1536  0.0560  0.1377
 1103POPI   GL116243   5.835   9.702   5.892  0.1926  0.1506  0.0201
 1103POPI   GL216244   5.590   9.532   5.980 -0.2430  0.3620 -0.2064
 1103POPI   C1A16245   5.817   9.864   6.339 -0.0619  0.1700  0.1373
 1103POPI   D2A16246   5.749   9.987   6.777  0.1651 -0.1929  0.1279
 1103POPI   C3A16247   5.492   9.840   7.121 -0.1622 -0.0481 -0.0863
 1103POPI   C4A16248   5.540   9.798   7.636  0.1471  0.0071 -0.0670
 1103POPI   C1B16249   5.654   9.293   6.361 -0.1348  0.0132  0.3419
 1103POPI   C2B16250   5.577   9.454   6.763  0.0433 -0.1255  0.1376
 1103POPI   C3B16251   5.126   9.457   6.911 -0.3199  0.1860 -0.2193
 1103POPI   C4B16252   4.580   9.477   6.837  0.1583  0.0223  0.2901
 1104POPI    C116253   3.243  17.720   5.660 -0.1064  0.1281 -0.1436
 1104POPI    C216254   3.638  17.659   5.643 -0.1157  0.0127  0.0296
 1104POPI    C316255   3.390  17.349   5.687 -0.2368  0.0689 -0.2365
 1104POPI   PO416256   3.231  17.980   5.563 -0.2936 -0.0170 -0.0927
 1104POPI   GL116257   3.535  18.217   5.735  0.0089  0.3281 -0.0014
 1104POPI   GL216258   3.800  18.142   5.604  0.0869 -0.0163  0.2596
 1104POPI   C1A16259   3.460  18.192   6.212 -0.1708  0.0567 -0.0296
 1104POPI   D2A16260   3.289  18.365   6.530 -0.0935 -0.4814 -0.1790
 1104POPI   C3A16261   3.209  18.206   6.967 -0.0903 -0.0739  0.2247
 1104POPI   C4A16262   3.263  18.240   7.413 -0.1880  0.4670 -0.1756
 1104POPI   C1B16263   3.872  18.015   6.011 -0.0366  0.1120 -0.1203
 1104POPI   C2B16264   3.894  18.125   6.363 -0.0978 -0.2577  0.2503
 1104POPI   C3B16265   4.005  18.120   6.845  0.3268 -0.1040  0.1395
 1104POPI   C4B16266   4.029  17.979   7.247 -0.0485 -0.1515 -0.1797
 1105POPI    C116267   1.080  12.388   5.444 -0.1629 -0.0522 -0.0115
 1105POPI    C216268   1.137  12.700   5.200  0.1964 -0.0593  0.0574
 1105POPI    C316269   1.095  12.333   5.048  0.2505 -0.0411 -0.0020
 1105POPI   PO416270   1.369  12.345   5.700 -0.0882 -0.3151  0.0812
 1105POPI   GL116271   1.354  12.167   6.145 -0.1628  0.2789  0.2264
 1105POPI   GL216272   1.171  12.439   6.142 -0.2445 -0.0460  0.2808
 1105POPI   C1A16273   1.626  12.240   6.457 -0.2198 -0.0160  0.2396
 1105POPI   D2A16274   1.624  12.051   6.766  0.0693  0.0080 -0.1674
 1105POPI   C3A16275   2.021  11.979   7.083 -0.0306  0.1418 -0.0407
 1105POPI   C4A16276   2.013  11.866   7.550  0.1245 -0.1406  0.2294
 1105POPI   C1B16277   1.124  12.356   6.553  0.2491 -0.2011 -0.0907
 1105POPI   C2B16278   1.421  12.538   6.831  0.0956  0.0750 -0.1980
 1105POPI   C3B16279   1.422  12.603   7.314  0.0604  0.2629  0.1694
 1105POPI   C4B16280   1.352  12.806   7.794 -0.0826  0.0577 -0.0919
 1106POPI    C116281   4.442   4.850   5.349  0.0289 -0.1372 -0.1883
 1106POPI    C216282   4.805   4.799   5.190  0.1825 -0.0587  0.1289
 1106POPI    C316283   4.557   5.073   5.038  0.2630 -0.0973 -0.0753
 1106POPI   PO416284   4.430   4.898   5.611  0.0222  0.0850  0.3928
 1106POPI   GL116285   4.478   5.235   5.957 -0.0901 -0.1570  0.3208
 1106POPI   GL216286   4.745   5.098   5.978 -0.0660 -0.0873 -0.3562
 1106POPI   C1A16287   4.410   5.312   6.428  0.0746 -0.0028 -0.0859
 1106POPI   D2A16288   4.325   5.316   6.866  0.0319 -0.1003 -0.0497
 1106POPI   C3A16289   4.423   5.213   7.282  0.0490 -0.2328 -0.1572
 1106POPI   C4A16290   4.581   5.034   7.603  0.0767  0.1405 -0.1364
 1106POPI   C1B16291   4.800   5.030   6.343 -0.1733 -0.3072  0.0794
 1106POPI   C2B16292   4.803   5.017   6.835  0.1841 -0.2902  0.5004
 1106POPI   C3B16293   4.732   4.672   7.220 -0.0237 -0.0871  0.0226
 1106POPI   C4B16294   4.648   4.221   7.185  0.1240  0.0126  0.2965
 1107POPI    C116295   4.484  10.071   5.027  0.0045  0.1685  0.1017
 1107POPI    C216296   4.124  10.232   4.963 -0.1225 -0.0491  0.2545
 1107POPI    C316297   4.154   9.861   5.108  0.1654 -0.1177  0.0292
 1107POPI   PO416298   4.690  10.216   5.217 -0.0114  0.1790 -0.0255
 1107POPI   GL116299   4.812  10.124   5.727  0.1852 -0.0579  0.3233
 1107POPI   GL216300   4.554  10.372   5.807 -0.1982  0.2718  0.2199
 1107POPI   C1A16301   5.019   9.906   6.140  0.2934  0.0603  0.1427
 1107POPI   D2A16302   4.772   9.705   6.393  0.4240  0.0856  0.1487
 1107POPI   C3A16303   4.395   9.525   6.327 -0.3748 -0.0603  0.2354
 1107POPI   C4A16304   4.252   9.150   6.492 -0.1594  0.1848  0.2039
 1107POPI   C1B16305   4.363  10.151   6.116  0.0944  0.0463  0.0552
 1107POPI   C2B16306   4.431  10.009   6.576  0.0651  0.2899  0.1684
 1107POPI   C3B16307   4.473   9.882   7.045 -0.0693 -0.4524  0.2523
 1107POPI   C4B16308   4.368   9.820   7.437  0.1720  0.0802  0.0422
 1108POPI    C116309   2.560   7.015   5.316 -0.0424  0.1949  0.0744
 1108POPI    C216310   2.489   7.373   5.478  0.1153  0.0328  0.5180
 1108POPI    C316311   2.796   7.325   5.227 -0.0389  0.2533  0.2814
 1108POPI   PO416312   2.568   6.776   5.561  0.3500 -0.0285  0.1438
 1108POPI   GL116313   2.614   6.622   6.010 -0.0158 -0.1806  0.0121
 1108POPI   GL216314   2.447   6.407   6.164 -0.1774  0.1799  0.0074
 1108POPI   C1A16315   2.890   6.735   6.361 -0.3458 -0.0314  0.0867
 1108POPI   D2A16316   2.937   6.872   6.752 -0.0175  0.0473  0.1854
 1108POPI   C3A16317   3.014   6.792   7.128  0.0522 -0.0315 -0.2317
 1108POPI   C4A16318   2.875   6.647   7.557 -0.0139  0.1612  0.0869
 1108POPI   C1B16319   2.390   6.390   6.564 -0.2045 -0.0502 -0.0445
 1108POPI   C2B16320   2.343   6.221   6.956  0.0127 -0.2671 -0.1569
 1108POPI   C3B16321   2.319   6.060   7.302  0.3866 -0.2638 -0.1358
 1108POPI   C4B16322   2.208   5.988   7.664  0.0532  0.0879 -0.1784
 1109POPI    C116323  14.852  10.086   5.981  0.0515 -0.0311 -0.0966
 1109POPI    C216324  14.858  10.203   5.599 -0.0059  0.1190 -0.0521
 1109POPI    C316325  14.748   9.830   5.692 -0.1234  0.1227 -0.1720
 1109POPI   PO416326  15.095  10.222   6.030 -0.0074  0.1233 -0.1157
 1109POPI   GL116327  15.219  10.407   6.313 -0.3257  0.1785 -0.2503
 1109POPI   GL216328  15.158  10.725   6.317  0.1160  0.0482  0.0436
 1109POPI   C1A16329  15.139  10.458   6.691  0.2297 -0.1817 -0.2309
 1109POPI   D2A16330  14.978  10.467   7.150 -0.0379  0.0235 -0.0640
 1109POPI   C3A16331  14.992  10.663   7.527 -0.1077 -0.1148  0.1204
 1109POPI   C4A16332  14.757  10.629   7.864  0.1016 -0.1109 -0.0900
 1109POPI   C1B16333  14.854  10.887   6.636  0.1793 -0.2098  0.0069
 1109POPI   C2B16334  14.636  10.768   7.052  0.0003  0.0419 -0.0942
 1109POPI   C3B16335  14.526  10.928   7.446  0.1198  0.2772 -0.2426
 1109POPI   C4B16336  14.223  10.846   7.824 -0.2763 -0.0681 -0.1906
 1110POPI    C116337  16.296  12.002   6.069  0.0526 -0.0208 -0.0303
 1110POPI    C216338  16.366  12.101   5.688  0.0624  0.1362  0.0118
 1110POPI    C316339  16.535  11.774   5.843  0.1881  0.1608 -0.0722
 1110POPI   PO416340  16.177  12.311   6.127 -0.1011  0.0792  0.3594
 1110POPI   GL116341  16.105  12.507   6.508 -0.2789 -0.2930 -0.0267
 1110POPI   GL216342  16.348  12.800   6.340 -0.0148  0.0137  0.1308
 1110POPI   C1A16343  16.162  12.505   6.944 -0.0779  0.1069 -0.0288
 1110POPI   D2A16344  16.194  12.797   7.238  0.0607  0.3109  0.0008
 1110POPI   C3A16345  16.387  13.114   7.047 -0.2154 -0.1966 -0.0149
 1110POPI   C4A16346  16.547  13.237   6.641 -0.1654  0.0349 -0.1876
 1110POPI   C1B16347  16.544  12.702   6.790  0.0994 -0.3111  0.2026
 1110POPI   C2B16348  16.665  12.619   7.197 -0.2832 -0.3883  0.2183
 1110POPI   C3B16349  16.434  12.635   7.615 -0.3868 -0.0008 -0.0914
 1110POPI   C4B16350  16.667  12.927   7.873  0.3869  0.0015  0.0988
 1111POPI    C116351   0.353   0.098   5.618 -0.1107  0.0005 -0.0256
 1111POPI    C216352   0.177   0.067   5.260  0.0005  0.2379 -0.1030
 1111POPI    C316353   0.471   0.332   5.316  0.3151 -0.1304  0.0324
 1111POPI   PO416354   0.235  -0.067   5.766 -0.3001 -0.1604  0.1201
 1111POPI   GL116355   0.155  -0.352   6.008  0.0064 -0.0322  0.1659
 1111POPI   GL216356   0.105  -0.685   5.943  0.2444 -0.2679  0.1253
 1111POPI   C1A16357   0.135  -0.236   6.482  0.0459 -0.1088  0.0652
 1111POPI   D2A16358   0.360  -0.330   6.870 -0.2041  0.1258  0.1383
 1111POPI   C3A16359   0.216  -0.327   7.227 -0.2223 -0.1558  0.0733
 1111POPI   C4A16360   0.196  -0.101   7.612 -0.1917  0.1809 -0.3827
 1111POPI   C1B16361   0.130  -0.836   6.303  0.0437  0.0476 -0.2493
 1111POPI   C2B16362   0.050  -0.711   6.620 -0.2194  0.3782  0.0609
 1111POPI   C3B16363  -0.025  -0.658   6.981  0.0430  0.3766 -0.1541
 1111POPI   C4B16364  -0.220  -0.592   7.401  0.0863 -0.1438  0.2897
 1112POPI    C116365   0.946  16.477   5.629  0.3078 -0.0301  0.0417
 1112POPI    C216366   1.049  16.849   5.525  0.0998  0.0099 -0.0261
 1112POPI    C316367   0.889  16.603   5.254 -0.2525  0.0459  0.1436
 1112POPI   PO416368   0.824  16.544   5.944  0.0919 -0.2765  0.0467
 1112POPI   GL116369   0.465  16.657   6.140 -0.0498 -0.0925  0.2111
 1112POPI   GL216370   0.202  16.863   6.205 -0.1257 -0.0390 -0.1840
 1112POPI   C1A16371   0.336  16.532   6.517 -0.1203  0.0760 -0.2212
 1112POPI   D2A16372   0.295  16.592   6.951  0.0118  0.1789 -0.0143
 1112POPI   C3A16373   0.315  16.731   7.313 -0.2425  0.0735 -0.2648
 1112POPI   C4A16374   0.476  16.640   7.812 -0.0006 -0.0863  0.0585
 1112POPI   C1B16375   0.277  17.003   6.628  0.0305  0.3001  0.1396
 1112POPI   C2B16376   0.158  17.057   6.958  0.2157 -0.1828  0.0918
 1112POPI   C3B16377   0.094  17.255   7.368 -0.0644 -0.1624  0.0313
 1112POPI   C4B16378   0.394  17.187   7.810 -0.3447  0.1227 -0.0730
 1113POPI    C116379   5.145  16.247   5.501 -0.1288 -0.0156 -0.0748
 1113POPI    C216380   5.001  16.495   5.223  0.1288  0.1370 -0.0747
 1113POPI    C316381   5.387  16.514   5.327  0.0319  0.0926  0.3046
 1113POPI   PO416382   5.009  16.082   5.474  0.1422  0.0037 -0.0381
 1113POPI   GL116383   4.935  15.924   5.836  0.0431 -0.1824 -0.2015
 1113POPI   GL216384   4.704  16.136   5.992  0.0138 -0.3796 -0.3119
 1113POPI   C1A16385   5.088  15.887   6.282  0.0286 -0.2346  0.1971
 1113POPI   D2A16386   4.910  15.928   6.729 -0.0846 -0.0138  0.0574
 1113POPI   C3A16387   5.001  15.794   7.188  0.1914  0.0080 -0.3973
 1113POPI   C4A16388   5.243  15.716   7.418 -0.0071 -0.0296  0.0673
 1113POPI   C1B16389   4.709  16.302   6.354  0.1528 -0.3660  0.0177
 1113POPI   C2B16390   4.710  16.330   6.745 -0.1063 -0.0450  0.3048
 1113POPI   C3B16391   4.759  16.441   7.083 -0.0501 -0.1408  0.2311
 1113POPI   C4B16392   4.996  16.567   7.473 -0.0695 -0.0256 -0.0342
 1114POPI    C116393   7.218   3.147   5.173 -0.4165  0.2519 -0.2531
 1114POPI    C216394   7.201   3.034   4.790  0.2009  0.0391 -0.2286
 1114POPI    C316395   7.344   3.395   4.886  0.1919  0.0327 -0.1911
 1114POPI   PO416396   7.416   2.898   5.264  0.1940  0.2126 -0.1090
 1114POPI   GL116397   7.446   2.821   5.753  0.2514  0.2315  0.2151
 1114POPI   GL216398   7.280   2.511   5.890 -0.4791 -0.0398 -0.1288
 1114POPI   C1A16399   7.692   2.920   6.193  0.1810  0.1105 -0.1092
 1114POPI   D2A16400   7.558   2.951   6.547 -0.0115  0.3299  0.1938
 1114POPI   C3A16401   7.234   3.242   6.751  0.1544 -0.1104 -0.1146
 1114POPI   C4A16402   6.954   3.272   7.095  0.1271  0.1192  0.0642
 1114POPI   C1B16403   7.090   2.268   6.216  0.2516 -0.0721 -0.2685
 1114POPI   C2B16404   7.088   2.172   6.636  0.1642 -0.2489 -0.3268
 1114POPI   C3B16405   7.045   2.030   7.030  0.0258  0.1694 -0.0662
 1114POPI   C4B16406   6.960   2.112   7.439  0.2075  0.2430 -0.0490
 1115POPI    C116407   8.484  10.627   5.325 -0.1349 -0.0607 -0.0100
 1115POPI    C216408   8.173  10.879   5.326  0.0422  0.1612  0.1323
 1115POPI    C316409   8.486  10.948   5.086 -0.0761 -0.1394 -0.1163
 1115POPI   PO416410   8.472  10.522   5.568  0.4833 -0.2059 -0.1319
 1115POPI   GL116411   8.693  10.134   5.834 -0.0377 -0.0824  0.1797
 1115POPI   GL216412   8.766  10.341   6.005 -0.3521  0.1235 -0.0173
 1115POPI   C1A16413   8.379   9.960   6.147 -0.1951 -0.1477 -0.1368
 1115POPI   D2A16414   8.098   9.790   6.413 -0.0297  0.0963  0.3096
 1115POPI   C3A16415   8.125   9.784   6.798 -0.0970  0.2201 -0.1902
 1115POPI   C4A16416   7.955   9.830   7.256 -0.1712 -0.5737  0.1082
 1115POPI   C1B16417   8.729  10.379   6.496 -0.0127  0.1807 -0.1817
 1115POPI   C2B16418   8.816  10.402   7.029 -0.1186 -0.0278  0.1674
 1115POPI   C3B16419   8.692  10.478   7.498 -0.0437 -0.0576  0.2931
 1115POPI   C4B16420   8.529  10.395   7.943  0.0805 -0.0855 -0.1163
 1116POPI    C116421  17.264   5.545   6.160 -0.0541  0.0682  0.0006
 1116POPI    C216422  17.124   5.855   5.950 -0.0509  0.0813  0.0179
 1116POPI    C316423  17.440   5.650   5.817 -0.0511  0.0876  0.0082
 1116POPI   PO416424  17.090   5.513   6.429 -0.0705 -0.1547 -0.0794
 1116POPI   GL116425  17.101   5.463   6.842  0.0193 -0.1060 -0.2181
 1116POPI   GL216426  17.019   5.124   6.817  0.0551 -0.1916  0.0519
 1116POPI   C1A16427  17.143   5.287   7.306  0.4419  0.4246 -0.0421
 1116POPI   D2A16428  17.019   4.890   7.515  0.0042 -0.3588  0.1599
 1116POPI   C3A16429  17.004   4.986   7.937  0.1915  0.2926  0.0839
 1116POPI   C4A16430  17.275   4.911   8.383  0.3918  0.0055  0.1441
 1116POPI   C1B16431  17.291   4.739   6.979 -0.2173  0.2598  0.3237
 1116POPI   C2B16432  17.395   4.602   7.292 -0.0908 -0.1853 -0.0941
 1116POPI   C3B16433  17.435   4.626   7.805  0.2975 -0.1723 -0.0630
 1116POPI   C4B16434  17.168   4.456   8.181 -0.0878  0.1196 -0.0416
 1117POPI    C116435   6.811  11.120   5.346 -0.0831 -0.0054  0.0056
 1117POPI    C216436   6.799  11.517   5.298 -0.0122  0.0167  0.1642
 1117POPI    C316437   6.794  11.276   4.978  0.0997  0.1493  0.0618
 1117POPI   PO416438   7.038  11.161   5.558  0.2532  0.0214  0.0773
 1117POPI   GL116439   7.175  11.114   5.971  0.4297  0.2327 -0.2217
 1117POPI   GL216440   7.464  11.344   6.032 -0.2452  0.1879 -0.0952
 1117POPI   C1A16441   6.833  11.132   6.300  0.4191 -0.0650  0.0037
 1117POPI   D2A16442   6.496  11.089   6.657 -0.1065  0.4994  0.3172
 1117POPI   C3A16443   6.567  11.316   7.041  0.2637  0.2820 -0.2296
 1117POPI   C4A16444   6.546  11.288   7.470  0.1621 -0.1396 -0.0014
 1117POPI   C1B16445   7.247  11.415   6.329 -0.0419 -0.0749  0.0924
 1117POPI   C2B16446   6.979  11.426   6.765 -0.2788 -0.2823 -0.2812
 1117POPI   C3B16447   7.079  11.583   7.223  0.2621  0.0336 -0.4982
 1117POPI   C4B16448   7.226  11.724   7.734 -0.2820  0.1954  0.0424
 1118POPI    C116449   5.293   4.904   5.296 -0.1404 -0.1959  0.0987
 1118POPI    C216450   5.102   5.143   5.038  0.1081 -0.0215  0.0726
 1118POPI    C316451   5.254   4.794   4.914  0.2425  0.0702 -0.0229
 1118POPI   PO416452   5.197   4.979   5.576 -0.3616 -0.2251  0.0911
 1118POPI   GL116453   5.356   4.871   6.047  0.3495  0.0159  0.1217
 1118POPI   GL216454   5.608   4.976   6.242 -0.1504  0.0634  0.0815
 1118POPI   C1A16455   5.436   4.460   6.250 -0.3036  0.0045  0.1283
 1118POPI   D2A16456   5.332   4.060   6.260 -0.1081 -0.0131  0.0151
 1118POPI   C3A16457   5.564   3.708   6.178  0.1740 -0.0408  0.2644
 1118POPI   C4A16458   5.403   3.346   6.193  0.1822 -0.1228 -0.0708
 1118POPI   C1B16459   5.673   4.899   6.681  0.2802  0.2187 -0.3390
 1118POPI   C2B16460   5.855   5.024   7.150  0.1480  0.0919 -0.0605
 1118POPI   C3B16461   6.023   5.277   7.405  0.0839 -0.2501  0.1111
 1118POPI   C4B16462   5.872   5.460   7.826  0.1990  0.0810 -0.0257
 1119POPI    C116463   2.556   1.556   5.460 -0.0880  0.2904  0.1402
 1119POPI    C216464   2.443   1.322   5.156  0.1479  0.1008  0.1953
 1119POPI    C316465   2.314   1.700   5.176  0.2659  0.1685 -0.2314
 1119POPI   PO416466   2.483   1.430   5.680  0.2402 -0.0044 -0.0681
 1119POPI   GL116467   2.280   1.482   6.058 -0.0014  0.2299 -0.0425
 1119POPI   GL216468   2.230   1.177   6.245 -0.0445 -0.0406  0.2651
 1119POPI   C1A16469   2.162   1.619   6.459  0.5117 -0.2127  0.1821
 1119POPI   D2A16470   2.136   1.566   6.833 -0.0739  0.1345 -0.0976
 1119POPI   C3A16471   2.193   1.676   7.245  0.1659  0.0283 -0.0794
 1119POPI   C4A16472   2.421   1.513   7.618  0.0283  0.1190  0.1269
 1119POPI   C1B16473   2.411   1.213   6.668 -0.1982 -0.2789 -0.1965
 1119POPI   C2B16474   2.522   1.307   7.092  0.3081 -0.1177  0.0699
 1119POPI   C3B16475   2.567   1.078   7.459  0.1588  0.3353  0.0059
 1119POPI   C4B16476   2.821   0.803   7.743 -0.0100  0.2315 -0.0319
 1120POPI    C116477   0.904  11.926   5.274  0.2922 -0.0546  0.0553
 1120POPI    C216478   0.703  11.665   5.047 -0.0517  0.0061  0.2824
 1120POPI    C316479   1.097  11.619   5.104 -0.0440 -0.2611  0.0386
 1120POPI   PO416480   0.792  11.918   5.518  0.0596  0.2092  0.2843
 1120POPI   GL116481   0.790  12.133   5.814  0.2477  0.0074 -0.0128
 1120POPI   GL216482   0.802  12.431   5.833 -0.0406 -0.2867 -0.0677
 1120POPI   C1A16483   0.787  12.058   6.276 -0.1303 -0.1357  0.0901
 1120POPI   D2A16484   0.796  12.000   6.724 -0.1174  0.0505  0.2060
 1120POPI   C3A16485   1.187  12.188   7.052 -0.2063  0.2489 -0.0470
 1120POPI   C4A16486   1.635  12.018   7.292  0.2565  0.1446  0.0237
 1120POPI   C1B16487   0.664  12.594   6.208  0.1556 -0.3340 -0.1227
 1120POPI   C2B16488   0.601  12.408   6.574  0.0875  0.0354 -0.1079
 1120POPI   C3B16489   0.783  12.437   6.989  0.2695  0.0635  0.1007
 1120POPI   C4B16490   0.746  12.101   7.343  0.2659 -0.0956 -0.1570
 1121POPI    C116491  13.672  15.944   5.499  0.3886 -0.1660 -0.1689
 1121POPI    C216492  13.307  15.883   5.346  0.1703 -0.1534  0.3269
 1121POPI    C316493  13.613  15.654   5.230  0.0405 -0.0723 -0.1993
 1121POPI   PO416494  13.636  15.991   5.749  0.2843 -0.0819 -0.0260
 1121POPI   GL116495  13.612  15.889   6.104  0.1175  0.0107 -0.2008
 1121POPI   GL216496  13.535  16.284   6.147 -0.2259  0.3649 -0.2725
 1121POPI   C1A16497  13.638  15.690   6.538  0.0616  0.2600  0.0434
 1121POPI   D2A16498  13.340  15.592   6.852 -0.2201 -0.0817 -0.2747
 1121POPI   C3A16499  13.199  15.626   7.345 -0.0756  0.0486 -0.0781
 1121POPI   C4A16500  13.176  15.733   7.745  0.0766 -0.2925 -0.2317
 1121POPI   C1B16501  13.760  16.253   6.495 -0.3057  0.1847  0.0258
 1121POPI   C2B16502  13.874  16.071   6.850 -0.1259  0.0935  0.0366
 1121POPI   C3B16503  14.160  16.003   7.225 -0.3282  0.0615 -0.0720
 1121POPI   C4B16504  14.100  16.174   7.585 -0.1184 -0.4221 -0.1379
 1122POPI    C116505  15.106   3.959   5.796  0.1501 -0.0799  0.0489
 1122POPI    C216506  14.903   4.028   6.134 -0.0154 -0.1049 -0.0446
 1122POPI    C316507  14.713   4.031   5.782  0.1135 -0.3013 -0.1178
 1122POPI   PO416508  15.205   3.686   5.877  0.2580  0.1177  0.2049
 1122POPI   GL116509  15.170   3.627   6.375  0.0311 -0.1261 -0.0577
 1122POPI   GL216510  15.362   3.326   6.424 -0.2214  0.1799  0.2213
 1122POPI   C1A16511  14.837   3.777   6.636 -0.2319 -0.3250 -0.0249
 1122POPI   D2A16512  14.880   3.666   7.065 -0.1664 -0.1160 -0.0657
 1122POPI   C3A16513  14.559   3.797   7.283  0.0843  0.2336 -0.0408
 1122POPI   C4A16514  14.578   3.885   7.715 -0.0622 -0.2372  0.0477
 1122POPI   C1B16515  15.508   3.082   6.899 -0.0832  0.0451 -0.0419
 1122POPI   C2B16516  15.566   2.909   7.307  0.1093  0.0203 -0.1137
 1122POPI   C3B16517  15.655   2.955   7.760  0.1923  0.2445 -0.1832
 1122POPI   C4B16518  15.602   3.009   8.202  0.1964  0.1384 -0.0794
 1123POPI    C116519   6.441   0.682   5.369 -0.0688  0.0125  0.0358
 1123POPI    C216520   6.711   0.822   5.111 -0.0268 -0.3273 -0.1102
 1123POPI    C316521   6.329   0.938   5.083  0.0912  0.1274  0.0752
 1123POPI   PO416522   6.523   0.708   5.565 -0.0028  0.0483 -0.2475
 1123POPI   GL116523   6.567   0.410   5.816  0.1276 -0.3180 -0.1587
 1123POPI   GL216524   6.568   0.177   5.825 -0.0714  0.2077 -0.0901
 1123POPI   C1A16525   6.544   0.659   6.204  0.2344 -0.1472  0.1635
 1123POPI   D2A16526   6.440   0.502   6.604 -0.1280  0.3949  0.2328
 1123POPI   C3A16527   6.474   0.492   7.027  0.1607 -0.0755 -0.0184
 1123POPI   C4A16528   6.371   0.236   7.452  0.0939  0.0776 -0.1634
 1123POPI   C1B16529   6.686   0.188   6.248 -0.3348  0.3550 -0.1657
 1123POPI   C2B16530   6.732   0.117   6.694 -0.0218 -0.0659  0.0686
 1123POPI   C3B16531   6.693  -0.012   7.052 -0.0248  0.0173 -0.1067
 1123POPI   C4B16532   6.797  -0.016   7.466 -0.1799 -0.1717 -0.1235
 1124POPI    C116533   0.709   4.891   5.753 -0.1746  0.2438  0.0058
 1124POPI    C216534   0.798   5.239   5.576 -0.2115  0.3091  0.1148
 1124POPI    C316535   0.949   4.898   5.433 -0.1009  0.3793  0.0629
 1124POPI   PO416536   0.635   4.837   6.095 -0.1363  0.3866 -0.2223
 1124POPI   GL116537   0.773   4.873   6.558 -0.1666  0.3301  0.0876
 1124POPI   GL216538   0.663   4.672   6.586 -0.1921  0.2622 -0.2684
 1124POPI   C1A16539   1.075   4.913   6.839  0.1592  0.1754 -0.1633
 1124POPI   D2A16540   1.315   4.865   7.169  0.2868  0.1996  0.1693
 1124POPI   C3A16541   1.221   4.905   7.608 -0.0787  0.1444 -0.1811
 1124POPI   C4A16542   1.303   4.801   8.104  0.1569  0.0967 -0.2020
 1124POPI   C1B16543   0.726   4.634   7.056  0.1957  0.0887  0.0069
 1124POPI   C2B16544   0.857   4.648   7.447  0.1151 -0.0318 -0.0157
 1124POPI   C3B16545   0.836   4.633   7.912 -0.0679 -0.0090  0.0143
 1124POPI   C4B16546   0.903   4.458   8.245  0.0377 -0.0197  0.1492
 1125POPI    C116547  13.014  14.055   5.746 -0.1302 -0.0210 -0.1883
 1125POPI    C216548  13.045  13.754   5.485  0.1025 -0.1961  0.0365
 1125POPI    C316549  13.296  14.065   5.463  0.0850 -0.1834  0.0165
 1125POPI   PO416550  12.806  14.056   5.955  0.0999  0.0661 -0.0963
 1125POPI   GL116551  12.631  14.193   6.281 -0.0973  0.2443  0.0535
 1125POPI   GL216552  12.573  13.859   6.428  0.0328 -0.1613 -0.1583
 1125POPI   C1A16553  12.510  14.309   6.638  0.1785 -0.1976 -0.0089
 1125POPI   D2A16554  12.691  14.529   6.985 -0.0306  0.0007  0.3786
 1125POPI   C3A16555  12.776  14.635   7.412  0.0804 -0.2253  0.2538
 1125POPI   C4A16556  12.836  14.776   7.880  0.2267  0.2875 -0.0084
 1125POPI   C1B16557  12.569  13.933   6.900 -0.1992  0.0344  0.1404
 1125POPI   C2B16558  12.597  14.078   7.309 -0.1138  0.0658 -0.1684
 1125POPI   C3B16559  12.791  14.112   7.744  0.0223 -0.0806  0.2606
 1125POPI   C4B16560  13.151  13.949   7.966  0.0921 -0.2658  0.1115
 1126POPI    C116561  15.318  15.901   5.326 -0.0220 -0.0364 -0.0232
 1126POPI    C216562  15.075  16.163   5.147 -0.0850  0.1084  0.2700
 1126POPI    C316563  15.469  16.180   5.083 -0.1341 -0.0355 -0.0928
 1126POPI   PO416564  15.207  15.882   5.630 -0.3472 -0.0948 -0.1140
 1126POPI   GL116565  14.856  15.870   6.026  0.0210 -0.0471  0.1225
 1126POPI   GL216566  14.523  15.815   6.003  0.3925  0.0823 -0.1543
 1126POPI   C1A16567  14.998  16.057   6.498 -0.2459  0.0487 -0.0151
 1126POPI   D2A16568  14.981  16.405   6.834  0.0388  0.1360 -0.0669
 1126POPI   C3A16569  14.999  16.399   7.332 -0.1371  0.1830  0.0528
 1126POPI   C4A16570  14.854  16.749   7.543  0.2796 -0.3404  0.4041
 1126POPI   C1B16571  14.537  16.163   6.243  0.1534  0.2690  0.1455
 1126POPI   C2B16572  14.409  16.402   6.606  0.2911  0.2066  0.0046
 1126POPI   C3B16573  14.158  16.462   6.959 -0.0848  0.1220 -0.0285
 1126POPI   C4B16574  13.858  16.418   7.237 -0.1544  0.0736 -0.0941
 1127POPI    C116575   5.710  16.955   5.124 -0.2163  0.0578  0.3368
 1127POPI    C216576   5.911  16.787   5.426 -0.0359  0.0134  0.1930
 1127POPI    C316577   6.051  17.119   5.252  0.0161 -0.1237 -0.0322
 1127POPI   PO416578   5.471  17.013   5.307  0.1222 -0.0141 -0.2467
 1127POPI   GL116579   5.435  16.860   5.658 -0.0683 -0.2192  0.1154
 1127POPI   GL216580   5.542  17.223   5.739  0.0086  0.0406  0.2051
 1127POPI   C1A16581   5.675  16.534   5.736  0.2322  0.2043  0.0436
 1127POPI   D2A16582   5.477  16.104   5.855  0.1558  0.1711 -0.1975
 1127POPI   C3A16583   5.703  15.918   6.266 -0.1246  0.0449 -0.1723
 1127POPI   C4A16584   5.927  15.611   6.443  0.0262  0.2669 -0.0724
 1127POPI   C1B16585   5.566  17.025   6.157 -0.0423  0.1156  0.0544
 1127POPI   C2B16586   5.578  17.226   6.571 -0.0265  0.1586  0.1522
 1127POPI   C3B16587   5.693  17.501   6.887  0.1946  0.3402 -0.1043
 1127POPI   C4B16588   5.735  17.785   7.070  0.3041  0.1306  0.0034
 1128POPI    C116589   0.695   7.994   5.750  0.0789 -0.0773  0.1415
 1128POPI    C216590   1.000   8.186   5.577 -0.1287  0.2954  0.1780
 1128POPI    C316591   0.625   8.313   5.519 -0.2875 -0.1910  0.0882
 1128POPI   PO416592   0.794   7.957   6.011  0.0145  0.3187 -0.5358
 1128POPI   GL116593   0.573   7.833   6.410 -0.0488  0.3274  0.4140
 1128POPI   GL216594   0.524   8.100   6.407  0.1350 -0.2010  0.0323
 1128POPI   C1A16595   0.597   7.916   6.899  0.1809 -0.2016 -0.5275
 1128POPI   D2A16596   0.647   8.244   7.161 -0.0338  0.2900 -0.3566
 1128POPI   C3A16597   0.445   8.186   7.616  0.2506 -0.0396  0.2050
 1128POPI   C4A16598   0.301   8.401   7.892 -0.0662  0.1501  0.2583
 1128POPI   C1B16599   0.766   8.380   6.687  0.1938 -0.1352  0.0293
 1128POPI   C2B16600   1.118   8.232   6.960  0.0027 -0.1108  0.0129
 1128POPI   C3B16601   1.238   8.025   7.276 -0.1360 -0.1172 -0.0963
 1128POPI   C4B16602   1.394   7.623   7.497  0.3771  0.2907  0.2015
 1129POPI    C116603   7.208  12.674   5.446  0.2380 -0.1393  0.2042
 1129POPI    C216604   7.393  12.389   5.234 -0.0685  0.0225 -0.2967
 1129POPI    C316605   7.371  12.763   5.092 -0.1520  0.1717  0.0952
 1129POPI   PO416606   6.925  12.465   5.616 -0.0223 -0.0879  0.0690
 1129POPI   GL116607   6.738  12.319   5.945  0.3379 -0.1890  0.0639
 1129POPI   GL216608   6.931  12.074   5.902 -0.0243 -0.0387  0.0234
 1129POPI   C1A16609   6.779  12.242   6.486  0.0955  0.0508  0.2175
 1129POPI   D2A16610   6.921  12.538   6.866 -0.0430  0.3281 -0.0981
 1129POPI   C3A16611   7.254  12.539   7.155  0.1999  0.0979  0.1707
 1129POPI   C4A16612   7.035  12.539   7.566  0.3433 -0.2162 -0.2805
 1129POPI   C1B16613   7.172  12.120   6.208  0.0869 -0.0890 -0.0721
 1129POPI   C2B16614   7.286  12.287   6.579  0.2356 -0.0038 -0.2245
 1129POPI   C3B16615   7.668  12.264   6.816 -0.3251 -0.3066 -0.0859
 1129POPI   C4B16616   7.972  12.265   7.136 -0.0887 -0.0634  0.2769
 1130POPI    C116617  14.541  16.302   5.729 -0.0622 -0.1430  0.1049
 1130POPI    C216618  14.639  16.360   5.346 -0.1095 -0.2089  0.0826
 1130POPI    C316619  14.643  15.991   5.500 -0.0317 -0.1753  0.1621
 1130POPI   PO416620  14.353  16.475   5.736  0.3235  0.1426  0.2911
 1130POPI   GL116621  13.984  16.345   5.815 -0.0098 -0.2056 -0.1728
 1130POPI   GL216622  14.034  16.134   6.096  0.0504 -0.0371  0.0757
 1130POPI   C1A16623  13.810  16.729   6.022 -0.1403  0.2609  0.3926
 1130POPI   D2A16624  13.732  17.120   6.136 -0.1308 -0.1596  0.0758
 1130POPI   C3A16625  13.788  17.255   6.561 -0.1341  0.2934 -0.0982
 1130POPI   C4A16626  13.752  17.299   6.893  0.1028  0.1172  0.1684
 1130POPI   C1B16627  14.269  15.897   6.539  0.3376  0.0307  0.2825
 1130POPI   C2B16628  14.536  15.881   6.874 -0.0597  0.1530  0.0017
 1130POPI   C3B16629  14.596  15.683   7.243  0.0794  0.0308  0.0215
 1130POPI   C4B16630  14.948  15.477   7.209 -0.1743  0.0660  0.0143
 1131POPI    C116631   3.572   0.473   4.991  0.0001  0.1768  0.0110
 1131POPI    C216632   3.513   0.864   4.932  0.0326  0.1887  0.0570
 1131POPI    C316633   3.304   0.596   4.720  0.0306  0.2310  0.0053
 1131POPI   PO416634   3.637   0.474   5.259  0.2724  0.0671  0.2522
 1131POPI   GL116635   3.718   0.628   5.606 -0.0694 -0.0696  0.1428
 1131POPI   GL216636   3.787   0.859   5.898  0.2286  0.3980  0.2590
 1131POPI   C1A16637   3.917   0.348   5.885  0.3882  0.0009  0.2480
 1131POPI   D2A16638   4.229   0.291   6.313  0.0724  0.0456  0.1812
 1131POPI   C3A16639   4.175   0.348   6.688  0.0295  0.1734  0.0056
 1131POPI   C4A16640   4.229   0.371   7.085 -0.0343  0.0584  0.2814
 1131POPI   C1B16641   3.954   0.778   6.297  0.3955  0.0873 -0.1802
 1131POPI   C2B16642   3.942   0.810   6.733 -0.1066  0.0957  0.1131
 1131POPI   C3B16643   3.896   0.741   7.220 -0.4956 -0.1634 -0.2229
 1131POPI   C4B16644   3.821   0.717   7.628  0.1652  0.0565 -0.1775
 1132POPI    C116645  12.982  13.563   6.057  0.1940  0.1703 -0.1431
 1132POPI    C216646  13.090  13.197   6.178  0.0416  0.1221 -0.1506
 1132POPI    C316647  13.112  13.295   5.790  0.1562  0.1468 -0.1381
 1132POPI   PO416648  13.038  13.671   6.233  0.0932  0.3068 -0.0177
 1132POPI   GL116649  12.952  13.629   6.687  0.0876 -0.1260 -0.0869
 1132POPI   GL216650  12.988  13.318   6.645  0.0544 -0.3568  0.1561
 1132POPI   C1A16651  12.867  13.623   7.155  0.2105 -0.3024 -0.2571
 1132POPI   D2A16652  12.941  13.717   7.575  0.0836 -0.0655 -0.1576
 1132POPI   C3A16653  13.214  13.467   7.812 -0.0008 -0.0123  0.5094
 1132POPI   C4A16654  13.456  13.081   7.894  0.1754  0.0143  0.0636
 1132POPI   C1B16655  12.923  13.133   7.015  0.3251  0.1709 -0.0230
 1132POPI   C2B16656  12.833  13.217   7.420  0.0689 -0.2607 -0.0163
 1132POPI   C3B16657  12.486  13.308   7.677 -0.1560  0.0452  0.0797
 1132POPI   C4B16658  12.172  13.257   7.512 -0.1940 -0.4218 -0.3116
 1133POPI    C116659  17.125  12.400   5.665 -0.1412 -0.2030  0.0632
 1133POPI    C216660  16.841  12.649   5.532 -0.0274  0.0808  0.3384
 1133POPI    C316661  16.792  12.253   5.500 -0.2677  0.1337  0.0111
 1133POPI   PO416662  17.128  12.534   5.941  0.1425 -0.4509 -0.1131
 1133POPI   GL116663  17.182  12.354   6.349  0.0707 -0.0826 -0.2102
 1133POPI   GL216664  17.391  12.661   6.336 -0.4852  0.0579 -0.0551
 1133POPI   C1A16665  17.100  12.264   6.851  0.3961 -0.3748 -0.0026
 1133POPI   D2A16666  17.120  12.084   7.158  0.2129  0.1591  0.2946
 1133POPI   C3A16667  17.316  12.158   7.580  0.1271 -0.3542  0.1100
 1133POPI   C4A16668  17.744  12.221   7.836 -0.1529  0.1460 -0.0839
 1133POPI   C1B16669  17.216  12.697   6.709  0.0455  0.0909  0.1789
 1133POPI   C2B16670  17.163  12.654   7.189 -0.0414 -0.0086  0.0766
 1133POPI   C3B16671  16.987  12.629   7.575 -0.2075 -0.0067  0.3193
 1133POPI   C4B16672  17.250  12.576   7.964  0.1201 -0.0298 -0.0774
 1134POPI    C116673   3.835  13.754   5.227 -0.1158 -0.2508  0.1381
 1134POPI    C216674   3.640  14.048   5.040  0.0121 -0.1251  0.2003
 1134POPI    C316675   3.989  13.916   4.896  0.0052 -0.1760  0.2300
 1134POPI   PO416676   3.852  13.784   5.484 -0.1433 -0.1331 -0.2597
 1134POPI   GL116677   3.727  13.915   5.890  0.0463 -0.0497  0.1370
 1134POPI   GL216678   3.555  14.028   6.073  0.0516  0.0079 -0.0407
 1134POPI   C1A16679   4.040  13.966   6.315  0.0932 -0.2051  0.3688
 1134POPI   D2A16680   4.347  13.895   6.665 -0.1641 -0.1445  0.2677
 1134POPI   C3A16681   4.595  14.170   6.911 -0.0744 -0.0399  0.2270
 1134POPI   C4A16682   4.775  14.466   7.176  0.0976  0.1530  0.0817
 1134POPI   C1B16683   3.492  14.001   6.428 -0.0737  0.0237 -0.0843
 1134POPI   C2B16684   3.352  13.980   6.826  0.0048 -0.1297  0.2341
 1134POPI   C3B16685   3.450  13.684   7.149 -0.0035 -0.2183  0.3282
 1134POPI   C4B16686   3.358  13.675   7.457  0.1240 -0.0712  0.0545
 1135POPI    C116687   7.037   7.543   5.492  0.2736 -0.1336 -0.0804
 1135POPI    C216688   7.055   7.738   5.142 -0.5408 -0.0431 -0.0909
 1135POPI    C316689   7.135   7.346   5.158  0.1596  0.0819 -0.2440
 1135POPI   PO416690   6.732   7.666   5.538 -0.0264 -0.2264 -0.1673
 1135POPI   GL116691   6.606   7.692   5.915  0.1206  0.2709 -0.1067
 1135POPI   GL216692   6.329   7.356   6.056  0.0880 -0.2767  0.0418
 1135POPI   C1A16693   6.384   7.837   6.213 -0.0209 -0.1744 -0.0565
 1135POPI   D2A16694   6.207   8.126   6.471  0.2151 -0.2407  0.1203
 1135POPI   C3A16695   6.271   8.383   6.889 -0.0142  0.1707 -0.0939
 1135POPI   C4A16696   6.394   8.520   7.269 -0.0175  0.0108 -0.0312
 1135POPI   C1B16697   6.485   7.284   6.490 -0.1310  0.1249  0.2502
 1135POPI   C2B16698   6.823   7.148   6.771  0.1369  0.0173 -0.0999
 1135POPI   C3B16699   7.027   7.160   7.127  0.2201  0.0938  0.3942
 1135POPI   C4B16700   6.924   7.002   7.551 -0.0908  0.1616  0.1606
 1136POPI    C116701  13.646   1.030   5.352 -0.0577  0.0889  0.2002
 1136POPI    C216702  13.604   1.413   5.461 -0.1055  0.1788 -0.1250
 1136POPI    C316703  13.907   1.304   5.223 -0.2221  0.0549 -0.2183
 1136POPI   PO416704  13.585   0.924   5.587  0.2072 -0.2723 -0.1220
 1136POPI   GL116705  13.508   0.805   5.865  0.0503 -0.0493 -0.0557
 1136POPI   GL216706  13.764   0.680   5.966  0.3467 -0.2944  0.1504
 1136POPI   C1A16707  13.290   0.584   6.229  0.2426 -0.0343 -0.0309
 1136POPI   D2A16708  13.401   0.504   6.618  0.0034  0.0567 -0.0743
 1136POPI   C3A16709  13.363   0.512   7.070 -0.0538 -0.1003 -0.1222
 1136POPI   C4A16710  13.271   0.527   7.512  0.0310 -0.0232  0.0643
 1136POPI   C1B16711  13.618   0.902   6.435 -0.1507  0.0621  0.2007
 1136POPI   C2B16712  13.596   0.955   6.860  0.1961  0.0720  0.2165
 1136POPI   C3B16713  13.606   1.033   7.326  0.1339  0.0521 -0.2284
 1136POPI   C4B16714  13.758   1.217   7.668  0.0580  0.0935  0.0710
 1137POPI    C116715  14.149  13.110   5.832 -0.0949 -0.1803  0.1903
 1137POPI    C216716  13.981  12.801   5.642 -0.1332 -0.0149 -0.0482
 1137POPI    C316717  13.955  13.169   5.488  0.0312  0.0872  0.1628
 1137POPI   PO416718  14.120  13.086   6.044 -0.2495 -0.0021  0.3553
 1137POPI   GL116719  14.143  13.137   6.368 -0.3111  0.1715  0.3056
 1137POPI   GL216720  13.898  12.976   6.491  0.2808 -0.1881 -0.1531
 1137POPI   C1A16721  14.323  13.289   6.774 -0.1084 -0.1731  0.3210
 1137POPI   D2A16722  14.269  13.286   7.184 -0.0369 -0.0687 -0.1800
 1137POPI   C3A16723  14.489  13.631   7.502  0.0449 -0.0519  0.2215
 1137POPI   C4A16724  14.560  14.082   7.661 -0.1529 -0.1363  0.1052
 1137POPI   C1B16725  13.820  13.073   6.939 -0.2374 -0.1319 -0.1002
 1137POPI   C2B16726  13.712  13.126   7.415  0.0305  0.0257  0.1140
 1137POPI   C3B16727  13.901  12.993   7.735  0.0014  0.3635 -0.1434
 1137POPI   C4B16728  13.982  13.052   8.122  0.0197  0.0006 -0.1725
 1138POPI    C116729   9.230   2.188   5.053 -0.3106  0.1720 -0.5023
 1138POPI    C216730   9.538   1.943   4.980 -0.0730  0.3716 -0.1987
 1138POPI    C316731   9.275   2.027   4.690 -0.3071 -0.4349 -0.2456
 1138POPI   PO416732   9.249   2.261   5.380 -0.2059 -0.0262  0.1314
 1138POPI   GL116733   9.276   2.189   5.822 -0.0312 -0.0835  0.1702
 1138POPI   GL216734   8.963   2.175   5.785 -0.3171  0.1414  0.1230
 1138POPI   C1A16735   9.413   2.289   6.268 -0.2107  0.1318 -0.2815
 1138POPI   D2A16736   9.460   2.368   6.672 -0.3173 -0.2895 -0.0204
 1138POPI   C3A16737   9.381   2.413   7.062  0.2682 -0.0278  0.0746
 1138POPI   C4A16738   9.205   2.599   7.413  0.3941  0.2850 -0.0931
 1138POPI   C1B16739   8.975   2.066   6.203 -0.1552 -0.1976 -0.0786
 1138POPI   C2B16740   8.993   2.062   6.577  0.1148  0.0297 -0.2014
 1138POPI   C3B16741   9.091   2.028   6.974 -0.1776 -0.1656 -0.0435
 1138POPI   C4B16742   9.096   2.094   7.335 -0.0834  0.0855 -0.2306
 1139POPI    C116743  17.439  10.707   5.700 -0.2381 -0.0217 -0.1179
 1139POPI    C216744  17.326  10.708   5.316  0.0953 -0.0375 -0.2191
 1139POPI    C316745  17.599  10.970   5.445  0.1159 -0.1486 -0.0324
 1139POPI   PO416746  17.201  10.652   5.912  0.1712 -0.0650  0.1217
 1139POPI   GL116747  17.184  10.802   6.199  0.0035  0.0232 -0.0501
 1139POPI   GL216748  16.954  10.888   6.322 -0.0863 -0.1008 -0.2797
 1139POPI   C1A16749  17.268  10.522   6.596 -0.0239 -0.1370  0.0826
 1139POPI   D2A16750  17.383  10.307   6.931 -0.3659 -0.1671 -0.3019
 1139POPI   C3A16751  17.307  10.343   7.310  0.1083  0.0676 -0.0896
 1139POPI   C4A16752  17.231  10.504   7.725  0.0406  0.3126  0.1159
 1139POPI   C1B16753  17.035  10.897   6.787  0.0241 -0.3646  0.0093
 1139POPI   C2B16754  17.089  10.944   7.199 -0.2095 -0.2777  0.1762
 1139POPI   C3B16755  16.935  11.145   7.584 -0.2079  0.0872  0.0386
 1139POPI   C4B16756  16.883  11.125   8.026 -0.0922 -0.0004 -0.0501
 1140POPI    C116757   3.546   5.244   5.326  0.3253  0.1391  0.0079
 1140POPI    C216758   3.274   5.098   5.072  0.1420  0.0586  0.2468
 1140POPI    C316759   3.632   5.213   4.936  0.1262 -0.1874 -0.0144
 1140POPI   PO416760   3.415   5.035   5.605 -0.1415  0.3344  0.0477
 1140POPI   GL116761   3.171   5.113   5.997  0.1504 -0.0054  0.0788
 1140POPI   GL216762   3.286   4.798   6.019  0.3849  0.0676  0.1092
 1140POPI   C1A16763   3.388   5.187   6.395 -0.0718  0.1745 -0.0675
 1140POPI   D2A16764   3.531   5.461   6.769 -0.0721 -0.2679 -0.1206
 1140POPI   C3A16765   3.482   5.329   7.167  0.2818  0.1630  0.0516
 1140POPI   C4A16766   3.571   5.199   7.605 -0.0439 -0.1373  0.2483
 1140POPI   C1B16767   3.369   4.707   6.439 -0.3435 -0.0960 -0.1143
 1140POPI   C2B16768   3.449   4.793   6.827  0.3821 -0.0330 -0.0036
 1140POPI   C3B16769   3.543   4.794   7.266 -0.1070  0.0872  0.0937
 1140POPI   C4B16770   3.763   4.533   7.552 -0.1177 -0.1903  0.0233
 1141POPI    C116771  15.768  16.848   5.521  0.0945  0.0822 -0.0959
 1141POPI    C216772  15.885  17.225   5.456 -0.2198  0.1929 -0.0367
 1141POPI    C316773  15.602  17.061   5.225 -0.1119  0.0054 -0.0373
 1141POPI   PO416774  15.965  16.779   5.706  0.3506 -0.0868 -0.0023
 1141POPI   GL116775  15.956  16.963   6.056 -0.1083 -0.0907 -0.0400
 1141POPI   GL216776  15.780  16.937   6.221  0.0078 -0.1708  0.0956
 1141POPI   C1A16777  16.213  16.946   6.443  0.6260  0.0708 -0.0518
 1141POPI   D2A16778  16.493  16.993   6.720 -0.0143  0.3491  0.0701
 1141POPI   C3A16779  16.397  16.898   7.168  0.0627 -0.0565  0.0321
 1141POPI   C4A16780  16.372  16.856   7.551 -0.2207 -0.1463  0.3291
 1141POPI   C1B16781  15.618  16.872   6.647 -0.0477 -0.1559  0.2215
 1141POPI   C2B16782  15.870  16.947   6.997  0.1082  0.2118 -0.1275
 1141POPI   C3B16783  15.884  17.018   7.435 -0.2080 -0.1396 -0.1031
 1141POPI   C4B16784  15.995  16.861   7.887 -0.1225 -0.0307  0.3172
 1142POPI    C116785   6.768  14.060   5.116  0.0132  0.2250  0.2023
 1142POPI    C216786   6.480  14.127   4.847  0.0897  0.0045  0.0626
 1142POPI    C316787   6.829  14.320   4.818  0.2130 -0.2497 -0.1838
 1142POPI   PO416788   6.729  14.094   5.310  0.1287  0.1511 -0.1291
 1142POPI   GL116789   6.788  13.992   5.723  0.1940  0.0878 -0.1919
 1142POPI   GL216790   7.023  14.137   5.710 -0.0567  0.3001 -0.0689
 1142POPI   C1A16791   6.894  13.734   6.107  0.2006  0.3644  0.1409
 1142POPI   D2A16792   6.740  13.608   6.409 -0.0802 -0.0388  0.2885
 1142POPI   C3A16793   6.381  13.559   6.731 -0.2074 -0.1799 -0.0488
 1142POPI   C4A16794   6.185  13.333   7.088 -0.1686 -0.0353  0.2630
 1142POPI   C1B16795   6.796  14.326   6.090 -0.0725 -0.2888  0.1695
 1142POPI   C2B16796   6.409  14.455   6.231 -0.1712  0.0596  0.1877
 1142POPI   C3B16797   6.234  14.675   6.613 -0.0096 -0.2739  0.1298
 1142POPI   C4B16798   6.275  14.692   7.112  0.1631  0.0423 -0.1744
 1143POPI    C116799  15.589  11.254   5.811 -0.2023 -0.0361 -0.0570
 1143POPI    C216800  15.622  11.551   5.545 -0.0021 -0.1180 -0.1255
 1143POPI    C316801  15.782  11.193   5.467 -0.0469 -0.1787  0.0539
 1143POPI   PO416802  15.680  11.338   6.091  0.2112  0.1717  0.1305
 1143POPI   GL116803  15.666  11.107   6.445 -0.1038  0.2114  0.2076
 1143POPI   GL216804  15.713  11.324   6.631 -0.1659 -0.2294 -0.0561
 1143POPI   C1A16805  15.500  10.875   6.716  0.1584 -0.2425 -0.0575
 1143POPI   D2A16806  15.198  10.922   7.002 -0.1390 -0.0207 -0.0172
 1143POPI   C3A16807  15.005  11.150   7.356 -0.2047 -0.0005  0.2278
 1143POPI   C4A16808  14.915  11.141   7.733  0.1232  0.1238 -0.0138
 1143POPI   C1B16809  15.571  11.299   7.014  0.0137  0.0382  0.0268
 1143POPI   C2B16810  15.511  11.246   7.500 -0.2631 -0.1019  0.0152
 1143POPI   C3B16811  15.628  11.516   7.835  0.2041 -0.1007 -0.2379
 1143POPI   C4B16812  15.790  11.620   8.254  0.0587  0.0708 -0.1052
 1144POPI    C116813   8.823   4.253   5.450 -0.2143 -0.2044  0.0507
 1144POPI    C216814   8.549   4.510   5.587 -0.0845 -0.0142 -0.0422
 1144POPI    C316815   8.675   4.535   5.208 -0.0269 -0.1781 -0.0346
 1144POPI   PO416816   8.773   4.070   5.481  0.1586  0.0552 -0.1916
 1144POPI   GL116817   8.506   4.078   5.863 -0.2619 -0.0683 -0.0263
 1144POPI   GL216818   8.755   3.956   5.962  0.2428  0.0885  0.1759
 1144POPI   C1A16819   8.441   4.379   6.186 -0.2185 -0.1185 -0.3135
 1144POPI   D2A16820   8.675   4.833   6.345 -0.0197 -0.0944 -0.0568
 1144POPI   C3A16821   8.807   5.274   6.093 -0.1608  0.0869 -0.2192
 1144POPI   C4A16822   8.870   5.735   6.069  0.0024 -0.2675 -0.1327
 1144POPI   C1B16823   8.635   3.939   6.403 -0.1022  0.1201  0.0262
 1144POPI   C2B16824   8.539   3.923   6.868  0.0545 -0.1330  0.0601
 1144POPI   C3B16825   8.326   3.926   7.275  0.4273 -0.2335 -0.2614
 1144POPI   C4B16826   8.090   3.772   7.607  0.2017 -0.2715  0.1262
 1145POPI    C116827   4.981   0.688   5.125 -0.0078  0.0112 -0.1059
 1145POPI    C216828   5.135   0.345   4.989  0.2811  0.0024  0.2283
 1145POPI    C316829   4.922   0.579   4.745  0.4215 -0.2181 -0.1137
 1145POPI   PO416830   4.770   0.692   5.364 -0.1404 -0.0223 -0.2190
 1145POPI   GL116831   4.951   0.591   5.771 -0.1279 -0.3355 -0.2504
 1145POPI   GL216832   5.174   0.413   5.592  0.0884 -0.3565  0.2757
 1145POPI   C1A16833   5.009   0.485   6.143  0.1389  0.2145  0.0064
 1145POPI   D2A16834   5.067   0.523   6.494  0.1017 -0.0528  0.2413
 1145POPI   C3A16835   4.756   0.461   6.862 -0.1288  0.0120  0.3413
 1145POPI   C4A16836   4.694   0.629   7.222  0.0024 -0.0631  0.1163
 1145POPI   C1B16837   5.149   0.042   5.947  0.1946  0.0309  0.0177
 1145POPI   C2B16838   5.198   0.046   6.350 -0.3505 -0.0376  0.4493
 1145POPI   C3B16839   5.055   0.082   6.749  0.1559 -0.1076  0.1647
 1145POPI   C4B16840   4.863   0.122   7.244 -0.1817 -0.2157 -0.1442
 1146POPI    C116841   3.484   8.508   5.450 -0.1325 -0.2532 -0.0504
 1146POPI    C216842   3.228   8.664   5.184  0.0098 -0.0376 -0.0635
 1146POPI    C316843   3.532   8.435   5.059 -0.0422 -0.1047 -0.0678
 1146POPI   PO416844   3.589   8.727   5.661  0.2309  0.2942  0.2677
 1146POPI   GL116845   3.468   9.000   6.018  0.2419  0.1379 -0.1215
 1146POPI   GL216846   3.732   8.912   6.111  0.3545  0.0032 -0.1504
 1146POPI   C1A16847   3.169   9.191   6.337 -0.1030 -0.0145 -0.0380
 1146POPI   D2A16848   3.217   9.406   6.705  0.2070 -0.1216 -0.0072
 1146POPI   C3A16849   3.332   9.244   7.271 -0.1597  0.1591  0.0472
 1146POPI   C4A16850   3.509   9.391   7.616  0.2156 -0.1204  0.0497
 1146POPI   C1B16851   3.653   9.014   6.513 -0.0846 -0.0231 -0.1965
 1146POPI   C2B16852   3.738   9.136   6.910 -0.0211 -0.0912  0.0657
 1146POPI   C3B16853   3.620   9.507   7.035  0.2750 -0.1479 -0.0231
 1146POPI   C4B16854   3.862   9.693   7.331 -0.0732 -0.2327 -0.2528
 1147DPPI    C116855   6.339  10.665   5.096  0.0028 -0.1154  0.1027
 1147DPPI    C216856   6.714  10.763   4.996 -0.0392 -0.0167  0.0403
 1147DPPI    C316857   6.486  10.558   4.739 -0.0070 -0.1332  0.1040
 1147DPPI   PO416858   6.263  10.900   5.207 -0.1401  0.1244  0.1646
 1147DPPI   GL116859   6.389  11.054   5.668  0.0070  0.0186 -0.0630
 1147DPPI   GL216860   6.661  10.956   5.837  0.1107 -0.1223  0.4037
 1147DPPI   C1A16861   6.368  11.257   6.141 -0.1490 -0.1061 -0.3122
 1147DPPI   C2A16862   6.330  11.591   6.441 -0.1777 -0.4123 -0.1589
 1147DPPI   C3A16863   6.554  11.771   6.767  0.1205 -0.2586  0.2182
 1147DPPI   C4A16864   6.638  11.833   7.149  0.0763 -0.1053 -0.0491
 1147DPPI   C1B16865   6.499  10.657   6.211 -0.2150  0.1404 -0.3429
 1147DPPI   C2B16866   6.377  10.631   6.545 -0.2212 -0.1719 -0.2504
 1147DPPI   C3B16867   6.015  10.756   6.762  0.1336  0.1788 -0.3294
 1147DPPI   C4B16868   5.762  10.482   6.893  0.1921  0.0933 -0.0735
 1148DPPI    C116869   1.186  18.005   5.360 -0.1260  0.0576 -0.0657
 1148DPPI    C216870   1.460  17.743   5.232  0.0245  0.2585 -0.1593
 1148DPPI    C316871   1.195  17.898   4.975 -0.1919  0.0498 -0.0651
 1148DPPI   PO416872   1.313  18.135   5.517 -0.1328  0.4028 -0.1820
 1148DPPI   GL116873   1.502  18.147   5.877  0.2186  0.0638  0.0028
 1148DPPI   GL216874   1.149  18.176   6.042 -0.0860 -0.0118 -0.0854
 1148DPPI   C1A16875   1.643  18.253   6.251 -0.0848  0.1202  0.1868
 1148DPPI   C2A16876   1.636  18.244   6.758 -0.1430 -0.1339  0.0410
 1148DPPI   C3A16877   1.662  18.206   7.173  0.2235 -0.0254 -0.0272
 1148DPPI   C4A16878   1.837  18.183   7.556 -0.3294 -0.1983 -0.1475
 1148DPPI   C1B16879   1.100  18.240   6.376 -0.2363 -0.2257  0.2466
 1148DPPI   C2B16880   1.126  18.257   6.767 -0.0313 -0.0963 -0.0597
 1148DPPI   C3B16881   1.112  18.106   7.166 -0.0149 -0.3991 -0.3105
 1148DPPI   C4B16882   1.206  18.159   7.619  0.3406  0.2677 -0.1233
 1149DPPI    C116883  15.402  12.321   5.758  0.1395  0.0741 -0.0519
 1149DPPI    C216884  15.436  11.981   5.550  0.2065 -0.1636  0.3382
 1149DPPI    C316885  15.598  12.318   5.409  0.2873 -0.3280  0.0292
 1149DPPI   PO416886  15.212  12.332   5.833  0.0252 -0.2644  0.1393
 1149DPPI   GL116887  15.093  12.579   6.184  0.2089 -0.0819 -0.1245
 1149DPPI   GL216888  15.119  12.924   6.056 -0.1589  0.4135 -0.2935
 1149DPPI   C1A16889  15.225  12.489   6.566 -0.0700  0.0052 -0.2228
 1149DPPI   C2A16890  15.151  12.633   7.006 -0.0434 -0.0087  0.1125
 1149DPPI   C3A16891  14.999  12.483   7.435 -0.0204 -0.0864  0.1093
 1149DPPI   C4A16892  14.590  12.467   7.651  0.1883 -0.0905  0.1048
 1149DPPI   C1B16893  15.219  13.058   6.495 -0.1042 -0.1466  0.2166
 1149DPPI   C2B16894  15.283  13.097   6.937  0.0066 -0.0847 -0.1454
 1149DPPI   C3B16895  15.345  13.134   7.346  0.0370  0.2009 -0.0958
 1149DPPI   C4B16896  15.366  12.902   7.707 -0.3419 -0.2229  0.2541
 1150DPPI    C116897  14.614  13.891   6.032  0.1264  0.0141  0.0996
 1150DPPI    C216898  14.886  14.065   5.796  0.2971 -0.2562  0.0925
 1150DPPI    C316899  14.847  13.667   5.797 -0.1435 -0.2179  0.0481
 1150DPPI   PO416900  14.598  14.033   6.277 -0.0804  0.0482 -0.0865
 1150DPPI   GL116901  14.406  13.771   6.580  0.0970  0.1490  0.1652
 1150DPPI   GL216902  14.781  13.639   6.476  0.0781  0.1056  0.0612
 1150DPPI   C1A16903  14.291  13.805   6.949 -0.0763  0.2141 -0.2165
 1150DPPI   C2A16904  14.218  14.102   7.284  0.1365  0.0237  0.4962
 1150DPPI   C3A16905  14.030  14.298   7.553 -0.3483  0.1467  0.1122
 1150DPPI   C4A16906  14.183  14.502   7.934  0.0184 -0.3815  0.2339
 1150DPPI   C1B16907  14.882  13.468   6.804  0.1484 -0.1068  0.0521
 1150DPPI   C2B16908  14.987  13.445   7.212  0.1686 -0.1167  0.1697
 1150DPPI   C3B16909  14.937  13.304   7.637 -0.0464  0.3101  0.0539
 1150DPPI   C4B16910  14.875  12.846   7.784  0.0182 -0.0305  0.1835
 1151DPPI    C116911  17.681   3.486   6.212 -0.1804 -0.0507 -0.0746
 1151DPPI    C216912  17.733   3.833   6.019  0.0821 -0.0749 -0.0518
 1151DPPI    C316913  17.606   3.510   5.820 -0.0268 -0.0017 -0.1019
 1151DPPI   PO416914  17.885   3.359   6.283 -0.2380  0.0579 -0.2357
 1151DPPI   GL116915  17.969   3.201   6.590  0.1057  0.1305 -0.1079
 1151DPPI   GL216916  18.342   3.190   6.439 -0.0532 -0.1364  0.0781
 1151DPPI   C1A16917  17.883   3.049   7.058 -0.0864  0.1611  0.3858
 1151DPPI   C2A16918  17.846   3.134   7.583  0.0571 -0.1210  0.2941
 1151DPPI   C3A16919  17.973   3.219   7.896 -0.2500  0.1551  0.2510
 1151DPPI   C4A16920  18.184   3.378   8.199  0.1483  0.1850  0.2290
 1151DPPI   C1B16921  18.282   3.292   6.895 -0.1844 -0.2905 -0.2084
 1151DPPI   C2B16922  18.531   3.142   7.227 -0.0852 -0.2002 -0.0490
 1151DPPI   C3B16923  18.859   3.309   7.435  0.1959  0.1814  0.0792
 1151DPPI   C4B16924  19.092   3.303   7.785  0.0117 -0.2137  0.1165
 1152DPPI    C116925   9.052  10.907   5.653 -0.1513 -0.0223 -0.0880
 1152DPPI    C216926   9.363  11.031   5.435 -0.1202  0.3431  0.1537
 1152DPPI    C316927   8.992  11.064   5.290 -0.0629  0.0677 -0.0644
 1152DPPI   PO416928   9.034  11.000   5.954 -0.1896  0.2290 -0.0802
 1152DPPI   GL116929   8.682  10.795   6.155  0.1005  0.0764 -0.0065
 1152DPPI   GL216930   8.383  10.769   5.989  0.2744  0.2730 -0.2347
 1152DPPI   C1A16931   8.432  10.815   6.482 -0.1371 -0.4646 -0.0737
 1152DPPI   C2A16932   8.350  10.575   6.948 -0.3888 -0.2537 -0.0091
 1152DPPI   C3A16933   8.240  10.582   7.415  0.0967 -0.1349 -0.0666
 1152DPPI   C4A16934   8.311  10.799   7.807 -0.0014 -0.0995  0.0268
 1152DPPI   C1B16935   8.260  10.421   6.243 -0.0032 -0.2645  0.1075
 1152DPPI   C2B16936   8.184  10.225   6.654 -0.2340 -0.2364 -0.0529
 1152DPPI   C3B16937   7.975  10.254   7.060  0.1309  0.1931  0.0065
 1152DPPI   C4B16938   7.714  10.406   7.440 -0.0123  0.1484  0.0378
 1153DPPI    C116939  11.866   2.575   5.098  0.2013 -0.2071 -0.0625
 1153DPPI    C216940  11.579   2.631   4.825  0.2560  0.3620 -0.0141
 1153DPPI    C316941  11.884   2.386   4.746  0.1126  0.2835 -0.3398
 1153DPPI   PO416942  11.820   2.796   5.234  0.1974 -0.2448 -0.1413
 1153DPPI   GL116943  11.862   2.665   5.682 -0.0712 -0.0816 -0.2107
 1153DPPI   GL216944  12.212   2.746   5.675  0.0970 -0.1952 -0.2271
 1153DPPI   C1A16945  11.738   2.790   6.103 -0.3477 -0.2579  0.0659
 1153DPPI   C2A16946  11.801   2.844   6.498  0.0118  0.2652  0.2431
 1153DPPI   C3A16947  11.627   2.749   6.864 -0.3038 -0.1332  0.0014
 1153DPPI   C4A16948  11.329   2.858   7.138  0.0194  0.0521  0.0373
 1153DPPI   C1B16949  12.206   2.827   6.086  0.1157 -0.2078  0.0623
 1153DPPI   C2B16950  12.330   2.937   6.388 -0.1274  0.5597 -0.1578
 1153DPPI   C3B16951  12.190   2.938   6.908 -0.0261 -0.0882  0.1988
 1153DPPI   C4B16952  12.012   2.948   7.326 -0.1380  0.0328  0.1853
 1154DPPI    C116953  15.301  13.782   5.813  0.0719 -0.0005  0.1623
 1154DPPI    C216954  15.538  13.921   5.523  0.0827 -0.0688  0.1383
 1154DPPI    C316955  15.203  13.723   5.430 -0.0280  0.1010  0.1716
 1154DPPI   PO416956  15.447  13.713   6.030 -0.0172 -0.1129 -0.2603
 1154DPPI   GL116957  15.405  13.607   6.484 -0.1797  0.0757 -0.1304
 1154DPPI   GL216958  15.261  13.821   6.709  0.1430 -0.0596 -0.1766
 1154DPPI   C1A16959  15.690  13.376   6.598  0.3923  0.0899 -0.1048
 1154DPPI   C2A16960  16.069  13.453   6.790  0.3739 -0.2389 -0.0100
 1154DPPI   C3A16961  16.161  13.640   7.252  0.4722  0.0564  0.1290
 1154DPPI   C4A16962  16.449  13.951   7.663 -0.1232 -0.2452 -0.1685
 1154DPPI   C1B16963  15.377  14.016   7.074  0.2536  0.0343  0.0815
 1154DPPI   C2B16964  15.414  14.340   7.270 -0.2551  0.0028  0.0808
 1154DPPI   C3B16965  15.570  14.444   7.620 -0.0737  0.4962 -0.1945
 1154DPPI   C4B16966  15.560  14.665   7.920  0.0850  0.1662  0.0351
 1155DPPI    C116967   4.224  12.011   5.504  0.0306 -0.0551  0.0425
 1155DPPI    C216968   4.443  12.329   5.399  0.0307 -0.0959 -0.0831
 1155DPPI    C316969   4.241  12.125   5.121 -0.1120 -0.1000  0.0221
 1155DPPI   PO416970   4.179  12.107   5.730  0.1077  0.2248 -0.2949
 1155DPPI   GL116971   4.382  11.768   6.054  0.0059 -0.1903  0.0329
 1155DPPI   GL216972   4.165  11.827   6.166 -0.0047  0.0405  0.2258
 1155DPPI   C1A16973   4.638  11.861   6.453 -0.0108 -0.0513  0.1985
 1155DPPI   C2A16974   4.711  11.931   6.924  0.1733 -0.3622 -0.1685
 1155DPPI   C3A16975   4.532  11.759   7.351 -0.4073 -0.0303  0.0216
 1155DPPI   C4A16976   4.348  11.727   7.887 -0.2031 -0.1253 -0.1077
 1155DPPI   C1B16977   4.188  12.028   6.467  0.0269  0.1908  0.0236
 1155DPPI   C2B16978   4.210  12.070   6.858  0.4777  0.2431 -0.1849
 1155DPPI   C3B16979   4.321  12.225   7.178  0.0996  0.0549  0.0881
 1155DPPI   C4B16980   4.159  12.103   7.567 -0.4410  0.0240 -0.0621
 1156DPPI    C116981   8.201  12.512   5.143 -0.0496  0.3219  0.0202
 1156DPPI    C216982   7.844  12.632   5.007 -0.0439  0.1152 -0.1838
 1156DPPI    C316983   7.912  12.243   5.074  0.0464  0.1846  0.1461
 1156DPPI   PO416984   8.251  12.719   5.326  0.2992  0.0807 -0.1303
 1156DPPI   GL116985   8.037  12.853   5.766 -0.0705 -0.0168 -0.0004
 1156DPPI   GL216986   7.782  12.638   5.979  0.1178  0.2437 -0.0017
 1156DPPI   C1A16987   8.114  12.954   6.190 -0.0494  0.1139  0.3101
 1156DPPI   C2A16988   8.134  13.035   6.669 -0.0221  0.2024 -0.0784
 1156DPPI   C3A16989   7.933  13.232   6.959  0.2792 -0.3502 -0.3526
 1156DPPI   C4A16990   8.032  13.310   7.318 -0.1539  0.1744  0.3574
 1156DPPI   C1B16991   7.604  12.761   6.319  0.0434 -0.2206 -0.1122
 1156DPPI   C2B16992   7.758  12.792   6.767  0.0886  0.5375  0.0651
 1156DPPI   C3B16993   7.559  12.883   7.141  0.0288 -0.0124 -0.2030
 1156DPPI   C4B16994   7.595  12.512   7.516  0.0586 -0.1167 -0.0430
 1157DPPI    C116995   3.916   6.832   5.521  0.3299  0.0161 -0.0070
 1157DPPI    C216996   3.979   6.652   5.169  0.0532 -0.1382  0.0198
 1157DPPI    C316997   4.000   7.051   5.196  0.1021 -0.1271 -0.1654
 1157DPPI   PO416998   4.084   6.647   5.700 -0.2704  0.2523  0.3508
 1157DPPI   GL116999   4.103   6.702   6.171 -0.2698 -0.0409  0.0078
 1157DPPI   GL217000   3.853   6.969   6.113  0.0274 -0.3280  0.0797
 1157DPPI   C1A17001   4.171   6.751   6.563 -0.0871 -0.0203  0.4108
 1157DPPI   C2A17002   3.980   6.683   6.908  0.1045 -0.4172  0.2159
 1157DPPI   C3A17003   3.904   6.678   7.419 -0.0380 -0.1656 -0.0287
 1157DPPI   C4A17004   3.914   6.799   7.820  0.2771  0.0123  0.0016
 1157DPPI   C1B17005   3.834   7.084   6.491 -0.2105  0.2072  0.0711
 1157DPPI   C2B17006   3.865   7.307   6.845 -0.2149  0.1759 -0.1038
 1157DPPI   C3B17007   3.973   7.459   7.187  0.0287 -0.1872  0.2236
 1157DPPI   C4B17008   3.971   7.859   7.346 -0.0070  0.3643 -0.1176
 1158DPPI    C117009  12.451   2.254   5.255  0.0212  0.0173 -0.1435
 1158DPPI    C217010  12.375   2.645   5.215 -0.1455  0.0243  0.2036
 1158DPPI    C317011  12.345   2.402   4.898 -0.1725  0.2692  0.0147
 1158DPPI   PO417012  12.434   2.312   5.557  0.1708 -0.2228  0.1754
 1158DPPI   GL117013  12.659   2.349   5.904  0.0782 -0.1465 -0.0065
 1158DPPI   GL217014  12.999   2.169   6.006 -0.0758 -0.2785 -0.1926
 1158DPPI   C1A17015  12.682   2.532   6.321  0.0706  0.0831 -0.3096
 1158DPPI   C2A17016  12.659   2.681   6.813 -0.0131 -0.0971 -0.4058
 1158DPPI   C3A17017  12.501   2.677   7.289 -0.0932  0.0620 -0.3110
 1158DPPI   C4A17018  12.386   2.560   7.658 -0.0156  0.0656 -0.1161
 1158DPPI   C1B17019  13.164   1.936   6.304 -0.1698 -0.2121 -0.0897
 1158DPPI   C2B17020  13.145   1.919   6.712 -0.2675 -0.0408 -0.2634
 1158DPPI   C3B17021  13.411   2.014   7.067 -0.3448  0.2559 -0.3358
 1158DPPI   C4B17022  13.411   2.243   7.341  0.0767  0.1033  0.0817
 1159DPPI    C117023  13.801  14.662   5.927 -0.1051 -0.3797  0.0554
 1159DPPI    C217024  13.665  14.564   5.564 -0.1612 -0.0431 -0.0179
 1159DPPI    C317025  13.899  14.885   5.610 -0.0155 -0.1806  0.2203
 1159DPPI   PO417026  13.771  14.369   6.109  0.2082 -0.0106  0.0540
 1159DPPI   GL117027  13.996  14.169   6.541  0.2230  0.2626  0.2309
 1159DPPI   GL217028  14.235  14.275   6.690  0.0355  0.0214  0.0154
 1159DPPI   C1A17029  13.791  14.464   6.734  0.1404 -0.1369 -0.0474
 1159DPPI   C2A17030  13.881  14.569   7.152 -0.2459 -0.3218 -0.0764
 1159DPPI   C3A17031  13.769  14.690   7.461  0.1719 -0.1043 -0.0865
 1159DPPI   C4A17032  13.650  14.771   7.755 -0.0408  0.1791  0.0630
 1159DPPI   C1B17033  14.379  14.607   6.959 -0.2568 -0.0165 -0.1035
 1159DPPI   C2B17034  14.366  14.655   7.315  0.1712  0.0075  0.0217
 1159DPPI   C3B17035  14.183  14.891   7.664  0.0632  0.0550 -0.0676
 1159DPPI   C4B17036  14.036  15.230   7.941  0.0436 -0.2152  0.1614
 1160DPPI    C117037   9.633   6.664   5.228  0.1694 -0.0422  0.2942
 1160DPPI    C217038   9.952   6.443   5.326  0.3095 -0.1051 -0.2707
 1160DPPI    C317039   9.794   6.415   4.959 -0.1154  0.2086 -0.1197
 1160DPPI   PO417040   9.486   6.704   5.473  0.4941 -0.0751  0.0274
 1160DPPI   GL117041   9.593   6.371   5.703  0.1325  0.2356 -0.0901
 1160DPPI   GL217042   9.389   6.106   5.840 -0.3047 -0.3463 -0.3924
 1160DPPI   C1A17043   9.839   6.293   6.081 -0.3655  0.2145 -0.1445
 1160DPPI   C2A17044   9.756   6.089   6.454 -0.0207  0.0167  0.0383
 1160DPPI   C3A17045   9.925   6.051   6.849  0.0586  0.1592 -0.2663
 1160DPPI   C4A17046  10.038   6.177   7.246  0.0392 -0.1161 -0.0772
 1160DPPI   C1B17047   9.346   5.776   6.204  0.2602  0.1977 -0.3569
 1160DPPI   C2B17048   9.381   5.776   6.595  0.1101  0.0109 -0.1069
 1160DPPI   C3B17049   9.446   5.950   7.002 -0.3012  0.5795  0.0238
 1160DPPI   C4B17050   9.235   6.048   7.348  0.0573 -0.1592  0.4998
 1161DPPI    C117051  12.887  15.652   5.407 -0.2292  0.0273 -0.1771
 1161DPPI    C217052  13.159  15.405   5.249 -0.1399  0.1648 -0.2401
 1161DPPI    C317053  12.789  15.417   5.098 -0.0970  0.1889 -0.3444
 1161DPPI   PO417054  12.897  15.580   5.638 -0.3443 -0.1124  0.0231
 1161DPPI   GL117055  12.733  15.647   6.036 -0.2177 -0.0142  0.1717
 1161DPPI   GL217056  12.366  15.656   6.143 -0.1289 -0.0924  0.1344
 1161DPPI   C1A17057  12.944  15.562   6.482  0.2711  0.0004  0.1870
 1161DPPI   C2A17058  12.854  15.682   6.913 -0.0262  0.1624  0.0404
 1161DPPI   C3A17059  12.856  16.008   7.284  0.0840 -0.0065  0.0816
 1161DPPI   C4A17060  12.902  16.150   7.692 -0.0750 -0.4648 -0.0344
 1161DPPI   C1B17061  12.439  15.801   6.541 -0.1846 -0.0115  0.1218
 1161DPPI   C2B17062  12.347  15.940   6.886  0.0499  0.0771 -0.1739
 1161DPPI   C3B17063  12.243  16.069   7.399 -0.3859 -0.3186  0.0845
 1161DPPI   C4B17064  12.300  16.184   7.738  0.1988  0.0915 -0.1488
 1162DPPI    C117065  16.483  18.159   5.398 -0.0002  0.1104  0.0229
 1162DPPI    C217066  16.778  17.980   5.195  0.1197  0.2273  0.0926
 1162DPPI    C317067  16.397  17.922   5.087  0.1376 -0.2812  0.2758
 1162DPPI   PO417068  16.547  18.235   5.694 -0.1294  0.0898  0.1380
 1162DPPI   GL117069  16.375  18.353   6.070  0.3199 -0.0308  0.0492
 1162DPPI   GL217070  16.668  18.271   6.160  0.3483 -0.2663 -0.0750
 1162DPPI   C1A17071  15.990  18.365   6.405 -0.1747 -0.1530 -0.0697
 1162DPPI   C2A17072  15.882  18.329   6.829  0.3799  0.2875 -0.0217
 1162DPPI   C3A17073  15.846  18.297   7.245  0.2333  0.1874 -0.0302
 1162DPPI   C4A17074  15.817  18.451   7.686  0.1594 -0.1258 -0.1210
 1162DPPI   C1B17075  16.514  18.295   6.580 -0.0349  0.1007 -0.3484
 1162DPPI   C2B17076  16.373  18.223   7.056 -0.2550  0.0558  0.1280
 1162DPPI   C3B17077  16.312  18.172   7.469 -0.4045  0.0730 -0.1590
 1162DPPI   C4B17078  16.341  18.139   7.946 -0.2147 -0.1821  0.0595
 1163DPPI    C117079  11.875  14.375   5.896 -0.1377 -0.0717  0.0248
 1163DPPI    C217080  11.645  14.192   5.625 -0.1696 -0.1122  0.0792
 1163DPPI    C317081  12.008  14.322   5.523 -0.2470  0.0221 -0.0281
 1163DPPI   PO417082  11.738  14.659   6.069  0.0019  0.1288  0.0104
 1163DPPI   GL117083  11.575  15.079   6.179  0.1426 -0.0131 -0.2005
 1163DPPI   GL217084  11.352  14.863   6.305 -0.2547 -0.0258  0.0981
 1163DPPI   C1A17085  11.600  15.224   6.596 -0.4345 -0.2987  0.2945
 1163DPPI   C2A17086  11.532  15.316   7.007 -0.2683 -0.1113 -0.2150
 1163DPPI   C3A17087  11.274  15.374   7.460 -0.0698  0.0544 -0.0362
 1163DPPI   C4A17088  11.363  15.244   7.814 -0.2358  0.0769 -0.0090
 1163DPPI   C1B17089  11.354  14.742   6.790 -0.1217  0.0408 -0.3336
 1163DPPI   C2B17090  11.308  14.877   7.214  0.2819 -0.3312 -0.0990
 1163DPPI   C3B17091  11.005  14.651   7.485 -0.1647 -0.1155  0.1513
 1163DPPI   C4B17092  10.623  14.477   7.710 -0.4956  0.2428  0.2502
 1164DPPI    C117093  11.559   6.336   5.611 -0.1906 -0.0972  0.0066
 1164DPPI    C217094  11.563   6.464   5.232 -0.2631 -0.0741  0.0134
 1164DPPI    C317095  11.488   6.721   5.529 -0.0628 -0.0629  0.0557
 1164DPPI   PO417096  11.341   6.161   5.684  0.1758  0.0655  0.1332
 1164DPPI   GL117097  11.140   6.031   5.980  0.0740  0.2432 -0.3827
 1164DPPI   GL217098  10.854   6.170   5.871 -0.1559  0.0495 -0.1498
 1164DPPI   C1A17099  11.121   6.192   6.403 -0.2338 -0.0127  0.0114
 1164DPPI   C2A17100  11.042   6.339   6.754  0.0852 -0.0776  0.1403
 1164DPPI   C3A17101  10.965   6.290   7.234  0.0475 -0.3526 -0.1185
 1164DPPI   C4A17102  10.961   6.175   7.649  0.0331  0.0127 -0.0787
 1164DPPI   C1B17103  10.620   6.220   6.292 -0.0928 -0.1603 -0.0146
 1164DPPI   C2B17104  10.575   6.065   6.630 -0.1536 -0.0696  0.1355
 1164DPPI   C3B17105  10.408   6.012   7.004 -0.1079 -0.1073  0.0476
 1164DPPI   C4B17106  10.557   6.003   7.400 -0.1810 -0.2703 -0.1638
 1165DPPI    C117107   8.570   7.990   5.430  0.0744  0.0494 -0.0467
 1165DPPI    C217108   8.330   8.035   5.113 -0.0411  0.2090  0.0621
 1165DPPI    C317109   8.491   8.356   5.290  0.0446  0.1189  0.1488
 1165DPPI   PO417110   8.433   7.859   5.590  0.2055 -0.2280  0.4827
 1165DPPI   GL117111   8.151   7.785   5.879 -0.1267 -0.1164  0.1038
 1165DPPI   GL217112   8.149   8.090   5.940  0.0872 -0.0979 -0.4521
 1165DPPI   C1A17113   8.315   7.796   6.341  0.2488 -0.0535  0.1430
 1165DPPI   C2A17114   8.464   7.995   6.670  0.3157  0.1077  0.0712
 1165DPPI   C3A17115   8.562   7.831   7.035 -0.1199 -0.2741 -0.2269
 1165DPPI   C4A17116   8.883   7.753   7.367 -0.0650 -0.0617  0.2746
 1165DPPI   C1B17117   8.437   8.288   6.242  0.0789 -0.0978 -0.0516
 1165DPPI   C2B17118   8.748   8.353   6.619  0.2377 -0.2765  0.0018
 1165DPPI   C3B17119   8.756   8.357   6.960  0.2136  0.1668  0.0951
 1165DPPI   C4B17120   8.841   8.299   7.391 -0.3535 -0.0352 -0.1265
 1166DPPI    C117121   2.251   3.913   5.845  0.1076  0.1044  0.0513
 1166DPPI    C217122   2.313   3.990   5.457 -0.2133 -0.0290 -0.0297
 1166DPPI    C317123   2.145   4.267   5.691 -0.0564  0.0367  0.0064
 1166DPPI   PO417124   2.589   3.830   5.888  0.1731 -0.0666 -0.2954
 1166DPPI   GL117125   3.012   3.661   6.051 -0.1705  0.0705 -0.1689
 1166DPPI   GL217126   3.271   3.712   6.298  0.4592  0.0392 -0.0955
 1166DPPI   C1A17127   2.772   3.654   6.468  0.0998 -0.1010 -0.0984
 1166DPPI   C2A17128   2.853   3.553   6.788  0.2792  0.1704 -0.1819
 1166DPPI   C3A17129   2.691   3.539   7.310  0.3509 -0.0280  0.1674
 1166DPPI   C4A17130   2.680   3.758   7.727 -0.3257 -0.0594 -0.3593
 1166DPPI   C1B17131   3.480   3.713   6.661 -0.1878  0.1779  0.2239
 1166DPPI   C2B17132   3.591   3.474   7.037  0.1108  0.1801 -0.1068
 1166DPPI   C3B17133   3.544   3.525   7.493  0.0414 -0.2871  0.0411
 1166DPPI   C4B17134   3.504   3.361   7.922 -0.1647  0.0754 -0.1495
 1167DPPI    C117135   3.774  10.510   5.441  0.1986  0.0112 -0.0052
 1167DPPI    C217136   3.997  10.786   5.627 -0.0253  0.0921  0.1483
 1167DPPI    C317137   3.613  10.737   5.729  0.0426 -0.3604  0.2079
 1167DPPI   PO417138   3.874  10.287   5.482  0.4848 -0.4160 -0.1215
 1167DPPI   GL117139   3.860  10.155   5.920 -0.0662 -0.0656 -0.1977
 1167DPPI   GL217140   4.008  10.460   5.986  0.2048  0.1721  0.1930
 1167DPPI   C1A17141   3.852   9.951   6.421  0.0150 -0.2279 -0.2270
 1167DPPI   C2A17142   3.972  10.035   6.898  0.2637 -0.0923  0.2033
 1167DPPI   C3A17143   4.121  10.206   7.302  0.1375  0.0317  0.1733
 1167DPPI   C4A17144   4.217  10.305   7.706  0.1297  0.1583 -0.2587
 1167DPPI   C1B17145   4.315  10.802   6.202 -0.1860 -0.1573  0.1064
 1167DPPI   C2B17146   4.277  10.869   6.608 -0.0905 -0.1593  0.0861
 1167DPPI   C3B17147   4.318  11.051   6.885 -0.1957  0.2536  0.2234
 1167DPPI   C4B17148   4.336  11.198   7.277  0.1271  0.1804 -0.1177
 1168DPPI    C117149   5.063  13.426   5.124  0.1104 -0.0181 -0.0943
 1168DPPI    C217150   4.965  13.629   4.794  0.2370  0.2710  0.0421
 1168DPPI    C317151   5.201  13.308   4.768 -0.1550 -0.0063 -0.2030
 1168DPPI   PO417152   5.143  13.502   5.437 -0.2783  0.2563 -0.1658
 1168DPPI   GL117153   5.274  13.188   5.732  0.0707  0.4700 -0.1619
 1168DPPI   GL217154   5.256  12.915   5.790  0.2158  0.0821  0.0966
 1168DPPI   C1A17155   5.308  13.378   6.134 -0.1606  0.0112 -0.1789
 1168DPPI   C2A17156   5.291  13.424   6.606  0.1709  0.0407  0.0761
 1168DPPI   C3A17157   5.166  13.519   7.004  0.1077  0.5158 -0.0413
 1168DPPI   C4A17158   5.059  13.610   7.455  0.0319 -0.0124  0.0961
 1168DPPI   C1B17159   5.492  12.895   6.119  0.0421 -0.0534  0.2413
 1168DPPI   C2B17160   5.664  12.820   6.525  0.1128 -0.1348 -0.0362
 1168DPPI   C3B17161   5.348  13.025   6.940  0.0129 -0.0862  0.1603
 1168DPPI   C4B17162   5.067  13.110   7.329  0.1768  0.0680  0.5527
 1169DPPI    C117163   9.069  15.347   5.882  0.0396 -0.0711 -0.0723
 1169DPPI    C217164   8.811  15.333   5.577  0.1033 -0.0739 -0.1263
 1169DPPI    C317165   9.112  15.070   5.597  0.0482 -0.1292 -0.0149
 1169DPPI   PO417166   9.148  15.578   5.923  0.0705  0.0927 -0.2471
 1169DPPI   GL117167   9.096  15.811   6.302  0.3007 -0.0500  0.1155
 1169DPPI   GL217168   9.202  16.168   6.319  0.1153  0.2829  0.0724
 1169DPPI   C1A17169   8.772  16.039   6.562 -0.5276  0.2372  0.1317
 1169DPPI   C2A17170   8.600  16.249   6.823  0.1385 -0.1443  0.2804
 1169DPPI   C3A17171   8.703  16.349   7.143  0.0948 -0.1089  0.1917
 1169DPPI   C4A17172   8.696  16.522   7.536  0.1480  0.1630  0.1539
 1169DPPI   C1B17173   9.227  16.166   6.884  0.1058 -0.2753 -0.2572
 1169DPPI   C2B17174   9.131  16.235   7.357 -0.1480  0.0267  0.3234
 1169DPPI   C3B17175   8.981  16.189   7.773  0.0517  0.1331  0.0795
 1169DPPI   C4B17176   8.775  16.424   8.077  0.1257  0.3464 -0.1694
 1170DPPI    C117177   1.757   2.679   5.595 -0.1521  0.2717  0.3196
 1170DPPI    C217178   1.874   3.059   5.554 -0.1544  0.2418  0.0127
 1170DPPI    C317179   2.004   2.781   5.297 -0.3621  0.0838  0.0761
 1170DPPI   PO417180   1.755   2.600   5.784  0.1046  0.0104 -0.3051
 1170DPPI   GL117181   1.604   2.733   6.244 -0.2786  0.2028 -0.2223
 1170DPPI   GL217182   1.380   2.595   6.101 -0.1611 -0.0126 -0.0224
 1170DPPI   C1A17183   1.552   2.556   6.596  0.2366  0.1648  0.1871
 1170DPPI   C2A17184   1.559   2.430   7.117 -0.0740  0.0857  0.0332
 1170DPPI   C3A17185   1.664   2.689   7.473  0.1496 -0.0255 -0.1355
 1170DPPI   C4A17186   1.696   2.715   7.914 -0.2463  0.2784  0.3268
 1170DPPI   C1B17187   1.163   2.379   6.420  0.1544 -0.1152  0.2324
 1170DPPI   C2B17188   1.154   2.209   6.857 -0.0564 -0.0407 -0.1833
 1170DPPI   C3B17189   1.292   1.911   7.234 -0.0552  0.1195 -0.0400
 1170DPPI   C4B17190   1.493   1.837   7.547  0.0908  0.0213  0.1621
 1171DPPI    C117191  10.789   4.688   5.662 -0.1603 -0.0153 -0.0535
 1171DPPI    C217192  11.037   4.883   5.416 -0.1097 -0.0689 -0.0455
 1171DPPI    C317193  10.990   4.487   5.381  0.0337 -0.1041  0.1455
 1171DPPI   PO417194  10.662   4.879   5.774  0.1266 -0.3413  0.1131
 1171DPPI   GL117195  10.735   4.845   6.269  0.1813 -0.2035 -0.0033
 1171DPPI   GL217196  10.501   4.843   6.237  0.0119 -0.0518 -0.0805
 1171DPPI   C1A17197  10.933   4.682   6.732  0.0216 -0.2128 -0.1977
 1171DPPI   C2A17198  11.053   4.834   7.112  0.2680 -0.0098 -0.2153
 1171DPPI   C3A17199  11.062   5.162   7.359 -0.0709 -0.1762  0.3054
 1171DPPI   C4A17200  11.087   5.180   7.805 -0.0600 -0.1328  0.3033
 1171DPPI   C1B17201  10.454   4.901   6.769 -0.1309 -0.1304 -0.2071
 1171DPPI   C2B17202  10.590   4.679   7.155 -0.2279 -0.1635 -0.0998
 1171DPPI   C3B17203  10.412   4.589   7.600  0.1754  0.2762  0.1131
 1171DPPI   C4B17204  10.096   4.310   7.750 -0.0276  0.1165 -0.1587
 1172DPPI    C117205   0.943   0.374   5.501 -0.2299 -0.0347 -0.1128
 1172DPPI    C217206   0.866   0.621   5.196 -0.0383  0.2225  0.0434
 1172DPPI    C317207   0.965   0.241   5.125 -0.3269  0.1892 -0.1999
 1172DPPI   PO417208   0.770   0.432   5.676 -0.1839  0.1468  0.1732
 1172DPPI   GL117209   0.737   0.434   6.087 -0.1197  0.1322 -0.1277
 1172DPPI   GL217210   0.485   0.289   6.082  0.0321  0.1184 -0.0935
 1172DPPI   C1A17211   0.704   0.521   6.534  0.1425  0.0921  0.0386
 1172DPPI   C2A17212   0.792   0.465   6.966 -0.1367  0.3200 -0.0387
 1172DPPI   C3A17213   0.934   0.363   7.391  0.0442  0.2053 -0.0260
 1172DPPI   C4A17214   0.819   0.339   7.816 -0.0944  0.3398 -0.1363
 1172DPPI   C1B17215   0.593  -0.025   6.509  0.3060  0.2435  0.1478
 1172DPPI   C2B17216   0.679  -0.012   6.997 -0.1040  0.1012 -0.0542
 1172DPPI   C3B17217   0.652  -0.168   7.464  0.0438  0.0195  0.2468
 1172DPPI   C4B17218   0.654  -0.163   7.963  0.1490  0.0354 -0.3145
 1173DPPI    C117219  13.750   4.400   5.653  0.1331  0.0160  0.1634
 1173DPPI    C217220  13.916   4.707   5.458 -0.0792  0.0150 -0.0218
 1173DPPI    C317221  13.548   4.583   5.361 -0.0271 -0.2468  0.1063
 1173DPPI   PO417222  13.837   4.497   5.976  0.2607  0.1826  0.1312
 1173DPPI   GL117223  13.839   4.543   6.415  0.0678 -0.3252 -0.2310
 1173DPPI   GL217224  13.892   4.775   6.358 -0.0342  0.0610 -0.0009
 1173DPPI   C1A17225  13.633   4.303   6.735 -0.1591  0.2685  0.0086
 1173DPPI   C2A17226  13.571   4.291   7.103 -0.0432 -0.1781 -0.3229
 1173DPPI   C3A17227  13.625   4.130   7.611  0.0093 -0.0552  0.0539
 1173DPPI   C4A17228  13.359   4.066   7.974 -0.3360  0.4421 -0.0398
 1173DPPI   C1B17229  14.004   4.709   6.815 -0.2611 -0.1553 -0.0223
 1173DPPI   C2B17230  13.990   4.630   7.205  0.0038  0.1068  0.1462
 1173DPPI   C3B17231  13.886   4.548   7.634 -0.2071 -0.1371  0.0924
 1173DPPI   C4B17232  13.740   4.410   8.052  0.2422  0.0728  0.2120
 1174DPPI    C117233   5.869   3.141   4.924 -0.0366 -0.0244  0.1185
 1174DPPI    C217234   6.173   2.899   4.826 -0.0973 -0.0625  0.0227
 1174DPPI    C317235   6.090   3.218   4.599 -0.0129  0.0533  0.1530
 1174DPPI   PO417236   5.889   3.186   5.180  0.0638  0.1020  0.2487
 1174DPPI   GL117237   5.801   3.028   5.630 -0.0238 -0.1620  0.1130
 1174DPPI   GL217238   5.954   2.752   5.763  0.0755 -0.1144 -0.0914
 1174DPPI   C1A17239   5.878   3.245   6.032 -0.1607  0.0463 -0.0754
 1174DPPI   C2A17240   5.790   3.385   6.512  0.0875 -0.2575  0.2026
 1174DPPI   C3A17241   5.736   3.449   6.947 -0.1145  0.1377 -0.0474
 1174DPPI   C4A17242   5.655   3.704   7.238  0.0603  0.1848 -0.1122
 1174DPPI   C1B17243   5.976   2.817   6.267  0.3161 -0.0569  0.0095
 1174DPPI   C2B17244   5.733   2.902   6.570 -0.1116  0.0404  0.1166
 1174DPPI   C3B17245   5.528   2.971   6.969 -0.0665 -0.1334 -0.0302
 1174DPPI   C4B17246   5.281   3.373   7.049  0.2908  0.0521  0.0585
 1175DPPI    C117247  18.187   6.043   6.097  0.0689 -0.1359  0.0691
 1175DPPI    C217248  18.408   5.935   5.781 -0.1998 -0.2398 -0.0866
 1175DPPI    C317249  18.092   6.176   5.732 -0.0561  0.0023  0.1511
 1175DPPI   PO417250  18.141   5.841   6.244  0.1905  0.0498  0.3555
 1175DPPI   GL117251  17.991   5.882   6.660  0.0019 -0.1230  0.1429
 1175DPPI   GL217252  17.919   6.159   6.535  0.0375  0.0735 -0.0221
 1175DPPI   C1A17253  17.939   5.701   7.033  0.0984  0.1775  0.0114
 1175DPPI   C2A17254  17.970   5.564   7.403 -0.4525  0.2316 -0.1415
 1175DPPI   C3A17255  18.061   5.715   7.796  0.2230  0.2670  0.2414
 1175DPPI   C4A17256  18.266   5.816   8.200 -0.0333 -0.0939  0.1488
 1175DPPI   C1B17257  17.809   6.169   7.016 -0.2279  0.2068 -0.3586
 1175DPPI   C2B17258  17.787   6.035   7.423 -0.1350 -0.0059 -0.1754
 1175DPPI   C3B17259  17.790   6.122   7.895 -0.1507  0.0910  0.0902
 1175DPPI   C4B17260  17.849   6.146   8.342  0.2401  0.0752 -0.1346
 1176DPPI    C117261  12.784   9.216   5.667  0.0719 -0.2018  0.1344
 1176DPPI    C217262  13.171   9.141   5.599  0.0742 -0.0157 -0.0695
 1176DPPI    C317263  12.899   8.852   5.545  0.2010 -0.1993  0.2467
 1176DPPI   PO417264  12.791   9.337   5.847  0.1950  0.1672  0.2198
 1176DPPI   GL117265  13.029   9.456   6.197 -0.0437 -0.2961 -0.0276
 1176DPPI   GL217266  13.114   9.175   6.192 -0.1838  0.0934 -0.0534
 1176DPPI   C1A17267  13.294   9.444   6.628  0.2726 -0.0601  0.0495
 1176DPPI   C2A17268  13.363   9.591   6.992  0.2399 -0.2270  0.4316
 1176DPPI   C3A17269  13.295   9.656   7.455  0.0096 -0.1069 -0.2034
 1176DPPI   C4A17270  13.159   9.521   7.775 -0.1632 -0.2456 -0.1765
 1176DPPI   C1B17271  12.978   8.896   6.469  0.3030  0.0142 -0.0097
 1176DPPI   C2B17272  13.014   8.796   6.860  0.1472  0.7058  0.1286
 1176DPPI   C3B17273  12.972   8.677   7.284 -0.2357  0.1501  0.1048
 1176DPPI   C4B17274  13.071   8.405   7.634 -0.0990 -0.1335  0.1611
 1177DPPI    C117275  16.420   2.042   5.616 -0.0072 -0.1171 -0.0398
 1177DPPI    C217276  16.633   1.725   5.496 -0.2400 -0.2721 -0.0496
 1177DPPI    C317277  16.551   2.020   5.239  0.2046 -0.0720  0.0298
 1177DPPI   PO417278  16.557   2.043   5.864 -0.1032  0.2793  0.1716
 1177DPPI   GL117279  16.708   1.951   6.198 -0.0354 -0.1588  0.2251
 1177DPPI   GL217280  16.470   1.834   6.392 -0.2333  0.0551 -0.3202
 1177DPPI   C1A17281  16.941   2.041   6.600  0.1929  0.0357  0.2406
 1177DPPI   C2A17282  16.971   1.801   7.035 -0.0772 -0.0781 -0.1664
 1177DPPI   C3A17283  17.048   1.795   7.520 -0.3074  0.2458 -0.0992
 1177DPPI   C4A17284  16.906   1.802   7.869 -0.0662  0.1207 -0.0666
 1177DPPI   C1B17285  16.444   1.918   6.731 -0.2678 -0.0567 -0.0375
 1177DPPI   C2B17286  16.518   1.738   7.111  0.0862 -0.1514  0.0102
 1177DPPI   C3B17287  16.552   1.764   7.517 -0.1749 -0.3149 -0.1363
 1177DPPI   C4B17288  16.538   1.483   7.868  0.0955  0.3053 -0.2563
 1178DPPI    C117289   2.614  15.508   5.347  0.1843 -0.0937 -0.1732
 1178DPPI    C217290   2.425  15.820   5.182  0.0381 -0.1472 -0.1094
 1178DPPI    C317291   2.576  15.531   4.950  0.1784 -0.0276 -0.1689
 1178DPPI   PO417292   2.632  15.566   5.617  0.0346  0.3602  0.3579
 1178DPPI   GL117293   2.502  15.792   5.849 -0.1062 -0.0722 -0.1190
 1178DPPI   GL217294   2.256  16.073   5.936 -0.0504  0.0090 -0.0620
 1178DPPI   C1A17295   2.765  15.840   6.197 -0.1986 -0.1518  0.2804
 1178DPPI   C2A17296   2.822  15.885   6.594  0.2239  0.1411 -0.0585
 1178DPPI   C3A17297   2.950  15.874   7.081 -0.1331  0.0538 -0.0138
 1178DPPI   C4A17298   3.079  15.842   7.497  0.2774 -0.0702  0.1023
 1178DPPI   C1B17299   2.062  16.328   6.288 -0.0378  0.0018  0.0288
 1178DPPI   C2B17300   1.970  16.358   6.696  0.0011  0.0929 -0.0289
 1178DPPI   C3B17301   1.734  16.399   7.008  0.3176  0.2744 -0.3007
 1178DPPI   C4B17302   1.680  16.158   7.419 -0.4393  0.0973 -0.3847
 1179DPPI    C117303   3.530  16.700   5.480  0.1040  0.0008 -0.0541
 1179DPPI    C217304   3.463  16.954   5.178  0.1805  0.1406  0.0454
 1179DPPI    C317305   3.769  16.698   5.160  0.1960  0.1614  0.0123
 1179DPPI   PO417306   3.285  16.694   5.566 -0.3265  0.2047 -0.0255
 1179DPPI   GL117307   3.098  16.515   5.968 -0.0871 -0.1166 -0.0450
 1179DPPI   GL217308   2.807  16.284   5.957  0.3028  0.3622  0.1295
 1179DPPI   C1A17309   3.353  16.745   6.231 -0.2919 -0.1847 -0.3667
 1179DPPI   C2A17310   3.413  16.722   6.743  0.1988  0.1032  0.2303
 1179DPPI   C3A17311   3.456  16.762   7.112 -0.1687 -0.1594 -0.0702
 1179DPPI   C4A17312   3.546  16.732   7.495 -0.1588 -0.0038 -0.1329
 1179DPPI   C1B17313   2.604  16.269   6.280  0.3750  0.3123 -0.1959
 1179DPPI   C2B17314   2.650  16.278   6.758  0.1582  0.0401 -0.2225
 1179DPPI   C3B17315   2.693  16.258   7.218  0.1063  0.1489  0.0374
 1179DPPI   C4B17316   2.743  16.166   7.655  0.2996  0.0999 -0.0226
 1180DPPI    C117317   0.590  13.255   5.343  0.1563  0.0284  0.1491
 1180DPPI    C217318   0.219  13.403   5.361  0.1400 -0.0361  0.3717
 1180DPPI    C317319   0.276  13.007   5.354  0.1911 -0.0261 -0.0392
 1180DPPI   PO417320   0.713  13.379   5.533  0.1855 -0.0162  0.1540
 1180DPPI   GL117321   0.807  13.248   5.898  0.1483 -0.0187  0.0184
 1180DPPI   GL217322   0.979  13.039   6.211 -0.0677  0.0512 -0.0228
 1180DPPI   C1A17323   0.874  13.537   6.291 -0.1127 -0.0368  0.1230
 1180DPPI   C2A17324   0.919  13.406   6.704 -0.1292  0.3832  0.0079
 1180DPPI   C3A17325   0.994  13.525   7.116  0.2216  0.1630 -0.2299
 1180DPPI   C4A17326   1.086  13.591   7.547 -0.1899 -0.0056 -0.4042
 1180DPPI   C1B17327   1.024  12.886   6.672 -0.1399  0.1486  0.0144
 1180DPPI   C2B17328   1.166  13.004   7.051 -0.1652 -0.2410 -0.0492
 1180DPPI   C3B17329   1.235  13.079   7.409  0.0266  0.1486 -0.2946
 1180DPPI   C4B17330   1.388  13.303   7.858  0.0182 -0.3510  0.1738
 1181DPPI    C117331   0.099   5.363   6.021  0.0086  0.0304 -0.0205
 1181DPPI    C217332   0.219   5.056   5.794  0.1144  0.0834 -0.0373
 1181DPPI    C317333   0.213   5.426   5.643  0.1011  0.1066  0.0195
 1181DPPI   PO417334  -0.049   5.225   6.292  0.1492 -0.1341  0.1449
 1181DPPI   GL117335  -0.068   5.421   6.663 -0.1382  0.0142 -0.2731
 1181DPPI   GL217336   0.199   5.629   6.561  0.0211 -0.2277 -0.0754
 1181DPPI   C1A17337   0.178   5.495   7.139 -0.1397 -0.0814 -0.0838
 1181DPPI   C2A17338   0.245   5.510   7.561  0.0406 -0.1501 -0.0635
 1181DPPI   C3A17339   0.408   5.734   7.844 -0.1245  0.2762  0.0750
 1181DPPI   C4A17340   0.593   5.694   8.281 -0.0294  0.0383  0.0023
 1181DPPI   C1B17341   0.468   5.736   6.798 -0.3095  0.0608 -0.1447
 1181DPPI   C2B17342   0.561   5.790   7.171 -0.0958 -0.2299 -0.0549
 1181DPPI   C3B17343   0.726   5.630   7.478  0.0590 -0.1629 -0.3236
 1181DPPI   C4B17344   0.901   5.715   7.879  0.2978 -0.0489  0.1216
 1182DPPI    C117345  16.588  17.593   5.376 -0.0438 -0.1344  0.0722
 1182DPPI    C217346  16.313  17.375   5.185 -0.1289  0.1092 -0.0877
 1182DPPI    C317347  16.657  17.466   5.004 -0.0739  0.0687 -0.0040
 1182DPPI   PO417348  16.504  17.572   5.596  0.5087 -0.0732 -0.3358
 1182DPPI   GL117349  16.484  17.850   6.047 -0.3188 -0.1961  0.3034
 1182DPPI   GL217350  16.119  17.905   6.112  0.1118  0.1197  0.2713
 1182DPPI   C1A17351  16.461  17.659   6.446 -0.0403 -0.0619  0.0609
 1182DPPI   C2A17352  16.552  17.696   6.882 -0.0884 -0.0482  0.0255
 1182DPPI   C3A17353  16.614  17.715   7.234 -0.0330  0.1397  0.0763
 1182DPPI   C4A17354  16.522  17.729   7.652  0.0610 -0.1084 -0.3057
 1182DPPI   C1B17355  16.013  17.844   6.567  0.5275  0.1009 -0.0720
 1182DPPI   C2B17356  16.059  17.862   6.933 -0.0063 -0.1124  0.4488
 1182DPPI   C3B17357  15.945  17.783   7.306 -0.0976 -0.1503 -0.2633
 1182DPPI   C4B17358  16.034  17.777   7.669  0.1054 -0.1368 -0.0673
 1183DPPI    C117359   6.208  14.942   5.190 -0.0598 -0.1372  0.0822
 1183DPPI    C217360   5.985  15.085   4.890 -0.1407  0.0636  0.2363
 1183DPPI    C317361   5.909  14.722   5.040  0.1228 -0.1891 -0.2165
 1183DPPI   PO417362   6.194  15.102   5.322  0.1663 -0.0703 -0.2062
 1183DPPI   GL117363   5.944  15.191   5.774  0.2336  0.3329 -0.0107
 1183DPPI   GL217364   6.119  15.317   5.973 -0.0685  0.3998 -0.2085
 1183DPPI   C1A17365   5.545  14.970   6.030  0.1509 -0.3158  0.1522
 1183DPPI   C2A17366   5.685  14.705   6.467  0.1080  0.1025  0.0473
 1183DPPI   C3A17367   5.770  14.782   6.914 -0.0532  0.1324  0.1117
 1183DPPI   C4A17368   5.859  14.718   7.399  0.0054 -0.0185  0.2697
 1183DPPI   C1B17369   6.082  15.185   6.335 -0.1151 -0.0584 -0.0542
 1183DPPI   C2B17370   6.064  15.164   6.793  0.3247 -0.4158  0.2741
 1183DPPI   C3B17371   6.101  15.162   7.157  0.1113  0.2845 -0.3136
 1183DPPI   C4B17372   5.909  15.221   7.612 -0.0655 -0.0456 -0.0616
 1184DPPI    C117373   0.930  15.301   5.530  0.0991  0.0545 -0.1070
 1184DPPI    C217374   0.832  14.968   5.330  0.0024  0.0085  0.0157
 1184DPPI    C317375   1.011  15.271   5.139  0.2075 -0.1634 -0.0698
 1184DPPI   PO417376   0.985  15.173   5.769 -0.2665  0.0168 -0.0716
 1184DPPI   GL117377   0.868  15.226   6.184  0.1683 -0.0275 -0.0099
 1184DPPI   GL217378   1.090  14.949   6.231 -0.1952  0.0223  0.0742
 1184DPPI   C1A17379   0.952  15.325   6.581 -0.0972  0.3176 -0.1055
 1184DPPI   C2A17380   1.023  15.346   6.909 -0.1078 -0.0250 -0.0413
 1184DPPI   C3A17381   1.092  15.332   7.324 -0.0136  0.0684 -0.1389
 1184DPPI   C4A17382   1.192  15.352   7.763 -0.2670  0.2585  0.0929
 1184DPPI   C1B17383   1.280  14.914   6.652 -0.1454  0.1475  0.1817
 1184DPPI   C2B17384   1.262  14.986   7.041  0.0097  0.0987 -0.1346
 1184DPPI   C3B17385   1.395  14.858   7.379 -0.0218  0.1144  0.3076
 1184DPPI   C4B17386   1.485  14.764   7.835  0.2681  0.1295 -0.0964
 1185DPPI    C117387  10.855  16.238   5.150  0.0338 -0.1599 -0.0978
 1185DPPI    C217388  10.896  16.621   5.258 -0.1088 -0.0760 -0.3346
 1185DPPI    C317389  11.215  16.412   5.140  0.0202 -0.1198  0.0777
 1185DPPI   PO417390  10.781  16.146   5.296  0.3581 -0.0447  0.1621
 1185DPPI   GL117391  10.821  16.231   5.751  0.0647  0.2388  0.0779
 1185DPPI   GL217392  10.947  16.516   5.912 -0.1146  0.2505  0.3689
 1185DPPI   C1A17393  10.731  15.997   6.206  0.0659  0.0294 -0.0387
 1185DPPI   C2A17394  10.990  16.093   6.566  0.2538 -0.0718 -0.0304
 1185DPPI   C3A17395  11.070  16.170   6.969  0.2262  0.0728 -0.2891
 1185DPPI   C4A17396  11.163  16.133   7.460 -0.1164 -0.3457  0.0779
 1185DPPI   C1B17397  11.164  16.535   6.390  0.2763  0.0803 -0.2317
 1185DPPI   C2B17398  11.423  16.715   6.765  0.2676 -0.0941  0.2513
 1185DPPI   C3B17399  11.496  16.930   7.134 -0.3238 -0.0040  0.0738
 1185DPPI   C4B17400  11.317  17.114   7.521 -0.1725 -0.2213  0.0765
 1186DPPI    C117401   1.338  16.149   5.734  0.0979 -0.1928  0.1761
 1186DPPI    C217402   1.736  16.138   5.771  0.1645  0.1359 -0.3431
 1186DPPI    C317403   1.555  15.917   5.490 -0.0253 -0.0280 -0.0958
 1186DPPI   PO417404   1.201  16.184   5.991 -0.3818  0.4980 -0.2501
 1186DPPI   GL117405   1.245  16.421   6.233  0.1048 -0.0982 -0.1619
 1186DPPI   GL217406   1.576  16.431   6.251 -0.2457  0.5301  0.3586
 1186DPPI   C1A17407   1.265  16.346   6.660  0.1540  0.0716 -0.1879
 1186DPPI   C2A17408   1.217  16.378   7.171 -0.1009 -0.1166 -0.2660
 1186DPPI   C3A17409   1.091  16.277   7.608 -0.2116 -0.1678 -0.0818
 1186DPPI   C4A17410   0.981  16.558   8.027  0.1221 -0.1335 -0.1256
 1186DPPI   C1B17411   1.722  16.716   6.487 -0.1404  0.2461 -0.2807
 1186DPPI   C2B17412   1.839  16.853   6.967 -0.0716 -0.0004  0.2196
 1186DPPI   C3B17413   2.007  16.630   7.397  0.2373 -0.0019  0.1266
 1186DPPI   C4B17414   2.042  16.642   7.839  0.2729 -0.1790 -0.0045
 1187PYPI    C117415   2.871  11.650   5.535 -0.0268 -0.3462 -0.0015
 1187PYPI    C217416   3.055  11.732   5.190 -0.1895 -0.0241 -0.0152
 1187PYPI    C317417   2.783  11.439   5.207 -0.2577  0.0276 -0.1870
 1187PYPI   PO417418   3.030  11.548   5.697  0.2992 -0.1223  0.2450
 1187PYPI   GL117419   3.362  11.627   5.996 -0.0610  0.2311  0.0613
 1187PYPI   GL217420   3.467  11.334   5.978 -0.1247  0.0777  0.0277
 1187PYPI   C1A17421   3.325  11.746   6.441  0.2652  0.1294 -0.0288
 1187PYPI   C2A17422   3.339  11.657   6.896  0.0350  0.1594 -0.2476
 1187PYPI   D3A17423   3.282  12.085   7.009  0.0445  0.0662  0.1805
 1187PYPI   C4A17424   3.349  12.319   6.659 -0.0018  0.0497  0.0486
 1187PYPI   C1B17425   3.777  11.413   6.395 -0.0486  0.3923  0.0207
 1187PYPI   C2B17426   3.843  11.289   6.908  0.2401  0.0332 -0.1188
 1187PYPI   C3B17427   3.892  10.993   7.189 -0.3293 -0.0030  0.0397
 1187PYPI   C4B17428   3.891  11.143   7.598  0.0743 -0.1059 -0.0868
 1188PYPI    C117429  10.654  15.697   5.641  0.0721 -0.1804 -0.0874
 1188PYPI    C217430  10.989  15.505   5.536  0.1602 -0.0586 -0.0308
 1188PYPI    C317431  10.991  15.753   5.849  0.0301 -0.0160 -0.0631
 1188PYPI   PO417432  10.401  15.549   5.747 -0.2405 -0.1979  0.3613
 1188PYPI   GL117433  10.409  15.644   6.109 -0.2709  0.0645 -0.1672
 1188PYPI   GL217434  10.682  15.482   6.169  0.0928 -0.4501  0.2326
 1188PYPI   C1A17435  10.206  15.632   6.427  0.0104 -0.2051 -0.1600
 1188PYPI   C2A17436  10.045  15.756   6.778  0.0394  0.0936  0.1722
 1188PYPI   D3A17437   9.782  15.931   7.116  0.0177 -0.2266 -0.0599
 1188PYPI   C4A17438   9.716  15.809   7.521 -0.1181  0.0272 -0.0661
 1188PYPI   C1B17439  10.659  15.653   6.606  0.2280  0.0620  0.4525
 1188PYPI   C2B17440  10.513  15.871   7.153  0.2839  0.3074  0.0929
 1188PYPI   C3B17441  10.252  16.037   7.506  0.1199 -0.0985 -0.0625
 1188PYPI   C4B17442  10.380  16.252   7.929  0.0062  0.2894 -0.0078
 1189PYPI    C117443   0.235   8.248   5.852 -0.1239  0.0902  0.0519
 1189PYPI    C217444  -0.065   8.200   5.591 -0.0580 -0.2985  0.0423
 1189PYPI    C317445   0.245   7.947   5.589  0.3268  0.1583 -0.0169
 1189PYPI   PO417446   0.156   8.247   6.059 -0.0648  0.2648 -0.1929
 1189PYPI   GL117447   0.169   8.497   6.468 -0.1709  0.2469 -0.2472
 1189PYPI   GL217448  -0.039   8.674   6.642  0.0507 -0.1032 -0.0073
 1189PYPI   C1A17449   0.248   8.440   6.901  0.1979 -0.1268 -0.2413
 1189PYPI   C2A17450   0.086   8.438   7.371  0.1445  0.1784 -0.0457
 1189PYPI   D3A17451  -0.134   8.786   7.628  0.0114  0.3651 -0.0437
 1189PYPI   C4A17452  -0.064   8.855   8.039  0.2085  0.1116  0.0634
 1189PYPI   C1B17453  -0.289   8.479   6.916 -0.3020 -0.1998 -0.1302
 1189PYPI   C2B17454  -0.444   8.372   7.331 -0.0660 -0.1366  0.0222
 1189PYPI   C3B17455  -0.288   8.228   7.677  0.3754 -0.1068 -0.0915
 1189PYPI   C4B17456  -0.342   8.456   8.010  0.1696 -0.1973  0.2967
 1190PYPI    C117457  15.684   9.098   6.101  0.0181  0.0001  0.0076
 1190PYPI    C217458  15.607   9.374   5.822 -0.0629  0.0388  0.0678
 1190PYPI    C317459  15.421   9.020   5.810 -0.0329  0.0239  0.0471
 1190PYPI   PO417460  15.931   9.114   6.126 -0.0028 -0.1278 -0.0250
 1190PYPI   GL117461  16.226   9.234   6.397  0.1729  0.0842  0.2180
 1190PYPI   GL217462  15.933   9.138   6.633 -0.1606 -0.3692  0.0309
 1190PYPI   C1A17463  16.526   9.075   6.731 -0.1955  0.4641  0.2710
 1190PYPI   C2A17464  16.676   9.010   7.177 -0.1139  0.1567  0.1066
 1190PYPI   D3A17465  16.659   9.268   7.645 -0.0095  0.1043 -0.2113
 1190PYPI   C4A17466  16.748   9.292   8.104  0.0940 -0.0639 -0.1721
 1190PYPI   C1B17467  16.135   9.246   6.983  0.2156 -0.0406  0.0659
 1190PYPI   C2B17468  16.210   9.368   7.416 -0.0642 -0.2042  0.3103
 1190PYPI   C3B17469  16.102   9.427   7.874 -0.0716 -0.0487 -0.1592
 1190PYPI   C4B17470  15.924   9.415   8.213  0.4562 -0.0660 -0.2947
 1191PYPI    C117471  11.976   7.135   5.672 -0.0091  0.0705  0.2025
 1191PYPI    C217472  11.985   6.867   5.375 -0.0057  0.2862  0.0052
 1191PYPI    C317473  12.296   7.113   5.432  0.1437  0.0153  0.4077
 1191PYPI   PO417474  11.759   7.147   5.746 -0.0314  0.0286 -0.0743
 1191PYPI   GL117475  11.553   7.237   6.176  0.3854  0.1223  0.0257
 1191PYPI   GL217476  11.620   6.927   6.192  0.0244 -0.1286 -0.2471
 1191PYPI   C1A17477  11.228   7.409   6.463 -0.1408  0.3166 -0.0585
 1191PYPI   C2A17478  11.120   7.412   6.832  0.0816 -0.1049 -0.1427
 1191PYPI   D3A17479  11.216   7.519   7.341 -0.0122 -0.1404 -0.0862
 1191PYPI   C4A17480  10.851   7.836   7.491 -0.0359 -0.2220  0.1498
 1191PYPI   C1B17481  11.563   7.029   6.605 -0.2279  0.0957  0.0020
 1191PYPI   C2B17482  11.367   7.056   7.083  0.0006  0.1306 -0.0243
 1191PYPI   C3B17483  11.225   7.058   7.551  0.1535  0.0366  0.0104
 1191PYPI   C4B17484  11.275   6.819   7.951 -0.4597 -0.1535  0.1352
 1192PYPI    C117485   1.684   0.878   5.427 -0.1931  0.1328  0.0880
 1192PYPI    C217486   1.811   0.600   5.169 -0.1847  0.0554  0.1750
 1192PYPI    C317487   2.025   0.933   5.226 -0.0568 -0.0419  0.2678
 1192PYPI   PO417488   1.670   0.796   5.678 -0.0149 -0.0155  0.0639
 1192PYPI   GL117489   1.468   0.867   6.075  0.2041  0.0936 -0.0242
 1192PYPI   GL217490   1.683   0.491   6.100  0.0984  0.5544  0.0447
 1192PYPI   C1A17491   1.760   0.986   6.297  0.1081  0.0250  0.3325
 1192PYPI   C2A17492   1.867   1.014   6.670 -0.1087 -0.2983  0.0325
 1192PYPI   D3A17493   2.075   1.089   7.019  0.0931  0.0067 -0.1788
 1192PYPI   C4A17494   2.225   0.757   7.267 -0.3022 -0.2395 -0.1280
 1192PYPI   C1B17495   1.909   0.415   6.494  0.3332 -0.3734 -0.0906
 1192PYPI   C2B17496   1.980   0.502   6.961 -0.3769 -0.0558 -0.2814
 1192PYPI   C3B17497   1.918   0.441   7.460  0.2167 -0.3767  0.1500
 1192PYPI   C4B17498   1.907   0.389   7.897  0.1811  0.1233 -0.3798
 1193PYPI    C117499  18.017   0.706   5.783 -0.1037  0.1093  0.0895
 1193PYPI    C217500  17.637   0.794   5.873 -0.1100 -0.0065  0.1790
 1193PYPI    C317501  17.725   0.616   5.525 -0.1360  0.0311  0.1531
 1193PYPI   PO417502  18.071   0.855   6.075 -0.2133  0.1234  0.0929
 1193PYPI   GL117503  18.094   0.783   6.533 -0.0293  0.1278 -0.0826
 1193PYPI   GL217504  17.839   0.558   6.414  0.0032 -0.0312 -0.1471
 1193PYPI   C1A17505  18.131   0.750   6.987 -0.3062  0.1964  0.3224
 1193PYPI   C2A17506  18.233   0.697   7.427  0.0658 -0.2395  0.1504
 1193PYPI   D3A17507  18.261   0.540   7.778 -0.1930 -0.1486  0.1056
 1193PYPI   C4A17508  18.432   0.707   8.066 -0.0420  0.1962  0.0537
 1193PYPI   C1B17509  17.791   0.414   6.777 -0.3864 -0.0986  0.0461
 1193PYPI   C2B17510  17.766   0.365   7.235  0.2062 -0.2567 -0.0862
 1193PYPI   C3B17511  17.813   0.275   7.724  0.1778 -0.0790 -0.0484
 1193PYPI   C4B17512  18.022   0.021   7.993  0.0474 -0.1729 -0.3507
 1194PYPI    C117513  10.909   8.219   5.691  0.1620 -0.0620  0.0308
 1194PYPI    C217514  10.826   7.899   5.466 -0.1495 -0.1383  0.2470
 1194PYPI    C317515  10.727   8.265   5.338  0.0666 -0.1392  0.0697
 1194PYPI   PO417516  10.797   8.150   5.943  0.1810  0.0368 -0.0863
 1194PYPI   GL117517  10.499   8.205   6.212 -0.2876  0.1319 -0.4634
 1194PYPI   GL217518  10.301   7.990   6.319  0.2104 -0.2782 -0.2267
 1194PYPI   C1A17519  10.728   8.421   6.559 -0.2846  0.1074  0.4458
 1194PYPI   C2A17520  10.725   8.476   7.017  0.0839 -0.1367  0.2219
 1194PYPI   D3A17521  10.795   8.508   7.431  0.4771 -0.0995 -0.1260
 1194PYPI   C4A17522  10.619   8.307   7.546  0.0386 -0.1526  0.1252
 1194PYPI   C1B17523  10.392   8.072   6.750 -0.4022  0.0497  0.3793
 1194PYPI   C2B17524  10.493   8.008   7.168 -0.0500 -0.0908 -0.0097
 1194PYPI   C3B17525  10.313   7.858   7.631  0.1103 -0.0418  0.1242
 1194PYPI   C4B17526  10.641   7.820   7.978 -0.3639  0.2432 -0.1294
 1195PYPI    C117527   6.611   7.107   5.259  0.3440  0.1917  0.1215
 1195PYPI    C217528   6.254   6.960   5.364  0.4835 -0.3717 -0.1503
 1195PYPI    C317529   6.391   7.295   5.535 -0.3540  0.1029 -0.3467
 1195PYPI   PO417530   6.723   6.797   5.335  0.2016  0.0512 -0.4209
 1195PYPI   GL117531   6.726   6.679   5.821  0.1043  0.2343  0.0256
 1195PYPI   GL217532   6.498   6.858   5.787  0.0947  0.1087  0.0108
 1195PYPI   C1A17533   7.105   6.651   5.963  0.0010 -0.1727 -0.2570
 1195PYPI   C2A17534   7.373   6.999   6.088 -0.1709 -0.1118 -0.0064
 1195PYPI   D3A17535   7.330   7.300   6.326 -0.0494 -0.0638 -0.1345
 1195PYPI   C4A17536   7.272   7.321   6.728  0.1003  0.2097 -0.0580
 1195PYPI   C1B17537   6.458   6.878   6.192 -0.3437  0.2104 -0.0208
 1195PYPI   C2B17538   6.307   6.833   6.640 -0.0480  0.0180  0.0679
 1195PYPI   C3B17539   6.280   6.612   7.024 -0.0002 -0.0870 -0.1246
 1195PYPI   C4B17540   6.486   6.595   7.393 -0.0356 -0.1084 -0.0792
 1196PYPI    C117541   3.069   2.933   5.096  0.0818 -0.0206 -0.0819
 1196PYPI    C217542   3.286   3.102   4.805  0.1376  0.2370  0.1059
 1196PYPI    C317543   2.887   3.088   4.775  0.1674 -0.1401 -0.1892
 1196PYPI   PO417544   3.114   3.126   5.309 -0.0424 -0.0532 -0.0336
 1196PYPI   GL117545   3.255   3.201   5.845 -0.3422 -0.1543 -0.2530
 1196PYPI   GL217546   3.009   2.998   5.769 -0.0658  0.2583  0.2528
 1196PYPI   C1A17547   3.144   3.190   6.251  0.0601 -0.2684 -0.1130
 1196PYPI   C2A17548   3.273   3.238   6.645 -0.1919 -0.0368  0.0294
 1196PYPI   D3A17549   3.172   3.213   7.041  0.0451 -0.1785  0.2954
 1196PYPI   C4A17550   2.924   3.027   7.351 -0.0485 -0.3246  0.1271
 1196PYPI   C1B17551   2.931   2.790   6.122  0.0701  0.0525  0.0237
 1196PYPI   C2B17552   2.928   2.855   6.593 -0.1287 -0.2769  0.0867
 1196PYPI   C3B17553   3.034   2.756   6.878  0.0785  0.1717 -0.1898
 1196PYPI   C4B17554   3.158   2.594   7.233 -0.0651  0.1989 -0.0828
 1197PYPI    C117555   2.907   7.433   5.730 -0.0364  0.0050 -0.1218
 1197PYPI    C217556   3.109   7.674   5.482  0.0273 -0.1054 -0.1777
 1197PYPI    C317557   3.005   7.804   5.846  0.0409  0.0147 -0.2160
 1197PYPI   PO417558   3.013   7.247   5.735  0.3299  0.0475  0.0028
 1197PYPI   GL117559   3.194   6.942   5.984  0.2917  0.0606 -0.0591
 1197PYPI   GL217560   3.163   6.563   6.018  0.0761  0.2887  0.0842
 1197PYPI   C1A17561   3.335   6.967   6.459  0.3186 -0.1305 -0.1549
 1197PYPI   C2A17562   3.460   6.956   6.838 -0.1908  0.0711  0.1898
 1197PYPI   D3A17563   3.484   7.105   7.220 -0.1236 -0.0033  0.2560
 1197PYPI   C4A17564   3.522   7.568   7.312  0.1872 -0.0205  0.2539
 1197PYPI   C1B17565   3.306   6.477   6.343 -0.0163  0.2124 -0.0111
 1197PYPI   C2B17566   3.375   6.457   6.741 -0.0104 -0.2539  0.0219
 1197PYPI   C3B17567   3.522   6.512   7.058  0.0997 -0.1569 -0.1457
 1197PYPI   C4B17568   3.403   6.575   7.377 -0.2380 -0.4446  0.0541
 1198PYPI    C117569   4.636  14.344   5.175  0.3015  0.1290 -0.2326
 1198PYPI    C217570   4.535  14.674   4.972 -0.2958  0.1032  0.0033
 1198PYPI    C317571   4.333  14.333   4.914 -0.0860 -0.0603  0.2119
 1198PYPI   PO417572   4.626  14.322   5.481  0.0626 -0.0869 -0.2281
 1198PYPI   GL117573   4.669  13.983   5.839 -0.0363 -0.0385  0.2001
 1198PYPI   GL217574   4.869  14.221   5.914 -0.1454 -0.5311  0.2927
 1198PYPI   C1A17575   4.647  13.802   6.291 -0.2806  0.0950 -0.0665
 1198PYPI   C2A17576   4.775  13.569   6.626  0.0993  0.0698 -0.0005
 1198PYPI   D3A17577   4.676  13.680   7.042 -0.0013 -0.2139  0.2396
 1198PYPI   C4A17578   4.341  13.848   7.231  0.1423 -0.0302  0.1922
 1198PYPI   C1B17579   5.246  14.306   6.118 -0.1989 -0.2243  0.0919
 1198PYPI   C2B17580   5.395  14.202   6.426 -0.2453 -0.2257 -0.1644
 1198PYPI   C3B17581   5.471  14.361   6.724  0.3036  0.2616  0.0856
 1198PYPI   C4B17582   5.487  14.422   7.141  0.1311 -0.0992 -0.2607
 1199PYPI    C117583  16.658  13.125   5.639 -0.0325 -0.1911  0.0048
 1199PYPI    C217584  16.281  13.054   5.527 -0.1400  0.3331  0.0084
 1199PYPI    C317585  16.579  13.011   5.264 -0.1879 -0.1441  0.0225
 1199PYPI   PO417586  16.754  13.101   5.883 -0.1681  0.0562 -0.0482
 1199PYPI   GL117587  16.866  13.352   6.285 -0.3447  0.1260 -0.0066
 1199PYPI   GL217588  17.033  13.094   6.411  0.0046  0.0247  0.0937
 1199PYPI   C1A17589  16.996  13.538   6.663 -0.0213  0.1183  0.1545
 1199PYPI   C2A17590  17.203  13.553   7.020  0.1024  0.1763 -0.1060
 1199PYPI   D3A17591  17.201  13.424   7.351 -0.0695  0.2363 -0.1920
 1199PYPI   C4A17592  17.250  13.594   7.709 -0.1561 -0.2084 -0.1591
 1199PYPI   C1B17593  16.977  13.077   6.938  0.0470  0.1287 -0.2441
 1199PYPI   C2B17594  16.840  13.070   7.359  0.0977  0.1529 -0.1404
 1199PYPI   C3B17595  16.385  13.176   7.521  0.0479  0.0191 -0.0264
 1199PYPI   C4B17596  16.022  13.277   7.616  0.3427  0.0398  0.1648
 1200PYPI    C117597   7.605  11.868   5.223  0.0691 -0.2399 -0.0682
 1200PYPI    C217598   7.289  11.624   5.199 -0.0816 -0.0555  0.0070
 1200PYPI    C317599   7.382  11.861   4.891 -0.0647 -0.0511  0.0156
 1200PYPI   PO417600   7.547  11.964   5.467 -0.0220  0.0704  0.2870
 1200PYPI   GL117601   7.581  11.873   5.965 -0.0163  0.3174  0.0436
 1200PYPI   GL217602   7.793  12.129   5.853 -0.0188  0.2112  0.2693
 1200PYPI   C1A17603   7.533  11.828   6.429 -0.0082  0.1004  0.0873
 1200PYPI   C2A17604   7.480  11.823   6.851 -0.0879 -0.0460 -0.2089
 1200PYPI   D3A17605   7.480  11.967   7.297  0.2060  0.0854 -0.0916
 1200PYPI   C4A17606   7.763  11.964   7.684  0.1266 -0.3415 -0.0068
 1200PYPI   C1B17607   7.777  12.240   6.270 -0.1783 -0.0037  0.0206
 1200PYPI   C2B17608   8.053  12.462   6.439 -0.0737 -0.1499 -0.2797
 1200PYPI   C3B17609   8.292  12.566   6.843  0.0426  0.0537  0.2409
 1200PYPI   C4B17610   8.461  12.472   7.289 -0.1305 -0.0252  0.1288
 1201PYPI    C117611  16.312   8.911   5.859  0.0656 -0.3223 -0.1067
 1201PYPI    C217612  16.385   8.784   5.487  0.2587 -0.1255 -0.1383
 1201PYPI    C317613  16.629   9.050   5.659  0.1968 -0.2488  0.1471
 1201PYPI   PO417614  16.257   8.704   6.026  0.1848 -0.1621 -0.1573
 1201PYPI   GL117615  15.958   8.700   6.396  0.1009  0.4787  0.1836
 1201PYPI   GL217616  15.977   8.335   6.333 -0.0888 -0.1146  0.0446
 1201PYPI   C1A17617  16.090   8.740   6.814  0.0538  0.0044  0.2745
 1201PYPI   C2A17618  16.391   8.605   7.091 -0.2856  0.3721  0.0290
 1201PYPI   D3A17619  16.297   8.705   7.521  0.1094 -0.2942  0.1072
 1201PYPI   C4A17620  15.925   8.730   7.817 -0.0039  0.0742  0.3260
 1201PYPI   C1B17621  15.736   8.355   6.694 -0.0508  0.2141 -0.0112
 1201PYPI   C2B17622  15.365   8.316   6.848  0.1304  0.0056 -0.1590
 1201PYPI   C3B17623  15.423   8.395   7.292 -0.0825  0.0463  0.1507
 1201PYPI   C4B17624  15.510   8.699   7.516  0.4523  0.3989  0.0039
 1202PYPI    C117625   1.609  10.448   5.929 -0.2018  0.2328 -0.1573
 1202PYPI    C217626   1.724  10.140   5.700 -0.1264  0.0861  0.0742
 1202PYPI    C317627   1.577  10.471   5.531 -0.0814 -0.0238 -0.1844
 1202PYPI   PO417628   1.809  10.448   6.071  0.0902  0.2335  0.0449
 1202PYPI   GL117629   2.191  10.410   6.400 -0.2689 -0.2861 -0.1384
 1202PYPI   GL217630   2.330  10.198   6.536  0.0436 -0.0829  0.1148
 1202PYPI   C1A17631   2.061  10.521   6.857 -0.2612 -0.0822  0.1143
 1202PYPI   C2A17632   1.954  10.613   7.244 -0.1041  0.0255 -0.1713
 1202PYPI   D3A17633   1.814  10.582   7.576 -0.2104 -0.0359  0.1552
 1202PYPI   C4A17634   1.882  10.382   7.849  0.0574 -0.0983 -0.0663
 1202PYPI   C1B17635   2.504  10.387   6.869  0.1210  0.2424  0.1556
 1202PYPI   C2B17636   2.394  10.344   7.239  0.1123 -0.1383 -0.1265
 1202PYPI   C3B17637   2.355  10.336   7.627  0.2328 -0.0698  0.1173
 1202PYPI   C4B17638   2.337  10.265   8.103 -0.2329  0.0977  0.0193
 1203PYPI    C117639   2.871   8.291   5.324 -0.1138  0.0365 -0.1179
 1203PYPI    C217640   2.480   8.299   5.407 -0.1105  0.1037 -0.1079
 1203PYPI    C317641   2.659   8.623   5.256  0.0486  0.2534  0.3834
 1203PYPI   PO417642   2.971   8.222   5.573  0.1566 -0.0584  0.4011
 1203PYPI   GL117643   3.030   8.309   5.995  0.1224  0.0681 -0.3306
 1203PYPI   GL217644   3.276   8.447   6.017 -0.4895 -0.1033  0.2000
 1203PYPI   C1A17645   2.907   8.055   6.344 -0.0045  0.0089  0.3683
 1203PYPI   C2A17646   2.872   7.675   6.306 -0.3001  0.2327  0.1088
 1203PYPI   D3A17647   2.751   7.301   6.323 -0.0003 -0.1601 -0.1915
 1203PYPI   C4A17648   2.674   7.251   6.727 -0.2520  0.0236  0.1299
 1203PYPI   C1B17649   3.107   8.624   6.360  0.0267  0.0171 -0.0590
 1203PYPI   C2B17650   3.054   8.875   6.672  0.1733 -0.0366  0.0252
 1203PYPI   C3B17651   2.980   8.857   7.167 -0.1502  0.2831  0.2309
 1203PYPI   C4B17652   2.868   8.970   7.506 -0.1087 -0.3644 -0.4440
 1204PYPI    C117653  17.569   9.703   5.655  0.0100 -0.1000  0.1000
 1204PYPI    C217654  17.385   9.574   5.324  0.3851 -0.1988 -0.0750
 1204PYPI    C317655  17.592   9.916   5.318  0.3015 -0.1441  0.0900
 1204PYPI   PO417656  17.718   9.584   5.793 -0.0976 -0.0430  0.0164
 1204PYPI   GL117657  17.681   9.569   6.159 -0.3636 -0.1558  0.0677
 1204PYPI   GL217658  17.454   9.537   6.343  0.2037 -0.1809  0.1398
 1204PYPI   C1A17659  17.834   9.663   6.578  0.3206  0.1191 -0.3200
 1204PYPI   C2A17660  17.857   9.556   7.028  0.3346  0.0974 -0.5091
 1204PYPI   D3A17661  17.929   9.224   7.301  0.2181 -0.1888 -0.0006
 1204PYPI   C4A17662  17.897   9.286   7.680  0.1043  0.2256 -0.1694
 1204PYPI   C1B17663  17.501   9.272   6.726  0.0082  0.3086 -0.0767
 1204PYPI   C2B17664  17.445   9.316   7.171  0.0718  0.0399  0.2086
 1204PYPI   C3B17665  17.425   9.405   7.492 -0.2522  0.0448 -0.2778
 1204PYPI   C4B17666  17.769   9.731   7.563 -0.0960  0.5254  0.0440
 1205PYPI    C117667  15.381  14.373   5.716 -0.2798  0.1336  0.0384
 1205PYPI    C217668  15.694  14.620   5.754 -0.1658  0.0059 -0.0587
 1205PYPI    C317669  15.660  14.389   5.430 -0.2013 -0.2039  0.0921
 1205PYPI   PO417670  15.374  14.336   6.007 -0.0399  0.1075 -0.2452
 1205PYPI   GL117671  15.244  14.352   6.506  0.1009  0.0046 -0.0566
 1205PYPI   GL217672  15.557  14.215   6.454 -0.0019 -0.2051  0.2646
 1205PYPI   C1A17673  15.093  14.506   6.886 -0.2552  0.3511  0.2308
 1205PYPI   C2A17674  14.820  14.450   7.279  0.1465 -0.0504 -0.1271
 1205PYPI   D3A17675  14.661  14.567   7.682  0.1543 -0.1508 -0.3952
 1205PYPI   C4A17676  14.606  14.799   7.953 -0.1845 -0.1010  0.2196
 1205PYPI   C1B17677  15.735  14.121   6.756  0.1026 -0.0282 -0.0095
 1205PYPI   C2B17678  15.862  14.104   7.187  0.3193  0.0515  0.1205
 1205PYPI   C3B17679  15.630  13.927   7.516  0.0225 -0.0587  0.1136
 1205PYPI   C4B17680  15.581  13.513   7.600 -0.1149 -0.1681 -0.2200
 1206PYPI    C117681   0.721  14.098   5.667 -0.1012  0.0259 -0.0126
 1206PYPI    C217682   0.599  13.759   5.840 -0.2455  0.0591 -0.0471
 1206PYPI    C317683   0.475  13.850   5.471 -0.0053  0.0284 -0.1375
 1206PYPI   PO417684   0.790  14.259   5.923  0.0091 -0.1512 -0.1347
 1206PYPI   GL117685   0.877  14.393   6.351 -0.7389 -0.0179  0.0658
 1206PYPI   GL217686   0.703  14.118   6.372 -0.1224  0.4704  0.0652
 1206PYPI   C1A17687   0.978  14.533   6.751 -0.2015  0.3222 -0.1181
 1206PYPI   C2A17688   1.019  14.422   7.216 -0.0310 -0.0422 -0.1398
 1206PYPI   D3A17689   1.196  14.388   7.553 -0.0064  0.0268  0.0859
 1206PYPI   C4A17690   1.005  14.491   7.930  0.0370  0.0089  0.0327
 1206PYPI   C1B17691   0.690  14.054   6.791 -0.0471  0.2574  0.1167
 1206PYPI   C2B17692   0.775  13.977   7.228  0.3760  0.1257 -0.1857
 1206PYPI   C3B17693   0.823  13.993   7.594 -0.0987 -0.0779  0.0857
 1206PYPI   C4B17694   0.635  13.817   8.004  0.2500 -0.0240 -0.0380
 1207PYPI    C117695   5.890   8.759   5.555  0.1328 -0.1053  0.1016
 1207PYPI    C217696   5.761   8.384   5.499  0.3009 -0.1034 -0.3380
 1207PYPI    C317697   5.528   8.694   5.399  0.2133 -0.0887 -0.0951
 1207PYPI   PO417698   5.956   8.784   5.767  0.0482  0.2723  0.4471
 1207PYPI   GL117699   5.861   8.810   6.238  0.2547  0.2142  0.0212
 1207PYPI   GL217700   5.950   8.493   6.201 -0.0957 -0.2626  0.1374
 1207PYPI   C1A17701   5.964   9.050   6.670  0.0992 -0.0438 -0.1116
 1207PYPI   C2A17702   5.978   9.222   7.051  0.0965 -0.0238  0.4375
 1207PYPI   D3A17703   5.827   9.339   7.452  0.1586 -0.3416  0.0781
 1207PYPI   C4A17704   6.030   9.692   7.751  0.0480 -0.0333  0.0146
 1207PYPI   C1B17705   5.878   8.491   6.606  0.0759  0.0962 -0.1846
 1207PYPI   C2B17706   5.921   8.661   7.070 -0.1137 -0.0806 -0.1610
 1207PYPI   C3B17707   5.800   8.834   7.463  0.1877 -0.2321  0.3110
 1207PYPI   C4B17708   5.334   8.657   7.575  0.0178 -0.0431 -0.1292
 1208PYPI    C117709   9.077   9.560   5.595  0.0375 -0.0810 -0.0677
 1208PYPI    C217710   9.144   9.948   5.528  0.1228 -0.0990 -0.0879
 1208PYPI    C317711   8.803   9.779   5.403  0.0563 -0.0158 -0.0202
 1208PYPI   PO417712   9.130   9.538   5.881 -0.2506  0.0309 -0.0747
 1208PYPI   GL117713   9.183  10.024   6.056  0.1777  0.3310  0.0948
 1208PYPI   GL217714   8.948   9.893   6.225 -0.1004  0.2770  0.0814
 1208PYPI   C1A17715   9.213  10.201   6.524 -0.0802 -0.0393 -0.1075
 1208PYPI   C2A17716   9.297  10.527   6.924  0.1354  0.3414  0.1320
 1208PYPI   D3A17717   9.440  10.363   7.297  0.2840 -0.3497 -0.1006
 1208PYPI   C4A17718   9.194  10.173   7.546 -0.1507 -0.0207  0.2363
 1208PYPI   C1B17719   8.696   9.815   6.576  0.1222 -0.0625 -0.1357
 1208PYPI   C2B17720   8.569   9.947   6.918 -0.0081  0.0596 -0.1188
 1208PYPI   C3B17721   8.433  10.055   7.312 -0.0428  0.1428  0.2025
 1208PYPI   C4B17722   8.226  10.093   7.648  0.0296 -0.2559  0.0786
 1209PYPI    C117723  13.855   6.370   5.990  0.0094  0.0852  0.0596
 1209PYPI    C217724  13.881   6.327   5.593  0.0159  0.0452  0.0643
 1209PYPI    C317725  13.878   6.004   5.830  0.0494  0.0704  0.0991
 1209PYPI   PO417726  14.040   6.559   6.087 -0.1717 -0.2201  0.0975
 1209PYPI   GL117727  14.275   6.443   6.357 -0.1003 -0.1236 -0.0604
 1209PYPI   GL217728  14.201   6.147   6.306 -0.0482 -0.1371 -0.0172
 1209PYPI   C1A17729  14.011   6.576   6.748  0.2881  0.1548  0.0688
 1209PYPI   C2A17730  13.895   6.555   7.183 -0.1333 -0.0382 -0.2837
 1209PYPI   D3A17731  13.791   6.652   7.562 -0.2014  0.4012 -0.0772
 1209PYPI   C4A17732  13.557   6.676   7.758  0.0698  0.1331  0.0666
 1209PYPI   C1B17733  14.131   6.092   6.775  0.2926 -0.1737  0.2142
 1209PYPI   C2B17734  14.015   6.066   7.199  0.1408 -0.4036  0.0537
 1209PYPI   C3B17735  13.692   6.087   7.578 -0.0161  0.0428 -0.1397
 1209PYPI   C4B17736  13.686   6.102   8.030 -0.5395  0.4380  0.0048
 1210PYPI    C117737   2.423   5.158   5.638  0.0944  0.0861 -0.0343
 1210PYPI    C217738   2.733   5.399   5.714  0.1285 -0.0184  0.1650
 1210PYPI    C317739   2.613   5.340   5.337  0.2190  0.1853  0.1031
 1210PYPI   PO417740   2.248   5.221   5.796  0.2842 -0.0077 -0.1481
 1210PYPI   GL117741   2.194   5.182   6.176  0.0799 -0.1574  0.0660
 1210PYPI   GL217742   1.846   5.292   6.355  0.0702 -0.1401  0.1612
 1210PYPI   C1A17743   2.330   5.286   6.528  0.1706 -0.2774  0.1404
 1210PYPI   C2A17744   2.310   5.238   6.971  0.0529 -0.1052 -0.0888
 1210PYPI   D3A17745   2.475   5.006   7.242  0.1732  0.0067  0.2073
 1210PYPI   C4A17746   2.208   4.869   7.634 -0.3819  0.2452 -0.0509
 1210PYPI   C1B17747   1.986   4.972   6.694  0.0045  0.2198 -0.1890
 1210PYPI   C2B17748   1.974   4.905   7.086 -0.0778  0.1848  0.0180
 1210PYPI   C3B17749   1.763   4.882   7.465 -0.4021 -0.1503  0.0661
 1210PYPI   C4B17750   1.680   4.994   7.824  0.3287 -0.1203 -0.1301
 1211PYPI    C117751   2.403  17.086   5.473 -0.1801  0.1580 -0.1221
 1211PYPI    C217752   2.114  17.056   5.199 -0.2741 -0.0249 -0.0056
 1211PYPI    C317753   2.286  16.726   5.344 -0.2368  0.0696  0.1678
 1211PYPI   PO417754   2.266  17.253   5.677 -0.1531  0.1558  0.3441
 1211PYPI   GL117755   2.027  17.255   6.005 -0.0207  0.0082  0.0177
 1211PYPI   GL217756   2.265  17.360   6.176  0.1224 -0.1157  0.1181
 1211PYPI   C1A17757   1.771  17.369   6.401 -0.0894 -0.2088  0.2221
 1211PYPI   C2A17758   1.671  17.388   6.809  0.2093 -0.0527 -0.2312
 1211PYPI   D3A17759   1.605  17.280   7.198 -0.1429  0.0587 -0.2276
 1211PYPI   C4A17760   1.938  17.123   7.470 -0.1117  0.1650  0.4147
 1211PYPI   C1B17761   2.270  17.450   6.589  0.1098 -0.0683  0.0362
 1211PYPI   C2B17762   2.184  17.319   6.995 -0.0843  0.2738 -0.1603
 1211PYPI   C3B17763   2.301  16.984   7.136  0.2587 -0.0291 -0.0080
 1211PYPI   C4B17764   2.520  16.732   7.392 -0.0560 -0.3350 -0.1261
 1212PYPI    C117765  11.167   7.638   5.905 -0.0597  0.2696 -0.1488
 1212PYPI    C217766  11.483   7.573   5.668  0.0147  0.0237  0.0134
 1212PYPI    C317767  11.289   7.922   5.652  0.0771  0.0460 -0.3385
 1212PYPI   PO417768  10.935   7.493   5.817 -0.1283  0.0730  0.2232
 1212PYPI   GL117769  10.710   7.328   6.083 -0.1210  0.2066  0.2108
 1212PYPI   GL217770  10.983   7.109   6.217  0.0567 -0.0527  0.0029
 1212PYPI   C1A17771  10.311   7.131   6.317 -0.0539 -0.1849 -0.3583
 1212PYPI   C2A17772  10.161   6.887   6.536 -0.1022 -0.1087  0.0209
 1212PYPI   D3A17773   9.996   7.093   6.904 -0.1165 -0.0603 -0.2505
 1212PYPI   C4A17774  10.133   7.469   7.278  0.2950 -0.0993  0.0347
 1212PYPI   C1B17775  10.703   7.250   6.547  0.0214 -0.0512 -0.0962
 1212PYPI   C2B17776  10.564   7.125   7.018  0.1425 -0.1097 -0.1445
 1212PYPI   C3B17777  10.423   6.882   7.394 -0.2836 -0.3538 -0.0524
 1212PYPI   C4B17778  10.420   6.845   7.884 -0.0119 -0.1517 -0.4029
 1213PYPI    C117779  13.238  11.098   5.872 -0.0552 -0.0643 -0.0530
 1213PYPI    C217780  13.287  10.832   5.577 -0.0261  0.0275 -0.1312
 1213PYPI    C317781  13.229  11.219   5.491 -0.1136  0.0398 -0.0191
 1213PYPI   PO417782  13.019  11.105   6.119  0.1339  0.2861 -0.1460
 1213PYPI   GL117783  12.668  11.278   6.318  0.1814 -0.2015 -0.0130
 1213PYPI   GL217784  13.024  11.390   6.494  0.0699 -0.1507  0.0271
 1213PYPI   C1A17785  12.543  11.079   6.744 -0.3112 -0.0111  0.0587
 1213PYPI   C2A17786  12.571  11.152   7.057  0.0690 -0.0146 -0.0721
 1213PYPI   D3A17787  12.293  11.124   7.372  0.1256  0.2009  0.2119
 1213PYPI   C4A17788  11.887  11.360   7.342  0.0227  0.1335 -0.0562
 1213PYPI   C1B17789  13.033  11.437   6.912 -0.0149  0.0703  0.0731
 1213PYPI   C2B17790  12.948  11.542   7.367  0.0174 -0.0078  0.1400
 1213PYPI   C3B17791  12.628  11.484   7.619  0.2331  0.1155  0.0009
 1213PYPI   C4B17792  12.153  11.419   7.727 -0.0679  0.1064  0.1350
 1214ERGO   ROH17793   3.808  13.424   5.915 -0.2260  0.1034 -0.0163
 1214ERGO    R117794   3.845  13.553   6.165  0.0206  0.0190 -0.0053
 1214ERGO    R217795   3.661  13.534   6.370  0.0322  0.2637  0.0319
 1214ERGO    R317796   3.878  13.452   6.513 -0.0541 -0.0793 -0.0263
 1214ERGO    R417797   3.713  13.601   6.705  0.4106  0.5430 -0.0755
 1214ERGO    R517798   3.924  13.635   6.660  0.4752  0.0001 -0.2661
 1214ERGO    C117799   3.946  13.562   7.034  0.5500  0.3836 -0.1926
 1214ERGO    C217800   3.872  13.483   7.342 -0.0189 -0.4146 -0.0594
 1215ERGO   ROH17801  12.192  17.511   6.006 -0.1383 -0.2827  0.1790
 1215ERGO    R117802  12.209  17.599   6.275 -0.2120 -0.0460  0.1094
 1215ERGO    R217803  12.004  17.563   6.457 -0.1134 -0.2427  0.1864
 1215ERGO    R317804  12.199  17.444   6.604  0.1226  0.1843  0.2320
 1215ERGO    R417805  12.043  17.599   6.798 -0.1691 -0.0310  0.1717
 1215ERGO    R517806  12.259  17.609   6.767 -0.1833  0.3674  0.1650
 1215ERGO    C117807  12.249  17.509   7.135  0.0201  0.4933  0.2059
 1215ERGO    C217808  12.270  17.747   7.449 -0.1811  0.0358  0.0755
 1216ERGO   ROH17809   0.504  11.012   6.450 -0.0195 -0.0304 -0.0302
 1216ERGO    R117810   0.545  11.072   6.723  0.1306 -0.0882 -0.0390
 1216ERGO    R217811   0.337  11.109   6.901  0.2235  0.0625  0.0435
 1216ERGO    R317812   0.467  10.917   7.043  0.1244 -0.0563 -0.0253
 1216ERGO    R417813   0.346  11.091   7.246  0.1638 -0.1026  0.0370
 1216ERGO    R517814   0.556  11.034   7.233  0.1422 -0.1808  0.0432
 1216ERGO    C117815   0.473  10.901   7.580  0.0361 -0.3102 -0.0314
 1216ERGO    C217816   0.279  10.949   7.832  0.1222 -0.0357  0.0960
 1217ERGO   ROH17817  13.064  14.101   6.474  0.3529  0.0091 -0.0513
 1217ERGO    R117818  12.998  14.125   6.748  0.2054 -0.0952 -0.0762
 1217ERGO    R217819  13.122  13.977   6.946  0.2149 -0.0544 -0.0486
 1217ERGO    R317820  13.170  14.221   7.054 -0.0028 -0.0427  0.0257
 1217ERGO    R417821  13.150  14.041   7.284  0.1019 -0.1167 -0.0272
 1217ERGO    R517822  13.038  14.225   7.253 -0.0413 -0.2002  0.0026
 1217ERGO    C117823  13.211  14.308   7.583 -0.1682 -0.1417  0.0551
 1217ERGO    C217824  13.262  14.436   7.855 -0.1211  0.0872  0.1242
 1218ERGO   ROH17825   3.256  14.482   5.920  0.1549  0.1857 -0.0274
 1218ERGO    R117826   3.284  14.563   6.189 -0.0223  0.1166  0.0135
 1218ERGO    R217827   3.076  14.552   6.371 -0.0692 -0.1940 -0.0530
 1218ERGO    R317828   3.254  14.407   6.517  0.0554 -0.0464 -0.0558
 1218ERGO    R417829   3.094  14.551   6.716  0.0127 -0.0962 -0.0563
 1218ERGO    R517830   3.311  14.551   6.700  0.0092  0.0354 -0.1055
 1218ERGO    C117831   3.272  14.415   7.054  0.1774  0.0993 -0.0610
 1218ERGO    C217832   3.301  14.182   7.246  0.1223 -0.1646  0.2438
 1219ERGO   ROH17833   0.780  17.290   6.182 -0.0695  0.0719  0.2434
 1219ERGO    R117834   0.694  17.132   6.401 -0.0231  0.0560  0.2507
 1219ERGO    R217835   0.773  16.869   6.436 -0.0325  0.0454  0.2037
 1219ERGO    R317836   0.851  16.960   6.680  0.0391  0.0168  0.1913
 1219ERGO    R417837   0.768  16.683   6.726 -0.0945  0.0629  0.2136
 1219ERGO    R517838   0.696  16.859   6.832  0.0061  0.1025  0.2129
 1219ERGO    C117839   0.837  16.658   7.125 -0.0634  0.0463  0.2078
 1219ERGO    C217840   0.813  16.647   7.428 -0.1069  0.0710  0.3006
 1220ERGO   ROH17841  12.056   5.877   6.170 -0.1830  0.0706 -0.1412
 1220ERGO    R117842  12.120   5.911   6.443 -0.1199 -0.1481 -0.1272
 1220ERGO    R217843  12.150   6.161   6.559  0.0561 -0.2431  0.0299
 1220ERGO    R317844  11.965   6.065   6.734  0.0222 -0.2370 -0.0013
 1220ERGO    R417845  12.105   6.275   6.882  0.0002 -0.2293  0.0181
 1220ERGO    R517846  12.075   6.069   6.946 -0.0133 -0.2303  0.0199
 1220ERGO    C117847  11.905   6.252   7.234 -0.0643 -0.2157 -0.0181
 1220ERGO    C217848  11.827   6.379   7.601  0.1534  0.0029  0.1883
 1221ERGO   ROH17849   4.646  14.699   5.812 -0.1239 -0.0695 -0.0672
 1221ERGO    R117850   4.745  14.789   6.061 -0.1124 -0.1663 -0.0368
 1221ERGO    R217851   4.974  14.685   6.177 -0.0564 -0.1456 -0.1338
 1221ERGO    R317852   5.050  14.946   6.183 -0.1472 -0.1207 -0.0060
 1221ERGO    R417853   5.225  14.813   6.376 -0.1035 -0.1587 -0.0650
 1221ERGO    R517854   5.101  14.988   6.413 -0.1669 -0.2172  0.0183
 1221ERGO    C117855   5.444  15.132   6.498 -0.2162 -0.1431  0.0949
 1221ERGO    C217856   5.559  15.285   6.711 -0.0078  0.2211 -0.1193
 1222ERGO   ROH17857   8.230  14.653   6.313 -0.2597 -0.1513  0.1217
 1222ERGO    R117858   8.082  14.699   6.550 -0.1905  0.0023  0.1352
 1222ERGO    R217859   8.165  14.606   6.797 -0.2634 -0.0825  0.1214
 1222ERGO    R317860   8.138  14.867   6.868  0.0112 -0.0534  0.1332
 1222ERGO    R417861   8.136  14.720   7.122 -0.4277 -0.1123  0.1189
 1222ERGO    R517862   7.986  14.863   7.054 -0.1828  0.1046 -0.0099
 1222ERGO    C117863   8.094  15.032   7.378 -0.2656 -0.1024  0.1286
 1222ERGO    C217864   8.241  15.121   7.721  0.1309  0.0685  0.0930
 1223ERGO   ROH17865  13.684  10.426   6.369 -0.3094  0.1445 -0.0634
 1223ERGO    R117866  13.730  10.463   6.646 -0.1934  0.1083 -0.0776
 1223ERGO    R217867  13.637  10.684   6.783 -0.1820  0.0624 -0.0001
 1223ERGO    R317868  13.526  10.495   6.945 -0.0659  0.0109  0.0218
 1223ERGO    R417869  13.522  10.742   7.104 -0.2192  0.0331 -0.0079
 1223ERGO    R517870  13.607  10.550   7.164 -0.0985  0.0901  0.0164
 1223ERGO    C117871  13.351  10.599   7.443 -0.1321 -0.0322  0.0082
 1223ERGO    C217872  13.225  10.663   7.771 -0.0606 -0.2397  0.1545
 1224ERGO   ROH17873   1.625   9.619   6.388 -0.1465 -0.1752 -0.0509
 1224ERGO    R117874   1.736   9.678   6.641 -0.0313 -0.1199 -0.1139
 1224ERGO    R217875   1.595   9.650   6.877  0.0462  0.0179 -0.0505
 1224ERGO    R317876   1.808   9.497   6.948  0.0187 -0.0299 -0.0713
 1224ERGO    R417877   1.685   9.578   7.202  0.1428  0.1225 -0.0540
 1224ERGO    R517878   1.894   9.604   7.145  0.1325  0.0232 -0.1474
 1224ERGO    C117879   1.938   9.393   7.459  0.1732  0.1385 -0.0756
 1224ERGO    C217880   2.021   9.274   7.839  0.3486 -0.0194 -0.1007
 1225ERGO   ROH17881   4.523   6.480   6.325 -0.2048  0.2127 -0.0344
 1225ERGO    R117882   4.491   6.380   6.588  0.0893  0.0063 -0.0699
 1225ERGO    R217883   4.675   6.429   6.789  0.0997  0.2379 -0.1140
 1225ERGO    R317884   4.457   6.521   6.922 -0.0265 -0.2269  0.0143
 1225ERGO    R417885   4.666   6.498   7.127  0.1354  0.2476 -0.1168
 1225ERGO    R517886   4.466   6.410   7.135  0.3350 -0.1860  0.0137
 1225ERGO    C117887   4.456   6.624   7.450  0.0379 -0.1832  0.0020
 1225ERGO    C217888   4.504   6.686   7.702 -0.1986 -0.2015 -0.1823
 1226ERGO   ROH17889   4.647   7.716   6.145  0.2507 -0.2072 -0.2671
 1226ERGO    R117890   4.617   7.579   6.391  0.0453  0.0296 -0.1570
 1226ERGO    R217891   4.829   7.465   6.524 -0.1207 -0.1596 -0.0581
 1226ERGO    R317892   4.740   7.617   6.731  0.0773  0.1311 -0.1781
 1226ERGO    R417893   4.951   7.449   6.847 -0.2027 -0.1382 -0.0253
 1226ERGO    R517894   4.746   7.469   6.920 -0.1947  0.2403 -0.0744
 1226ERGO    C117895   4.937   7.582   7.230 -0.0645  0.1472 -0.1189
 1226ERGO    C217896   4.920   7.595   7.525  0.1048 -0.0425 -0.2919
 1227ERGO   ROH17897   0.278   6.172   6.618 -0.1752 -0.1599  0.0322
 1227ERGO    R117898   0.153   6.197   6.870 -0.0790 -0.1572  0.0806
 1227ERGO    R217899   0.172   6.002   7.065 -0.0095 -0.1587  0.0746
 1227ERGO    R317900   0.259   6.209   7.218  0.0546 -0.1604  0.0403
 1227ERGO    R417901   0.141   6.019   7.409 -0.1478 -0.0201  0.0559
 1227ERGO    R517902   0.091   6.231   7.388 -0.0056  0.0044 -0.0389
 1227ERGO    C117903   0.203   6.223   7.753 -0.1680  0.0591  0.0128
 1227ERGO    C217904   0.132   6.340   8.085 -0.0696  0.1147  0.1044
 1228ERGO   ROH17905   2.144   0.625   6.056  0.0916  0.2957 -0.0846
 1228ERGO    R117906   2.335   0.635   6.265 -0.0616  0.1950  0.0607
 1228ERGO    R217907   2.274   0.728   6.518 -0.2696 -0.0139  0.0831
 1228ERGO    R317908   2.373   0.487   6.595 -0.2526 -0.0412 -0.0177
 1228ERGO    R417909   2.420   0.664   6.825 -0.2386 -0.1099  0.0498
 1228ERGO    R517910   2.569   0.541   6.723 -0.2382 -0.0709 -0.0153
 1228ERGO    C117911   2.597   0.401   7.076 -0.2045 -0.1915 -0.0641
 1228ERGO    C217912   2.786   0.428   7.380 -0.1676 -0.0706 -0.2494
 1229ERGO   ROH17913  10.484   3.316   5.812 -0.0341  0.0088 -0.0107
 1229ERGO    R117914  10.443   3.208   6.070 -0.2229  0.0309 -0.0293
 1229ERGO    R217915  10.652   3.152   6.243 -0.3214 -0.2816 -0.0021
 1229ERGO    R317916  10.511   3.311   6.413 -0.1298 -0.1031 -0.0076
 1229ERGO    R417917  10.628   3.104   6.584 -0.1592 -0.0756  0.0398
 1229ERGO    R517918  10.417   3.159   6.573 -0.1317  0.0432  0.1303
 1229ERGO    C117919  10.482   3.225   6.943  0.1148  0.2120  0.0590
 1229ERGO    C217920  10.549   3.237   7.299  0.0626  0.2619 -0.2007
 1230ERGO   ROH17921   7.537   3.930   5.803 -0.1185 -0.0327  0.1037
 1230ERGO    R117922   7.515   3.775   6.039 -0.0701  0.0119  0.1384
 1230ERGO    R217923   7.736   3.673   6.170 -0.0468 -0.0563  0.0521
 1230ERGO    R317924   7.627   3.802   6.384  0.1033  0.0223  0.0815
 1230ERGO    R417925   7.704   3.538   6.487 -0.0278 -0.0173  0.0703
 1230ERGO    R517926   7.507   3.631   6.501  0.0359  0.1050  0.1308
 1230ERGO    C117927   7.584   3.580   6.872  0.1243  0.0792  0.1085
 1230ERGO    C217928   7.423   3.430   7.194  0.1367  0.2523 -0.5155
 1231ERGO   ROH17929  14.211  16.988   5.882 -0.3069  0.0929  0.0309
 1231ERGO    R117930  14.336  17.166   6.064 -0.2481  0.1853 -0.0970
 1231ERGO    R217931  14.215  17.399   6.150 -0.3114  0.1278 -0.0140
 1231ERGO    R317932  14.265  17.297   6.396 -0.0330  0.1761 -0.0477
 1231ERGO    R417933  14.146  17.560   6.448 -0.1977  0.0788  0.0386
 1231ERGO    R517934  14.336  17.485   6.526 -0.0782  0.2322 -0.1101
 1231ERGO    C117935  14.153  17.557   6.853  0.1299  0.0956  0.0376
 1231ERGO    C217936  14.154  17.668   7.129 -0.1108 -0.2484  0.1988
 1232ERGO   ROH17937   4.177  15.012   6.030 -0.0564  0.1907  0.2285
 1232ERGO    R117938   4.288  14.793   6.171 -0.1016  0.0734  0.0841
 1232ERGO    R217939   4.392  14.817   6.426  0.0435 -0.0842  0.0400
 1232ERGO    R317940   4.219  14.615   6.481 -0.0370 -0.0135  0.0500
 1232ERGO    R417941   4.362  14.661   6.733  0.0588 -0.1241  0.0214
 1232ERGO    R517942   4.341  14.471   6.628 -0.0599 -0.0976 -0.0097
 1232ERGO    C117943   4.182  14.380   6.963 -0.0078 -0.0809  0.0199
 1232ERGO    C217944   4.251  14.344   7.266  0.2117  0.1904  0.0472
 1233ERGO   ROH17945  10.898  16.997   6.209  0.1858  0.0625 -0.0812
 1233ERGO    R117946  10.847  16.910   6.474 -0.1299  0.0993 -0.1280
 1233ERGO    R217947  11.015  16.969   6.685 -0.1877 -0.1829 -0.0078
 1233ERGO    R317948  10.788  17.067   6.797 -0.1234  0.1411 -0.1450
 1233ERGO    R417949  10.978  17.048   7.019 -0.2851 -0.1969 -0.0137
 1233ERGO    R517950  10.778  16.962   7.012 -0.4226  0.1028 -0.1672
 1233ERGO    C117951  10.743  17.186   7.319 -0.2813  0.0995 -0.1460
 1233ERGO    C217952  10.883  17.220   7.760 -0.0949 -0.2719  0.2038
 1234ERGO   ROH17953   9.577   1.182   5.719  0.0007 -0.0956  0.0125
 1234ERGO    R117954   9.702   1.286   5.951 -0.2150  0.0534  0.0659
 1234ERGO    R217955   9.562   1.357   6.177 -0.3846 -0.2250  0.0513
 1234ERGO    R317956   9.736   1.188   6.300 -0.1369  0.0210  0.0500
 1234ERGO    R417957   9.673   1.390   6.503 -0.3550 -0.0124  0.0212
 1234ERGO    R517958   9.872   1.331   6.435 -0.2888  0.2283 -0.0093
 1234ERGO    C117959   9.901   1.251   6.807 -0.1053  0.3425  0.0024
 1234ERGO    C217960   9.898   1.151   7.143  0.0773 -0.0902  0.0843
 1235ERGO   ROH17961   4.505   0.898   5.759 -0.1847 -0.2168 -0.1472
 1235ERGO    R117962   4.473   0.785   6.017 -0.0669 -0.1415 -0.0983
 1235ERGO    R217963   4.654   0.827   6.221 -0.0133 -0.0161 -0.1682
 1235ERGO    R317964   4.433   0.908   6.357  0.0037 -0.0398 -0.1267
 1235ERGO    R417965   4.635   0.868   6.564 -0.0144 -0.2088 -0.1443
 1235ERGO    R517966   4.436   0.780   6.559 -0.0341 -0.1565 -0.2002
 1235ERGO    C117967   4.416   0.968   6.890  0.0010 -0.3432 -0.0913
 1235ERGO    C217968   4.234   1.093   7.168  0.3195  0.0513  0.0966
 1236ERGO   ROH17969  12.121   7.393   6.380 -0.2252  0.1504 -0.0480
 1236ERGO    R117970  12.043   7.230   6.598 -0.1773  0.0956 -0.0716
 1236ERGO    R217971  12.131   7.274   6.856 -0.0450 -0.0271 -0.0950
 1236ERGO    R317972  11.865   7.277   6.912 -0.0195  0.0376  0.0274
 1236ERGO    R417973  11.997   7.337   7.168  0.1134 -0.0416 -0.0225
 1236ERGO    R517974  11.850   7.180   7.130  0.0526  0.0056  0.0180
 1236ERGO    C117975  11.669   7.376   7.402  0.2297  0.0107  0.1347
 1236ERGO    C217976  11.536   7.431   7.712 -0.2845  0.2122 -0.1183
 1237ERGO   ROH17977  12.004   1.339   5.908  0.4690  0.2502 -0.0169
 1237ERGO    R117978  11.953   1.279   6.179  0.1896  0.3314 -0.0478
 1237ERGO    R217979  12.133   1.141   6.338 -0.1559 -0.0198  0.0612
 1237ERGO    R317980  12.105   1.357   6.501  0.1495  0.0347  0.0453
 1237ERGO    R417981  12.190   1.141   6.679 -0.4230 -0.1457  0.1085
 1237ERGO    R517982  12.015   1.268   6.704 -0.1916  0.2069 -0.0266
 1237ERGO    C117983  12.198   1.344   7.030 -0.2920 -0.1678  0.1212
 1237ERGO    C217984  12.200   1.348   7.359 -0.0211  0.0581 -0.0239
 1238ERGO   ROH17985   3.732   6.431   6.007  0.1466 -0.0503 -0.0448
 1238ERGO    R117986   3.758   6.269   6.238  0.0603 -0.0513 -0.0337
 1238ERGO    R217987   3.999   6.235   6.369  0.0739 -0.2635 -0.0930
 1238ERGO    R317988   3.856   6.318   6.585  0.2047 -0.0984 -0.0698
 1238ERGO    R417989   4.066   6.148   6.697 -0.0486 -0.4213 -0.1096
 1238ERGO    R517990   3.852   6.128   6.731 -0.0700 -0.1151 -0.1053
 1238ERGO    C117991   3.971   6.176   7.090  0.0029 -0.3581 -0.0975
 1238ERGO    C217992   4.109   6.209   7.438  0.2804 -0.0316  0.1068
 1239ERGO   ROH17993   3.670  16.416   5.829  0.0067 -0.0505  0.0642
 1239ERGO    R117994   3.676  16.279   6.077  0.3665 -0.0314  0.0717
 1239ERGO    R217995   3.865  16.332   6.272  0.1647  0.5775  0.1244
 1239ERGO    R317996   3.646  16.367   6.429 -0.0140 -0.0968  0.0591
 1239ERGO    R417997   3.860  16.299   6.616  0.1568  0.5584  0.1225
 1239ERGO    R517998   3.667  16.201   6.599  0.4480 -0.0480  0.0613
 1239ERGO    C117999   3.652  16.313   6.963 -0.0156 -0.0860  0.0601
 1239ERGO    C218000   3.664  16.275   7.254  0.1782 -0.4189 -0.0568
 1240ERGO   ROH18001   5.339  11.410   5.992 -0.0110  0.0674 -0.0434
 1240ERGO    R118002   5.396  11.404   6.269  0.0647  0.1074 -0.0568
 1240ERGO    R218003   5.225  11.290   6.454  0.0634  0.2254  0.0219
 1240ERGO    R318004   5.446  11.148   6.523  0.0210  0.1434 -0.0136
 1240ERGO    R418005   5.296  11.177   6.773  0.0022  0.0628 -0.0217
 1240ERGO    R518006   5.505  11.230   6.740  0.0151  0.0286  0.0291
 1240ERGO    C118007   5.546  10.978   7.023 -0.0732 -0.1088 -0.0805
 1240ERGO    C218008   5.625  10.827   7.323  0.2856  0.2977 -0.3459
 1241ERGO   ROH18009  13.248   8.476   6.500 -0.1370  0.2051  0.2067
 1241ERGO    R118010  13.289   8.422   6.774 -0.0854  0.0965  0.1774
 1241ERGO    R218011  13.539   8.363   6.878 -0.0767 -0.0035  0.0968
 1241ERGO    R318012  13.481   8.569   7.046  0.0159 -0.0494  0.1861
 1241ERGO    R418013  13.640   8.383   7.208  0.2406 -0.0236  0.0041
 1241ERGO    R518014  13.444   8.464   7.258  0.2584 -0.0980  0.2087
 1241ERGO    C118015  13.645   8.587   7.558  0.5124 -0.0783  0.0340
 1241ERGO    C218016  13.570   8.756   7.852  0.2640  0.2514 -0.2268
 1242ERGO   ROH18017  16.259   5.655   8.950  0.2784 -0.1799 -0.0722
 1242ERGO    R118018  16.469   5.765   8.795  0.3339 -0.1187  0.0449
 1242ERGO    R218019  16.505   6.037   8.765  0.0958 -0.1073 -0.1669
 1242ERGO    R318020  16.756   5.981   8.854  0.0645  0.2188  0.1492
 1242ERGO    R418021  16.787   6.220   8.686  0.0915 -0.2733 -0.5923
 1242ERGO    R518022  16.897   6.033   8.667  0.1492 -0.3249  0.0474
 1242ERGO    C118023  17.187   6.275   8.723  0.0594 -0.0640 -0.5432
 1242ERGO    C218024  17.543   6.305   8.718  0.0753  0.1123  0.2099
 1243ERGO   ROH18025  16.018   4.837   6.364  0.1264 -0.1588 -0.0076
 1243ERGO    R118026  15.998   4.726   6.624  0.0679 -0.2255 -0.0390
 1243ERGO    R218027  16.179   4.541   6.720  0.1761 -0.0888  0.0338
 1243ERGO    R318028  16.204   4.719   6.924 -0.1018 -0.1009  0.0807
 1243ERGO    R418029  16.256   4.457   7.046  0.5068 -0.0413 -0.0294
 1243ERGO    R518030  16.110   4.605   7.113  0.2220 -0.3650  0.0879
 1243ERGO    C118031  16.324   4.575   7.428  0.4385 -0.0250 -0.0222
 1243ERGO    C218032  16.381   4.371   7.718 -0.1587 -0.3248  0.0010
 1244ERGO   ROH18033   0.783  16.309   6.394 -0.2530  0.0889 -0.0692
 1244ERGO    R118034   0.710  16.159   6.622 -0.2281  0.0734 -0.0709
 1244ERGO    R218035   0.856  16.163   6.856 -0.1021 -0.0795 -0.1425
 1244ERGO    R318036   0.617  16.230   6.967 -0.0052  0.0418 -0.0036
 1244ERGO    R418037   0.782  16.140   7.193  0.0332 -0.1659 -0.1180
 1244ERGO    R518038   0.584  16.066   7.139 -0.0421 -0.0041 -0.0573
 1244ERGO    C118039   0.514  16.189   7.493  0.2031 -0.1022  0.0266
 1244ERGO    C218040   0.680  16.095   7.886  0.0846 -0.0874 -0.0075
 1245ERGO   ROH18041  10.224   5.983   6.151 -0.0612  0.0532  0.0982
 1245ERGO    R118042  10.214   5.759   6.323  0.0911  0.0116  0.0560
 1245ERGO    R218043  10.437   5.660   6.453  0.1509  0.1775  0.0917
 1245ERGO    R318044  10.283   5.692   6.674  0.0693  0.0118  0.0588
 1245ERGO    R418045  10.534   5.580   6.775  0.1363  0.2240  0.1070
 1245ERGO    R518046  10.334   5.502   6.811  0.2006  0.0436  0.0480
 1245ERGO    C118047  10.445   5.563   7.170  0.0511  0.0955  0.0849
 1245ERGO    C218048  10.576   5.501   7.511 -0.1070  0.0071  0.1486
 1246ERGO   ROH18049   2.296  16.808   5.887 -0.1166  0.1341  0.0096
 1246ERGO    R118050   2.390  16.866   6.147  0.0964  0.0690 -0.0497
 1246ERGO    R218051   2.221  16.896   6.364  0.2414  0.3480  0.0376
 1246ERGO    R318052   2.380  16.705   6.473  0.0434  0.1537 -0.0118
 1246ERGO    R418053   2.190  16.775   6.686 -0.0068  0.1301 -0.0655
 1246ERGO    R518054   2.407  16.774   6.701 -0.0219 -0.0381  0.0500
 1246ERGO    C118055   2.322  16.524   6.976 -0.3372 -0.1795 -0.1719
 1246ERGO    C218056   2.232  16.238   7.176 -0.0227  0.1442 -0.1904
 1247ERGO   ROH18057   0.610   4.009   6.605  0.2590 -0.0803  0.0079
 1247ERGO    R118058   0.641   4.149   6.850  0.0907 -0.0747  0.0265
 1247ERGO    R218059   0.425   4.231   7.003 -0.0129 -0.0902 -0.1150
 1247ERGO    R318060   0.553   4.093   7.199 -0.1289 -0.0747 -0.0261
 1247ERGO    R418061   0.449   4.331   7.333 -0.1383 -0.0137 -0.1281
 1247ERGO    R518062   0.655   4.261   7.334 -0.1503 -0.0612 -0.0217
 1247ERGO    C118063   0.583   4.260   7.708 -0.3202  0.0454 -0.0522
 1247ERGO    C218064   0.603   4.148   8.039 -0.1892 -0.3583  0.0326
 1248ERGO   ROH18065  18.121  10.204   6.588 -0.2002 -0.1616  0.0050
 1248ERGO    R118066  18.056  10.268   6.856  0.0997 -0.0219  0.0487
 1248ERGO    R218067  17.843  10.154   6.989 -0.0072  0.3444  0.2183
 1248ERGO    R318068  18.034  10.091   7.172  0.0308  0.0424  0.0780
 1248ERGO    R418069  17.808  10.185   7.332  0.2509  0.2470  0.2551
 1248ERGO    R518070  18.012  10.258   7.342  0.3407 -0.0041  0.1618
 1248ERGO    C118071  17.966  10.143   7.703  0.4371 -0.0931  0.1448
 1248ERGO    C218072  17.784  10.035   8.011 -0.3245 -0.0198 -0.2720
 1249ERGO   ROH18073  14.272  16.622   6.157  0.0313 -0.1605  0.1741
 1249ERGO    R118074  14.207  16.829   6.339  0.0823  0.0010  0.0103
 1249ERGO    R218075  14.114  16.778   6.595  0.0143  0.2271  0.0275
 1249ERGO    R318076  14.322  16.938   6.667  0.0644  0.1978 -0.0467
 1249ERGO    R418077  14.148  16.932   6.902 -0.0008  0.4506 -0.0797
 1249ERGO    R518078  14.222  17.110   6.800  0.0989  0.3448 -0.2022
 1249ERGO    C118079  14.363  17.172   7.149  0.0375  0.5532 -0.2116
 1249ERGO    C218080  14.693  17.187   7.363  0.1804  0.0269 -0.1554
 1250ERGO   ROH18081   4.906  16.541   5.798 -0.2054 -0.5108 -0.0152
 1250ERGO    R118082   5.143  16.536   5.952 -0.1501 -0.2500 -0.0864
 1250ERGO    R218083   5.142  16.559   6.227 -0.0711 -0.0256 -0.1016
 1250ERGO    R318084   5.283  16.327   6.215  0.0551  0.0421  0.0419
 1250ERGO    R418085   5.223  16.362   6.499 -0.0248  0.1481  0.0120
 1250ERGO    R518086   5.419  16.330   6.412  0.0114  0.2094  0.0712
 1250ERGO    C118087   5.402  16.029   6.646  0.1207  0.3127  0.2130
 1250ERGO    C218088   5.414  15.796   6.830 -0.0171  0.1722  0.0577
 1251ERGO   ROH18089   8.271  15.707   6.167 -0.0946  0.1457  0.0393
 1251ERGO    R118090   8.215  15.811   6.424 -0.0279  0.0778  0.0818
 1251ERGO    R218091   8.191  15.650   6.647 -0.1229  0.0016  0.0183
 1251ERGO    R318092   8.380  15.819   6.748 -0.0183 -0.1527  0.0839
 1251ERGO    R418093   8.232  15.723   6.983 -0.2178  0.0093  0.0283
 1251ERGO    R518094   8.269  15.931   6.928 -0.0051 -0.0288  0.0162
 1251ERGO    C118095   8.433  15.922   7.273 -0.1747 -0.1309  0.0957
 1251ERGO    C218096   8.510  15.994   7.589 -0.0444 -0.1612  0.4005
 1252ERGO   ROH18097  12.973  12.368   6.447  0.1199  0.0485  0.0692
 1252ERGO    R118098  13.038  12.297   6.713  0.2187 -0.0535  0.0171
 1252ERGO    R218099  13.300  12.277   6.803  0.2459  0.3551  0.0233
 1252ERGO    R318100  13.213  12.451   6.992 -0.0964  0.0422  0.1696
 1252ERGO    R418101  13.417  12.291   7.127  0.4156  0.4622 -0.0405
 1252ERGO    R518102  13.214  12.324   7.195  0.3472 -0.0915  0.1040
 1252ERGO    C118103  13.405  12.463   7.494  0.1930  0.2307  0.0598
 1252ERGO    C218104  13.638  12.581   7.705  0.1319 -0.2387  0.0910
 1253ERGO   ROH18105   9.782  14.240   6.306  0.1966 -0.0209  0.1344
 1253ERGO    R118106   9.650  14.307   6.548  0.1235  0.1541  0.0499
 1253ERGO    R218107   9.696  14.171   6.785 -0.2737  0.0281  0.0713
 1253ERGO    R318108   9.748  14.420   6.880  0.0753 -0.0681  0.1392
 1253ERGO    R418109   9.717  14.255   7.119 -0.3222 -0.0445  0.0916
 1253ERGO    R518110   9.611  14.440   7.075  0.0025  0.1295  0.0621
 1253ERGO    C118111   9.779  14.537   7.403 -0.0229 -0.1772  0.1671
 1253ERGO    C218112   9.943  14.599   7.643  0.1951  0.0580 -0.0253
 1254ERGO   ROH18113  17.669   1.103   6.346 -0.0516 -0.0503  0.0391
 1254ERGO    R118114  17.593   1.149   6.615  0.0560  0.1128  0.0431
 1254ERGO    R218115  17.546   0.944   6.794 -0.1537  0.2122  0.1100
 1254ERGO    R318116  17.730   1.076   6.944  0.0382  0.0375  0.0327
 1254ERGO    R418117  17.604   0.888   7.130 -0.0134  0.1195  0.0710
 1254ERGO    R518118  17.624   1.104   7.157  0.1797  0.0956  0.0932
 1254ERGO    C118119  17.810   0.980   7.467  0.2482 -0.0985 -0.0243
 1254ERGO    C218120  17.873   0.926   7.732  0.0654  0.2156  0.1203
 1255ERGO   ROH18121   1.129  11.774   5.905  0.0600  0.2864 -0.0280
 1255ERGO    R118122   1.143  11.663   6.165 -0.0657  0.1506 -0.0774
 1255ERGO    R218123   1.369  11.681   6.323 -0.0221 -0.2226 -0.0852
 1255ERGO    R318124   1.196  11.788   6.503  0.1323 -0.0658 -0.0268
 1255ERGO    R418125   1.371  11.615   6.662  0.1234 -0.1005 -0.0608
 1255ERGO    R518126   1.153  11.610   6.657  0.1189  0.0138  0.0602
 1255ERGO    C118127   1.208  11.676   7.028  0.3530  0.1177  0.0082
 1255ERGO    C218128   1.077  11.766   7.340  0.1746  0.2257  0.3050
 1256ERGO   ROH18129  15.276  16.936   6.299  0.0169 -0.1868 -0.0298
 1256ERGO    R118130  15.162  17.013   6.546  0.0759  0.1019 -0.0889
 1256ERGO    R218131  15.124  16.836   6.755 -0.4026  0.2044 -0.0741
 1256ERGO    R318132  15.266  17.020   6.895 -0.0492 -0.0774 -0.0473
 1256ERGO    R418133  15.148  16.847   7.099 -0.1067 -0.0710 -0.0818
 1256ERGO    R518134  15.132  17.064   7.089  0.1638 -0.0412  0.0920
 1256ERGO    C118135  15.295  17.026   7.431  0.3974 -0.4959 -0.0612
 1256ERGO    C218136  15.420  17.064   7.773  0.1800  0.2418  0.2719
 1257ERGO   ROH18137  13.032   6.235   6.178  0.1560 -0.0837  0.0317
 1257ERGO    R118138  13.069   6.136   6.441  0.3048  0.0423  0.0603
 1257ERGO    R218139  13.181   6.288   6.642  0.0298  0.2916  0.0370
 1257ERGO    R318140  12.952   6.222   6.774  0.1230 -0.0706  0.0262
 1257ERGO    R418141  13.144   6.290   6.986 -0.0424  0.3968  0.0286
 1257ERGO    R518142  13.028   6.106   6.969  0.3039  0.1684  0.0996
 1257ERGO    C118143  12.908   6.229   7.310  0.0029  0.1181  0.0135
 1257ERGO    C218144  12.742   6.342   7.570 -0.1193 -0.1269 -0.2911
 1258ERGO   ROH18145  10.628   0.074   5.812 -0.0142  0.1805  0.0604
 1258ERGO    R118146  10.655  -0.130   6.007 -0.0628  0.0976 -0.0214
 1258ERGO    R218147  10.600  -0.089   6.274 -0.0268  0.0121 -0.0082
 1258ERGO    R318148  10.437  -0.303   6.240 -0.0963  0.0714 -0.0688
 1258ERGO    R418149  10.544  -0.334   6.511 -0.2291  0.0566 -0.0059
 1258ERGO    R518150  10.550  -0.482   6.352 -0.2106  0.0362  0.0039
 1258ERGO    C118151  10.358  -0.678   6.617 -0.4120  0.1384 -0.0613
 1258ERGO    C218152  10.318  -0.817   6.809 -0.1345 -0.1009 -0.1443
 1259ERGO   ROH18153   0.380   5.160   6.491 -0.0557  0.2081  0.0799
 1259ERGO    R118154   0.405   5.221   6.766  0.2092  0.3539  0.0267
 1259ERGO    R218155   0.361   5.034   6.965 -0.1986  0.6021  0.1801
 1259ERGO    R318156   0.610   5.108   7.045  0.0393  0.0278  0.0250
 1259ERGO    R418157   0.467   5.043   7.294 -0.1034  0.7236  0.1471
 1259ERGO    R518158   0.572   5.229   7.249  0.4063  0.3961 -0.1117
 1259ERGO    C118159   0.762   5.118   7.561  0.1753  0.2552 -0.0178
 1259ERGO    C218160   0.838   5.180   7.934  0.0416 -0.0909  0.1186
 1260ERGO   ROH18161   0.716   2.194   6.556  0.0625 -0.1779  0.0560
 1260ERGO    R118162   0.637   2.114   6.816  0.0842 -0.0458  0.1036
 1260ERGO    R218163   0.721   1.877   6.931 -0.0305 -0.0592  0.1544
 1260ERGO    R318164   0.802   2.041   7.132  0.1252 -0.0458  0.0832
 1260ERGO    R418165   0.803   1.772   7.250 -0.2774  0.0097  0.2440
 1260ERGO    R518166   0.701   1.947   7.329 -0.0704  0.2010  0.1080
 1260ERGO    C118167   0.927   1.864   7.624 -0.2750  0.0625  0.2294
 1260ERGO    C218168   1.033   1.868   7.817  0.1065  0.3932 -0.0429
 1261ERGO   ROH18169  15.368  15.746   6.078 -0.0715  0.0006 -0.0403
 1261ERGO    R118170  15.514  15.764   6.320 -0.0734 -0.0120 -0.0390
 1261ERGO    R218171  15.552  16.003   6.454 -0.0030 -0.0081 -0.0721
 1261ERGO    R318172  15.445  15.865   6.663 -0.0496  0.0554 -0.0530
 1261ERGO    R418173  15.658  16.028   6.782 -0.1452  0.1826 -0.0384
 1261ERGO    R518174  15.633  15.812   6.801 -0.0864  0.1794  0.0514
 1261ERGO    C118175  15.620  15.913   7.169 -0.2718  0.3535 -0.0008
 1261ERGO    C218176  15.793  16.106   7.336  0.2695 -0.1704  0.0113
 1262ERGO   ROH18177   5.716   8.001   6.407  0.0603 -0.0327 -0.1142
 1262ERGO    R118178   5.702   7.982   6.689  0.0753 -0.0353 -0.1138
 1262ERGO    R218179   5.926   7.962   6.849  0.0857  0.0356 -0.1219
 1262ERGO    R318180   5.817   8.177   6.974  0.0233  0.0023 -0.1179
 1262ERGO    R418181   5.996   8.059   7.174  0.1024  0.0802 -0.1385
 1262ERGO    R518182   5.785   8.105   7.200  0.0872  0.0018 -0.1075
 1262ERGO    C118183   5.934   8.317   7.480  0.0537  0.0748 -0.1443
 1262ERGO    C218184   6.173   8.444   7.705 -0.0077  0.0525 -0.0250
 1263ERGO   ROH18185  13.242  17.277   6.110 -0.3512  0.0262  0.1415
 1263ERGO    R118186  13.146  17.266   6.376 -0.1861  0.1166  0.2057
 1263ERGO    R218187  13.258  17.102   6.569 -0.1732  0.0606  0.1417
 1263ERGO    R318188  13.277  17.335   6.708  0.0749  0.0581  0.1191
 1263ERGO    R418189  13.312  17.124   6.909 -0.2859  0.0179  0.1635
 1263ERGO    R518190  13.169  17.288   6.917 -0.0809  0.2168  0.0824
 1263ERGO    C118191  13.361  17.354   7.239 -0.1186 -0.0091  0.1550
 1263ERGO    C218192  13.508  17.254   7.574  0.2774 -0.0680 -0.0620
 1264ERGO   ROH18193   6.042   5.283   6.121 -0.0981  0.1295  0.1135
 1264ERGO    R118194   6.196   5.137   6.308 -0.0278  0.1456  0.0671
 1264ERGO    R218195   6.325   5.258   6.520 -0.1411  0.1328  0.1391
 1264ERGO    R318196   6.188   5.074   6.667 -0.0367 -0.0295  0.0379
 1264ERGO    R418197   6.401   5.169   6.846 -0.1739  0.1051  0.1400
 1264ERGO    R518198   6.357   4.961   6.793  0.0212  0.0782  0.0625
 1264ERGO    C118199   6.316   4.944   7.172 -0.0949 -0.0635  0.0454
 1264ERGO    C218200   6.618   4.809   7.442  0.1470  0.0040  0.3656
 1265ERGO   ROH18201   2.290   5.957   6.062 -0.0397 -0.2949  0.2166
 1265ERGO    R118202   2.142   5.983   6.302  0.2756  0.0437  0.3814
 1265ERGO    R218203   2.009   5.771   6.420 -0.2992  0.3878  0.3716
 1265ERGO    R318204   2.155   5.842   6.638  0.1610 -0.2086  0.2856
 1265ERGO    R418205   1.978   5.629   6.733 -0.7352  0.4896  0.3821
 1265ERGO    R518206   2.001   5.827   6.820  0.1631  0.4448  0.3760
 1265ERGO    C118207   2.098   5.612   7.120 -0.5571 -0.0109  0.3074
 1265ERGO    C218208   2.327   5.468   7.400  0.1920 -0.1024 -0.2293
 1266ERGO   ROH18209   9.009  12.709   6.283  0.1365  0.0600 -0.0125
 1266ERGO    R118210   9.051  12.641   6.555  0.1617 -0.0325 -0.0396
 1266ERGO    R218211   8.850  12.655   6.744  0.2303  0.0983  0.0218
 1266ERGO    R318212   8.919  12.396   6.789  0.0250  0.0280 -0.0510
 1266ERGO    R418213   8.894  12.515   7.057  0.3054  0.0296 -0.0185
 1266ERGO    R518214   9.066  12.406   6.978  0.1599 -0.1220 -0.1430
 1266ERGO    C118215   8.984  12.190   7.281  0.1564 -0.0765 -0.1104
 1266ERGO    C218216   8.832  12.059   7.549  0.1338 -0.0260 -0.0616
 1267ERGO   ROH18217  10.229   8.567   6.441 -0.0654 -0.0942 -0.0821
 1267ERGO    R118218  10.296   8.572   6.716  0.0129 -0.0076 -0.1016
 1267ERGO    R218219  10.128   8.678   6.909  0.0476  0.0172 -0.0787
 1267ERGO    R318220  10.160   8.435   7.024  0.1231  0.0521 -0.0269
 1267ERGO    R418221  10.025   8.596   7.228  0.1321  0.0626 -0.0400
 1267ERGO    R518222  10.209   8.483   7.253  0.1574  0.1110 -0.0502
 1267ERGO    C118223   9.995   8.318   7.522  0.2521  0.1218  0.0313
 1267ERGO    C218224  10.047   8.316   7.825 -0.0602 -0.0178 -0.1656
 1268ERGO   ROH18225  17.623   5.352   6.801 -0.2215 -0.1273 -0.0225
 1268ERGO    R118226  17.529   5.231   7.039 -0.1264 -0.1977 -0.0183
 1268ERGO    R218227  17.688   5.069   7.197  0.0018 -0.0875 -0.0181
 1268ERGO    R318228  17.614   5.242   7.393 -0.1178 -0.1333 -0.0245
 1268ERGO    R418229  17.721   5.010   7.535  0.1623  0.0129 -0.0165
 1268ERGO    R518230  17.526   5.102   7.566  0.0813 -0.1876  0.0266
 1268ERGO    C118231  17.670   5.138   7.917  0.1434  0.0284 -0.0215
 1268ERGO    C218232  17.696   5.071   8.177  0.1113  0.1843  0.0353
 1269ERGO   ROH18233  13.075  16.029   6.327  0.1026  0.0970 -0.0007
 1269ERGO    R118234  13.236  16.009   6.559  0.1733  0.1404 -0.0464
 1269ERGO    R218235  13.290  16.225   6.722 -0.0706  0.0968  0.0898
 1269ERGO    R318236  13.193  16.061   6.916  0.1749 -0.1616  0.0017
 1269ERGO    R418237  13.376  16.243   7.056 -0.1633  0.1155  0.1134
 1269ERGO    R518238  13.380  16.025   7.062  0.2202  0.1086  0.0205
 1269ERGO    C118239  13.336  16.101   7.433  0.0131 -0.1162  0.0445
 1269ERGO    C218240  13.485  16.306   7.685  0.1273 -0.1107 -0.3356
 1270ERGO   ROH18241  11.710   2.247   5.947 -0.0198  0.2903  0.0925
 1270ERGO    R118242  11.640   2.259   6.221  0.0792  0.1864  0.1234
 1270ERGO    R218243  11.497   2.059   6.347 -0.0974  0.2526  0.0366
 1270ERGO    R318244  11.706   2.062   6.519 -0.0343 -0.0844 -0.0272
 1270ERGO    R418245  11.468   2.056   6.691  0.0152  0.1780  0.0456
 1270ERGO    R518246  11.632   2.200   6.701  0.2112 -0.0433  0.0432
 1270ERGO    C118247  11.648   2.056   7.054  0.1400 -0.1817 -0.0090
 1270ERGO    C218248  11.539   1.992   7.243  0.2244 -0.0526  0.2015
 1271ERGO   ROH18249   5.103  17.370   5.584  0.1691  0.1553 -0.0866
 1271ERGO    R118250   5.000  17.368   5.848  0.1115  0.1019 -0.1093
 1271ERGO    R218251   5.054  17.164   6.026  0.0889  0.0764 -0.1320
 1271ERGO    R318252   5.137  17.368   6.185  0.0371  0.0561 -0.0785
 1271ERGO    R418253   5.067  17.153   6.372 -0.1320  0.0694 -0.1226
 1271ERGO    R518254   4.993  17.358   6.376 -0.0871  0.0877 -0.1689
 1271ERGO    C118255   5.153  17.339   6.722 -0.3092  0.0461 -0.0668
 1271ERGO    C218256   5.211  17.464   7.015  0.0844  0.1460 -0.0144
 1272ERGO   ROH18257   0.792   5.470   6.480  0.0526 -0.1815  0.0344
 1272ERGO    R118258   0.875   5.341   6.719  0.2531 -0.1055  0.0064
 1272ERGO    R218259   1.115   5.397   6.842  0.1086  0.3431  0.0866
 1272ERGO    R318260   0.957   5.442   7.059 -0.0424 -0.0630  0.0703
 1272ERGO    R418261   1.214   5.355   7.171  0.2267  0.6542  0.0956
 1272ERGO    R518262   1.018   5.269   7.213  0.4395  0.1056  0.0953
 1272ERGO    C118263   1.122   5.372   7.565  0.1537  0.4541  0.0856
 1272ERGO    C218264   1.345   5.393   7.857 -0.1793 -0.0846  0.0564
 1273ERGO   ROH18265   2.329  11.376   6.546 -0.0935 -0.2121 -0.0514
 1273ERGO    R118266   2.241  11.218   6.764 -0.0256 -0.2020 -0.0157
 1273ERGO    R218267   2.388  11.005   6.862  0.0660 -0.1197  0.0321
 1273ERGO    R318268   2.361  11.138   7.098  0.0109 -0.0769  0.0011
 1273ERGO    R418269   2.400  10.858   7.175  0.1404 -0.0396  0.0668
 1273ERGO    R518270   2.237  10.987   7.237  0.0834 -0.1001  0.0394
 1273ERGO    C118271   2.382  10.896   7.578  0.1320  0.0472  0.0581
 1273ERGO    C218272   2.282  10.728   7.890  0.0082  0.2676 -0.3511
 1274ERGO   ROH18273   9.308  15.179   6.299  0.2098  0.0602 -0.1473
 1274ERGO    R118274   9.190  15.271   6.540  0.0579 -0.0395 -0.1831
 1274ERGO    R218275   9.021  15.114   6.692  0.2596 -0.2362 -0.1633
 1274ERGO    R318276   9.196  15.174   6.891  0.1567  0.0588 -0.1558
 1274ERGO    R418277   8.946  15.111   7.029  0.2019 -0.2061 -0.1750
 1274ERGO    R518278   9.065  15.292   7.053 -0.0242 -0.0416 -0.2216
 1274ERGO    C118279   9.067  15.165   7.412  0.0718  0.0885 -0.1748
 1274ERGO    C218280   9.117  15.261   7.683 -0.1311  0.3550 -0.1050
 1275ERGO   ROH18281  15.429  15.296   6.255  0.1492 -0.2367  0.0284
 1275ERGO    R118282  15.366  15.374   6.519 -0.0134 -0.4389  0.0511
 1275ERGO    R218283  15.377  15.199   6.733  0.5570 -0.4400  0.0317
 1275ERGO    R318284  15.539  15.389   6.839  0.0419  0.0414  0.0073
 1275ERGO    R418285  15.386  15.287   7.067  0.4411 -0.5153  0.0557
 1275ERGO    R518286  15.405  15.495   7.006 -0.2225 -0.4131  0.1052
 1275ERGO    C118287  15.544  15.516   7.361 -0.1099 -0.1071  0.0467
 1275ERGO    C218288  15.561  15.613   7.689 -0.1327 -0.1692 -0.2822
 1276ERGO   ROH18289  10.758   7.790   6.289 -0.1843 -0.1386 -0.0463
 1276ERGO    R118290  10.829   7.784   6.563  0.1065 -0.2522 -0.1199
 1276ERGO    R218291  11.082   7.850   6.652  0.1031  0.0908 -0.3267
 1276ERGO    R318292  10.946   8.023   6.811 -0.0331 -0.2593 -0.0489
 1276ERGO    R418293  11.206   7.989   6.943  0.1462  0.0518 -0.3270
 1276ERGO    R518294  11.009   7.961   7.034  0.2752 -0.3429 -0.1595
 1276ERGO    C118295  11.150   8.232   7.262  0.0434 -0.2995 -0.0665
 1276ERGO    C218296  11.267   8.430   7.610  0.2143  0.0868 -0.0487
 1277ERGO   ROH18297   1.137   0.634   6.361 -0.0203 -0.1107 -0.0680
 1277ERGO    R118298   1.202   0.483   6.591 -0.0766 -0.0813 -0.0334
 1277ERGO    R218299   1.438   0.519   6.732 -0.0654 -0.1360 -0.0437
 1277ERGO    R318300   1.269   0.552   6.942 -0.0514 -0.0265 -0.0480
 1277ERGO    R418301   1.515   0.446   7.061  0.0208  0.1930  0.0140
 1277ERGO    R518302   1.314   0.365   7.085  0.0591  0.1178  0.1143
 1277ERGO    C118303   1.401   0.433   7.450  0.0841  0.4874  0.0437
 1277ERGO    C218304   1.497   0.453   7.671  0.2015 -0.0961 -0.1639
 1278ERGO   ROH18305   1.519  15.879   6.207  0.0406  0.0319  0.1069
 1278ERGO    R118306   1.680  15.947   6.430  0.1323 -0.1912  0.1106
 1278ERGO    R218307   1.574  15.990   6.682  0.1819 -0.0294  0.0994
 1278ERGO    R318308   1.757  15.802   6.755 -0.0876 -0.2918  0.1218
 1278ERGO    R418309   1.675  15.927   7.007  0.2066 -0.0084  0.0964
 1278ERGO    R518310   1.879  15.903   6.934  0.1513 -0.3794  0.0194
 1278ERGO    C118311   1.905  15.714   7.264 -0.0320 -0.2423  0.1157
 1278ERGO    C218312   2.072  15.694   7.597 -0.0242  0.1159 -0.0125
 1279ERGO   ROH18313   9.484   0.082   5.702  0.2478 -0.3176  0.1412
 1279ERGO    R118314   9.404   0.230   5.929  0.2916 -0.1035  0.0201
 1279ERGO    R218315   9.214   0.137   6.108  0.1085  0.1947 -0.0151
 1279ERGO    R318316   9.410   0.184   6.290  0.0705  0.0938  0.0519
 1279ERGO    R418317   9.166   0.158   6.449 -0.0317  0.3779 -0.0444
 1279ERGO    R518318   9.307   0.323   6.455  0.1175  0.2566 -0.0521
 1279ERGO    C118319   9.322   0.213   6.819 -0.1490  0.3900  0.0015
 1279ERGO    C218320   9.467   0.208   7.185 -0.0507  0.0959  0.0502
 1280ERGO   ROH18321   8.221  16.498   5.814 -0.1668  0.3349 -0.0472
 1280ERGO    R118322   8.262  16.632   6.060  0.0022  0.0930  0.0620
 1280ERGO    R218323   8.139  16.872   6.120  0.3333  0.2292  0.2347
 1280ERGO    R318324   8.056  16.737   6.341  0.1207  0.1713  0.1191
 1280ERGO    R418325   8.087  17.013   6.432  0.4046  0.0754  0.3159
 1280ERGO    R518326   8.177  16.837   6.522  0.1816 -0.0865  0.2218
 1280ERGO    C118327   7.978  16.968   6.819  0.2464 -0.0684  0.2548
 1280ERGO    C218328   7.980  16.916   7.068  0.1887 -0.1701  0.0948
 1281ERGO   ROH18329  17.896   2.474   6.036 -0.2069  0.0304  0.1068
 1281ERGO    R118330  17.802   2.358   6.276  0.0031 -0.3300  0.0226
 1281ERGO    R218331  17.927   2.142   6.396  0.5917 -0.0158  0.0176
 1281ERGO    R318332  17.930   2.306   6.613 -0.0079 -0.0518  0.0713
 1281ERGO    R418333  17.980   2.038   6.721  0.6616  0.0409  0.0242
 1281ERGO    R518334  17.826   2.178   6.786  0.2213 -0.3942 -0.0355
 1281ERGO    C118335  18.015   2.132   7.114  0.1393  0.0402  0.0782
 1281ERGO    C218336  18.058   2.064   7.427  0.1138  0.0990  0.1081
 1282ERGO   ROH18337  17.109  16.281   5.913 -0.2756 -0.0841  0.0224
 1282ERGO    R118338  17.010  16.198   6.165 -0.0027 -0.1715  0.1042
 1282ERGO    R218339  17.175  16.111   6.369  0.2615  0.2116  0.0598
 1282ERGO    R318340  17.046  16.303   6.511 -0.0275  0.0344  0.0466
 1282ERGO    R418341  17.201  16.154   6.711  0.0489  0.1545  0.0855
 1282ERGO    R518342  16.987  16.195   6.717 -0.0072 -0.0878 -0.0080
 1282ERGO    C118343  17.096  16.360   7.044 -0.3465 -0.0451  0.0881
 1282ERGO    C218344  17.166  16.332   7.367 -0.1838 -0.2820  0.2256
 1283ERGO   ROH18345   6.835   8.741   5.979  0.2013 -0.0670 -0.0130
 1283ERGO    R118346   6.855   8.762   6.261  0.1475 -0.1564 -0.0026
 1283ERGO    R218347   7.049   8.630   6.407  0.2195 -0.0735 -0.0271
 1283ERGO    R318348   7.102   8.880   6.500  0.0326 -0.0692  0.0759
 1283ERGO    R418349   7.163   8.702   6.725  0.2154 -0.1281 -0.0127
 1283ERGO    R518350   7.031   8.875   6.728  0.0728 -0.2336  0.0884
 1283ERGO    C118351   7.280   8.978   6.998  0.0375 -0.1559  0.0924
 1283ERGO    C218352   7.550   9.188   7.192  0.2737  0.0254  0.0877
 1284ERGO   ROH18353   5.188   0.978   5.583  0.2198  0.0613  0.0302
 1284ERGO    R118354   5.198   1.081   5.846  0.0802  0.0297  0.0485
 1284ERGO    R218355   4.989   1.054   6.024  0.0608 -0.1664 -0.0002
 1284ERGO    R318356   5.181   0.946   6.184  0.1156 -0.0378  0.0232
 1284ERGO    R418357   4.980   1.053   6.370  0.0430 -0.1424 -0.0001
 1284ERGO    R518358   5.194   1.096   6.370  0.0160 -0.0148  0.0106
 1284ERGO    C118359   5.154   0.951   6.721  0.0840 -0.0078  0.0219
 1284ERGO    C218360   4.920   0.947   6.924 -0.1337 -0.1825  0.0603
 1285ERGO   ROH18361   8.258  11.853   5.903 -0.1999  0.0170  0.0215
 1285ERGO    R118362   8.123  11.894   6.148  0.0403  0.1642  0.1332
 1285ERGO    R218363   8.015  11.687   6.295 -0.3559  0.3015  0.0498
 1285ERGO    R318364   8.166  11.791   6.495  0.0213 -0.1832  0.0355
 1285ERGO    R418365   7.946  11.655   6.632 -0.2290  0.2477  0.0713
 1285ERGO    R518366   8.007  11.863   6.659  0.2830  0.0944  0.1767
 1285ERGO    C118367   8.048  11.734   7.016  0.1989 -0.2387  0.0703
 1285ERGO    C218368   7.943  11.619   7.354  0.0814 -0.1561  0.0896
 1286ERGO   ROH18369   0.952  10.620   6.638 -0.0858 -0.3399  0.1140
 1286ERGO    R118370   0.930  10.527   6.905 -0.2925 -0.4435  0.0623
 1286ERGO    R218371   0.931  10.697   7.121  0.3244 -0.5641  0.1682
 1286ERGO    R318372   0.698  10.571   7.182 -0.0826  0.1292  0.1637
 1286ERGO    R418373   0.816  10.642   7.442  0.4840 -0.7410  0.1973
 1286ERGO    R518374   0.751  10.443   7.379 -0.2934 -0.4309 -0.1165
 1286ERGO    C118375   0.530  10.491   7.686  0.1949 -0.1931  0.2102
 1286ERGO    C218376   0.495  10.559   8.134 -0.0181  0.0726  0.4187
 1287ERGO   ROH18377   6.044   9.237   6.015 -0.2710  0.2025 -0.0230
 1287ERGO    R118378   6.164   9.307   6.262 -0.2075  0.0444 -0.0060
 1287ERGO    R218379   6.225   9.568   6.330 -0.0507 -0.0062  0.0883
 1287ERGO    R318380   6.076   9.511   6.550 -0.0693 -0.0095  0.0725
 1287ERGO    R418381   6.266   9.714   6.640 -0.0257 -0.0899  0.1229
 1287ERGO    R518382   6.232   9.520   6.731 -0.0807 -0.0918  0.0784
 1287ERGO    C118383   6.151   9.746   7.027 -0.0285 -0.1417  0.1282
 1287ERGO    C218384   6.030   9.888   7.336 -0.1506 -0.0559 -0.1805
 1288ERGO   ROH18385   9.203  10.600   6.203  0.0654  0.1023 -0.1020
 1288ERGO    R118386   9.184  10.717   6.460  0.1219  0.1345 -0.1113
 1288ERGO    R218387   9.031  10.941   6.511  0.0054  0.0533 -0.0726
 1288ERGO    R318388   8.920  10.782   6.702  0.1992  0.0106  0.0058
 1288ERGO    R418389   8.818  11.051   6.760  0.0399 -0.0590  0.0067
 1288ERGO    R518390   8.920  10.918   6.899  0.1915  0.0383 -0.0185
 1288ERGO    C118391   8.590  10.967   7.084  0.2416 -0.1644  0.1263
 1288ERGO    C218392   8.558  11.127   7.438 -0.1657 -0.1863 -0.0410
 1289ERGO   ROH18393  12.976   5.552   6.303 -0.0862 -0.0265  0.0914
 1289ERGO    R118394  12.869   5.475   6.554 -0.0378 -0.0094  0.1173
 1289ERGO    R218395  13.023   5.457   6.782 -0.0075  0.0710  0.1022
 1289ERGO    R318396  12.835   5.625   6.884 -0.0389  0.0402  0.0952
 1289ERGO    R418397  12.976   5.520   7.119 -0.1799 -0.1162  0.1150
 1289ERGO    R518398  12.760   5.516   7.084 -0.1637 -0.0661 -0.0054
 1289ERGO    C118399  12.771   5.714   7.410 -0.3098 -0.2540  0.1160
 1289ERGO    C218400  12.714   5.870   7.700 -0.2929 -0.0104  0.0709
 1290ERGO   ROH18401  15.887   1.451   6.319  0.0860 -0.2760 -0.0393
 1290ERGO    R118402  15.682   1.438   6.514  0.1568 -0.0000  0.0587
 1290ERGO    R218403  15.605   1.200   6.632 -0.1423  0.0919  0.0577
 1290ERGO    R318404  15.655   1.336   6.862  0.1757 -0.0154  0.0552
 1290ERGO    R418405  15.518   1.091   6.948 -0.2004  0.1996  0.0795
 1290ERGO    R518406  15.462   1.296   6.998  0.1595  0.2911  0.1273
 1290ERGO    C118407  15.515   1.154   7.348  0.0643  0.1615  0.0898
 1290ERGO    C218408  15.581   1.204   7.705 -0.1316  0.2283  0.2958
 1291ERGO   ROH18409  12.093   3.770   5.903 -0.0049  0.0320 -0.0481
 1291ERGO    R118410  11.989   3.889   6.138  0.1195  0.1547 -0.0539
 1291ERGO    R218411  11.849   3.745   6.328 -0.0799  0.3193 -0.0716
 1291ERGO    R318412  12.035   3.849   6.497  0.0379  0.0832 -0.0513
 1291ERGO    R418413  11.807   3.785   6.669  0.0224  0.1774 -0.0412
 1291ERGO    R518414  11.908   3.977   6.654  0.1731  0.1044  0.0410
 1291ERGO    C118415  11.957   3.906   7.025  0.1924 -0.1268 -0.0044
 1291ERGO    C218416  11.875   3.795   7.316 -0.4708  0.1341 -0.1549
 1292ERGO   ROH18417  18.181   0.339   6.083 -0.1910  0.1652 -0.0195
 1292ERGO    R118418  18.302   0.259   6.326 -0.0846  0.1965 -0.0618
 1292ERGO    R218419  18.417   0.439   6.501 -0.1927  0.2418 -0.0376
 1292ERGO    R318420  18.250   0.321   6.681 -0.0700  0.0650 -0.0359
 1292ERGO    R418421  18.493   0.382   6.834 -0.1130  0.2805 -0.0488
 1292ERGO    R518422  18.395   0.188   6.818  0.0680  0.1866 -0.0600
 1292ERGO    C118423  18.381   0.239   7.196  0.0486  0.1372 -0.0537
 1292ERGO    C218424  18.602   0.274   7.404 -0.1387  0.5606  0.2916
 1293ERGO   ROH18425   7.918  15.957   6.188  0.0001  0.0408  0.0360
 1293ERGO    R118426   7.790  16.005   6.436 -0.0513 -0.0616  0.0292
 1293ERGO    R218427   7.769  15.811   6.632  0.1265 -0.0683  0.0394
 1293ERGO    R318428   7.886  16.001   6.787 -0.0566  0.0531  0.0333
 1293ERGO    R418429   7.742  15.830   6.976  0.2873 -0.2257  0.0624
 1293ERGO    R518430   7.725  16.046   6.958 -0.0345 -0.2357  0.1399
 1293ERGO    C118431   7.836  16.019   7.322  0.2090 -0.2034  0.0703
 1293ERGO    C218432   7.952  16.033   7.606  0.0738  0.0092  0.0081
 1294ERGO   ROH18433  11.766   6.194   6.111  0.2004  0.2506  0.1319
 1294ERGO    R118434  11.772   6.337   6.355  0.1593  0.1665  0.1824
 1294ERGO    R218435  11.549   6.461   6.461  0.1473  0.1497  0.1749
 1294ERGO    R318436  11.611   6.313   6.681  0.0855  0.0692  0.1390
 1294ERGO    R418437  11.470   6.548   6.786 -0.0042 -0.0029  0.1813
 1294ERGO    R518438  11.667   6.475   6.848 -0.0151  0.0103  0.2317
 1294ERGO    C118439  11.483   6.460   7.182 -0.1504 -0.1674  0.1514
 1294ERGO    C218440  11.364   6.582   7.499 -0.4153 -0.1362  0.0702
 1295ERGO   ROH18441  12.229   8.065   6.123  0.1230 -0.0026  0.1156
 1295ERGO    R118442  12.122   7.923   6.343  0.1479 -0.1306  0.0475
 1295ERGO    R218443  12.280   7.795   6.529  0.1769 -0.0581  0.0817
 1295ERGO    R318444  12.138   7.946   6.705  0.0043 -0.1954  0.0561
 1295ERGO    R418445  12.219   7.710   6.859  0.1354 -0.1387  0.0523
 1295ERGO    R518446  12.016   7.786   6.836  0.0898 -0.2987  0.0000
 1295ERGO    C118447  12.049   7.801   7.215 -0.0509 -0.3146  0.0111
 1295ERGO    C218448  12.019   7.742   7.549  0.2182 -0.3091  0.1709
 1296ERGO   ROH18449   0.952   4.351   6.418 -0.0294  0.1773  0.0490
 1296ERGO    R118450   1.099   4.254   6.640  0.0636  0.1617 -0.0180
 1296ERGO    R218451   1.160   4.413   6.858  0.1648  0.1508 -0.0355
 1296ERGO    R318452   1.040   4.212   6.997  0.2150  0.1492  0.0052
 1296ERGO    R418453   1.163   4.382   7.202  0.1400  0.2359 -0.0275
 1296ERGO    R518454   1.190   4.167   7.178  0.2091  0.2408  0.0308
 1296ERGO    C118455   1.052   4.175   7.533  0.1726  0.2839  0.0154
 1296ERGO    C218456   1.106   4.223   7.868 -0.1273  0.2796 -0.2234
 1297ERGO   ROH18457  17.955  17.048   6.003 -0.3040 -0.0401 -0.0226
 1297ERGO    R118458  17.868  17.126   6.260 -0.3541 -0.0981 -0.0219
 1297ERGO    R218459  17.762  16.947   6.442  0.1178 -0.2495  0.1191
 1297ERGO    R318460  17.956  17.045   6.604 -0.0103  0.2600 -0.0179
 1297ERGO    R418461  17.719  17.024   6.776  0.1246 -0.2740  0.1257
 1297ERGO    R518462  17.842  17.202   6.746 -0.3118  0.0262  0.0094
 1297ERGO    C118463  17.877  17.161   7.123  0.0082  0.1898  0.0008
 1297ERGO    C218464  17.697  17.136   7.507  0.0817 -0.0153 -0.0988
 1298ERGO   ROH18465   0.401   6.559   6.361 -0.2690  0.0969 -0.1635
 1298ERGO    R118466   0.500   6.541   6.626 -0.1908 -0.0062 -0.1993
 1298ERGO    R218467   0.497   6.756   6.800 -0.1887 -0.0902 -0.0993
 1298ERGO    R318468   0.365   6.581   6.961 -0.1038 -0.1937 -0.1399
 1298ERGO    R418469   0.443   6.802   7.138 -0.0471 -0.2787 -0.0490
 1298ERGO    R518470   0.485   6.590   7.169 -0.0127 -0.2958 -0.1842
 1298ERGO    C118471   0.287   6.664   7.487  0.1150 -0.4856 -0.0578
 1298ERGO    C218472   0.142   6.764   7.824  0.2059 -0.1132  0.0642
 1299ERGO   ROH18473   0.041   7.832   6.433  0.0640  0.0903  0.0527
 1299ERGO    R118474   0.139   7.924   6.682 -0.0320  0.0607  0.1014
 1299ERGO    R218475  -0.028   8.023   6.879 -0.1175 -0.0533  0.0852
 1299ERGO    R318476   0.096   7.835   7.032 -0.0858 -0.0474  0.0680
 1299ERGO    R418477  -0.074   7.984   7.220 -0.0686 -0.0540  0.0921
 1299ERGO    R518478   0.140   7.946   7.239 -0.0623 -0.0433  0.0619
 1299ERGO    C118479   0.015   7.785   7.561 -0.0104 -0.0489  0.0799
 1299ERGO    C218480  -0.051   7.815   7.964  0.0858  0.1756  0.2619
 1300ERGO   ROH18481  10.100  14.574   6.310 -0.0400  0.4134 -0.1530
 1300ERGO    R118482  10.096  14.562   6.593 -0.0393  0.0798 -0.1639
 1300ERGO    R218483  10.255  14.723   6.751  0.0031 -0.1453  0.0269
 1300ERGO    R318484  10.018  14.789   6.867  0.0211 -0.2211  0.1094
 1300ERGO    R418485  10.220  14.854   7.069  0.1159  0.3228 -0.1452
 1300ERGO    R518486  10.045  14.727   7.097  0.2718  0.1695  0.1937
 1300ERGO    C118487   9.977  14.992   7.362  0.1983  0.5244 -0.1680
 1300ERGO    C218488   9.997  15.115   7.627 -0.1084 -0.2843  0.0682
 1301ERGO   ROH18489   8.539   2.960   6.137  0.1333 -0.0175  0.0407
 1301ERGO    R118490   8.500   2.787   6.357 -0.0337 -0.0239  0.0068
 1301ERGO    R218491   8.624   2.827   6.601 -0.0736 -0.1356  0.0409
 1301ERGO    R318492   8.369   2.815   6.695 -0.1056  0.0090 -0.0222
 1301ERGO    R418493   8.535   2.727   6.920 -0.2062 -0.1661 -0.0043
 1301ERGO    R518494   8.366   2.620   6.835 -0.2628 -0.0324 -0.0753
 1301ERGO    C118495   8.244   2.658   7.194 -0.3134 -0.0482 -0.0898
 1301ERGO    C218496   8.148   2.643   7.556 -0.2081  0.0347  0.1570
 1302ERGO   ROH18497  14.292   0.171   6.012 -0.1480  0.0147 -0.0806
 1302ERGO    R118498  14.411   0.233   6.261 -0.0877 -0.1088 -0.0776
 1302ERGO    R218499  14.335   0.453   6.411  0.0526 -0.0983 -0.0213
 1302ERGO    R318500  14.300   0.267   6.606 -0.0354 -0.1216 -0.0594
 1302ERGO    R418501  14.362   0.513   6.751  0.0215 -0.1654 -0.0068
 1302ERGO    R518502  14.463   0.321   6.772 -0.0420 -0.2018 -0.0254
 1302ERGO    C118503  14.344   0.373   7.131 -0.0791 -0.2264 -0.0341
 1302ERGO    C218504  14.224   0.330   7.575  0.2786  0.1057  0.2227
 1303ERGO   ROH18505   2.488   4.249   6.209  0.0865 -0.0281  0.2082
 1303ERGO    R118506   2.413   4.228   6.481 -0.0065 -0.1363  0.1750
 1303ERGO    R218507   2.478   4.009   6.637  0.1466 -0.0936  0.1731
 1303ERGO    R318508   2.585   4.198   6.801 -0.1073 -0.0063  0.2423
 1303ERGO    R418509   2.587   3.950   6.959  0.2396 -0.0694  0.1466
 1303ERGO    R518510   2.500   4.141   7.018 -0.0250 -0.2091  0.2241
 1303ERGO    C118511   2.750   4.093   7.302  0.0553  0.0266  0.1960
 1303ERGO    C218512   2.850   4.216   7.524 -0.1080  0.0221  0.1636
 1304ERGO   ROH18513  12.128   2.361   6.023  0.0222  0.0428 -0.1407
 1304ERGO    R118514  12.120   2.283   6.295  0.0728  0.0098 -0.1476
 1304ERGO    R218515  12.240   2.430   6.495 -0.0239  0.0723 -0.1298
 1304ERGO    R318516  11.992   2.423   6.606 -0.0216 -0.1036 -0.1360
 1304ERGO    R418517  12.175   2.442   6.835 -0.0319 -0.3106 -0.1142
 1304ERGO    R518518  12.020   2.292   6.805  0.0041 -0.3128 -0.2769
 1304ERGO    C118519  11.904   2.442   7.136 -0.0343 -0.6987 -0.1110
 1304ERGO    C218520  11.951   2.482   7.506 -0.0713  0.1384  0.0206
 1305ERGO   ROH18521   1.615   2.155   6.235  0.0250  0.0339  0.0574
 1305ERGO    R118522   1.623   2.019   6.483  0.0489  0.0067  0.0426
 1305ERGO    R218523   1.857   1.979   6.625  0.0614  0.0172  0.0326
 1305ERGO    R318524   1.718   2.098   6.825  0.0521 -0.0181  0.0461
 1305ERGO    R418525   1.944   1.969   6.959  0.1823  0.1829  0.0072
 1305ERGO    R518526   1.733   1.944   7.008  0.2205  0.0530  0.0888
 1305ERGO    C118527   1.864   2.074   7.342  0.2438  0.2462  0.0051
 1305ERGO    C218528   1.825   2.224   7.667  0.1288 -0.4345  0.2409
 1306ERGO   ROH18529  10.212   9.623   6.238 -0.1663  0.0711  0.0512
 1306ERGO    R118530  10.096   9.744   6.467  0.0482  0.1587  0.1158
 1306ERGO    R218531   9.953   9.600   6.654 -0.1504  0.2988  0.0737
 1306ERGO    R318532  10.130   9.712   6.828  0.0501 -0.0416  0.0992
 1306ERGO    R418533   9.904   9.629   6.995 -0.1814  0.4659  0.0561
 1306ERGO    R518534   9.993   9.828   6.986  0.2485  0.2847  0.0413
 1306ERGO    C118535  10.042   9.752   7.356 -0.0113  0.2436  0.0697
 1306ERGO    C218536  10.186   9.888   7.596 -0.0849 -0.2071 -0.1192
 1307ERGO   ROH18537   3.279   1.214   5.853 -0.0115  0.0973  0.2533
 1307ERGO    R118538   3.229   1.104   6.109  0.0703  0.1003  0.2732
 1307ERGO    R218539   3.388   0.908   6.221 -0.0284 -0.0815  0.1259
 1307ERGO    R318540   3.404   1.084   6.427  0.2930 -0.1208  0.1371
 1307ERGO    R418541   3.424   0.821   6.553 -0.4243 -0.1715  0.1476
 1307ERGO    R518542   3.283   0.979   6.605 -0.0648  0.1740  0.0706
 1307ERGO    C118543   3.459   0.935   6.940 -0.3530 -0.2608  0.1707
 1307ERGO    C218544   3.549   1.098   7.196 -0.1474 -0.1729 -0.1001
 1308ERGO   ROH18545   2.475  13.536   5.781 -0.1130 -0.0241 -0.0121
 1308ERGO    R118546   2.282  13.460   5.974 -0.1569  0.0257 -0.0379
 1308ERGO    R218547   2.337  13.283   6.177 -0.2584 -0.0653 -0.0957
 1308ERGO    R318548   2.245  13.484   6.335 -0.1497 -0.0648 -0.0295
 1308ERGO    R418549   2.245  13.248   6.509 -0.1923 -0.1125 -0.0813
 1308ERGO    R518550   2.077  13.381   6.471 -0.1576 -0.0402 -0.0138
 1308ERGO    C118551   2.106  13.416   6.850 -0.0516 -0.1394 -0.0107
 1308ERGO    C218552   1.978  13.336   7.208 -0.0406 -0.4163 -0.0208
 1309ERGO   ROH18553   4.754   1.847   5.767  0.3241  0.1419 -0.0791
 1309ERGO    R118554   4.720   1.977   6.016  0.0912  0.0303 -0.0497
 1309ERGO    R218555   4.531   1.898   6.202  0.0682 -0.1968 -0.1664
 1309ERGO    R318556   4.746   1.886   6.368  0.0012 -0.0667 -0.0683
 1309ERGO    R418557   4.515   1.902   6.547 -0.0824 -0.1939 -0.1725
 1309ERGO    R518558   4.689   2.032   6.549 -0.1601 -0.0944 -0.0979
 1309ERGO    C118559   4.707   1.894   6.904 -0.2329 -0.0701 -0.0839
 1309ERGO    C218560   4.802   1.710   7.200  0.1566 -0.1696 -0.1635
 1310ERGO   ROH18561   5.171   8.874   6.245  0.2321 -0.1763 -0.1265
 1310ERGO    R118562   5.238   8.774   6.501  0.2228 -0.1577 -0.1168
 1310ERGO    R218563   5.456   8.866   6.644  0.1984 -0.1241 -0.1017
 1310ERGO    R318564   5.270   8.908   6.838  0.1762 -0.1406 -0.1191
 1310ERGO    R418565   5.522   9.002   6.955  0.1578 -0.1225 -0.0936
 1310ERGO    R518566   5.385   8.858   7.042  0.1604 -0.1341 -0.1085
 1310ERGO    C118567   5.386   9.122   7.317  0.1135 -0.1370 -0.1054
 1310ERGO    C218568   5.282   9.443   7.415 -0.0631  0.0516 -0.0856
 1311ERGO   ROH18569  16.682   6.653   6.431 -0.0135 -0.0413 -0.0652
 1311ERGO    R118570  16.509   6.462   6.548  0.0679 -0.1560 -0.1286
 1311ERGO    R218571  16.603   6.237   6.679  0.1797  0.0264  0.1208
 1311ERGO    R318572  16.449   6.330   6.882 -0.1438 -0.0023 -0.1050
 1311ERGO    R418573  16.556   6.077   6.981  0.1493  0.2476  0.2341
 1311ERGO    R518574  16.346   6.135   6.974  0.0648 -0.0681 -0.0115
 1311ERGO    C118575  16.384   6.071   7.348 -0.1722  0.3496  0.0881
 1311ERGO    C218576  16.280   5.964   7.713 -0.0883  0.1953 -0.0754
 1312ERGO   ROH18577  15.163   7.250   6.703  0.0602 -0.1445 -0.0166
 1312ERGO    R118578  15.233   7.234   6.977  0.0698 -0.1587 -0.0199
 1312ERGO    R218579  15.163   7.428   7.160  0.1467 -0.1275 -0.0225
 1312ERGO    R318580  15.055   7.218   7.294  0.0814 -0.0863 -0.0099
 1312ERGO    R418581  15.212   7.363   7.496 -0.0160 -0.0277  0.0221
 1312ERGO    R518582  15.228   7.151   7.447  0.0071 -0.0417  0.0940
 1312ERGO    C118583  15.140   7.128   7.818 -0.1720  0.0691  0.0601
 1312ERGO    C218584  15.159   6.963   8.038  0.2792 -0.0403  0.2250
 1313ERGO   ROH18585   2.888   6.189   6.307  0.1264 -0.0532 -0.0038
 1313ERGO    R118586   2.970   6.220   6.576  0.1503  0.0004 -0.0168
 1313ERGO    R218587   2.808   6.335   6.768  0.1134 -0.0848  0.0062
 1313ERGO    R318588   2.858   6.103   6.902  0.2649 -0.0552  0.0023
 1313ERGO    R418589   2.797   6.299   7.112 -0.0005 -0.1348 -0.0023
 1313ERGO    R518590   2.975   6.173   7.099  0.1182  0.0267  0.0593
 1313ERGO    C118591   2.837   6.061   7.437  0.0754 -0.1361 -0.0110
 1313ERGO    C218592   2.699   6.206   7.794  0.1497 -0.0480  0.1662
 1314ERGO   ROH18593  10.833  11.021   6.202 -0.0403  0.1573 -0.0055
 1314ERGO    R118594  10.818  10.903   6.459  0.0814  0.0571 -0.0447
 1314ERGO    R218595  11.007  10.948   6.655  0.0485  0.1687 -0.0426
 1314ERGO    R318596  10.791  11.020   6.803 -0.0127 -0.0828 -0.0029
 1314ERGO    R418597  10.989  10.931   7.000  0.1862  0.2783 -0.0276
 1314ERGO    R518598  10.784  10.859   6.980  0.2766 -0.0275  0.0658
 1314ERGO    C118599  10.775  10.988   7.339  0.2091  0.1062  0.0184
 1314ERGO    C218600  10.928  11.113   7.657 -0.1373  0.2490 -0.0599
 1315ERGO   ROH18601  11.091   4.984   6.029 -0.2504  0.1291 -0.0777
 1315ERGO    R118602  11.270   4.885   6.224 -0.2975 -0.0085 -0.1034
 1315ERGO    R218603  11.421   5.052   6.385 -0.0458 -0.1221 -0.2190
 1315ERGO    R318604  11.306   4.908   6.586 -0.1465  0.0866 -0.1229
 1315ERGO    R418605  11.560   5.003   6.698 -0.1258  0.0731 -0.1513
 1315ERGO    R518606  11.491   4.797   6.692 -0.2115  0.0938  0.0026
 1315ERGO    C118607  11.534   4.840   7.068 -0.2670  0.3826 -0.0218
 1315ERGO    C218608  11.552   4.962   7.339  0.1076 -0.0871 -0.2678
 1316ERGO   ROH18609   1.422  15.396   6.253 -0.0216 -0.0940  0.0229
 1316ERGO    R118610   1.567  15.439   6.492 -0.0952 -0.1332  0.0748
 1316ERGO    R218611   1.449  15.530   6.724 -0.1309  0.0309 -0.0070
 1316ERGO    R318612   1.563  15.308   6.832 -0.3497 -0.0264  0.1150
 1316ERGO    R418613   1.510  15.483   7.061 -0.0776  0.2017  0.0085
 1316ERGO    R518614   1.701  15.392   7.008 -0.1958 -0.0557  0.0105
 1316ERGO    C118615   1.653  15.248   7.358 -0.2519  0.2471  0.1320
 1316ERGO    C218616   1.718  15.205   7.674  0.0204 -0.3455 -0.1472
 1317ERGO   ROH18617   7.792   9.882   5.766 -0.1289  0.0357  0.0332
 1317ERGO    R118618   7.843   9.928   6.040 -0.0936 -0.0704  0.0458
 1317ERGO    R218619   7.832  10.180   6.153  0.0776 -0.0885  0.1145
 1317ERGO    R318620   7.658  10.060   6.325 -0.0024 -0.0195  0.0804
 1317ERGO    R418621   7.745  10.304   6.464  0.1166 -0.0935  0.1266
 1317ERGO    R518622   7.752  10.100   6.541 -0.0024 -0.1071  0.0940
 1317ERGO    C118623   7.531  10.264   6.806  0.0642 -0.0317  0.1016
 1317ERGO    C218624   7.472  10.175   7.095 -0.0056  0.2035 -0.0886
 1318ERGO   ROH18625  17.887   3.873   6.497 -0.1310  0.0545  0.2088
 1318ERGO    R118626  17.788   3.814   6.756 -0.0530  0.2707  0.2899
 1318ERGO    R218627  17.866   3.591   6.898 -0.3115  0.1754  0.2842
 1318ERGO    R318628  17.927   3.773   7.089  0.1095  0.1258  0.2062
 1318ERGO    R418629  17.917   3.517   7.232 -0.2986  0.1741  0.2820
 1318ERGO    R518630  17.808   3.699   7.283  0.0519  0.3965  0.2808
 1318ERGO    C118631  18.004   3.646   7.606  0.1042  0.1268  0.2076
 1318ERGO    C218632  18.017   3.707   7.849  0.0204  0.4784  0.0494
 1319ERGO   ROH18633  14.723  17.603   5.981  0.2548  0.0566 -0.0325
 1319ERGO    R118634  14.732  17.751   6.222  0.1389  0.1680 -0.0959
 1319ERGO    R218635  14.613  17.999   6.248 -0.1660  0.0326 -0.1654
 1319ERGO    R318636  14.490  17.882   6.461  0.0405 -0.0353 -0.0805
 1319ERGO    R418637  14.605  18.130   6.568 -0.2918  0.1985 -0.2347
 1319ERGO    R518638  14.635  17.928   6.646  0.0152  0.2760 -0.1304
 1319ERGO    C118639  14.485  18.096   6.954 -0.1711  0.2313 -0.1954
 1319ERGO    C218640  14.451  18.091   7.254 -0.1516 -0.0145 -0.2214
 1320ERGO   ROH18641   0.305  14.572   6.322 -0.1376 -0.2308 -0.1244
 1320ERGO    R118642   0.417  14.593   6.581 -0.1266 -0.1177 -0.1380
 1320ERGO    R218643   0.266  14.652   6.804 -0.1275 -0.0815 -0.1477
 1320ERGO    R318644   0.378  14.424   6.901 -0.0649 -0.0224 -0.0797
 1320ERGO    R418645   0.346  14.597   7.136 -0.2134 -0.0047 -0.1135
 1320ERGO    R518646   0.530  14.500   7.070 -0.1516  0.0623 -0.0394
 1320ERGO    C118647   0.499  14.351   7.420 -0.2047  0.0956 -0.0298
 1320ERGO    C218648   0.490  14.268   7.813 -0.2824 -0.1098  0.1847
 1321ERGO   ROH18649   2.049   2.936   6.001  0.0136 -0.2074  0.0116
 1321ERGO    R118650   2.120   3.010   6.265 -0.0826 -0.1267  0.0150
 1321ERGO    R218651   1.962   3.174   6.422 -0.1643 -0.1226 -0.0760
 1321ERGO    R318652   1.981   2.968   6.598 -0.1740 -0.0729 -0.0152
 1321ERGO    R418653   1.966   3.207   6.766  0.1995  0.0126 -0.0877
 1321ERGO    R518654   2.118   3.053   6.775  0.0764 -0.1207 -0.1793
 1321ERGO    C118655   1.985   3.034   7.131  0.4021  0.1380 -0.0374
 1321ERGO    C218656   1.959   3.078   7.506  0.1763 -0.5143  0.0181
 1322ERGO   ROH18657   0.322  13.323   5.897 -0.1432  0.0832 -0.0643
 1322ERGO    R118658   0.285  13.254   6.170 -0.0910  0.2490 -0.0150
 1322ERGO    R218659   0.368  13.011   6.274 -0.3724  0.1746  0.0366
 1322ERGO    R318660   0.499  13.170   6.452 -0.0492  0.0688 -0.0985
 1322ERGO    R418661   0.465  12.915   6.592 -0.1465  0.1108 -0.0480
 1322ERGO    R518662   0.406  13.112   6.664  0.1045  0.1718 -0.0005
 1322ERGO    C118663   0.644  13.009   6.944  0.2886 -0.0257 -0.2241
 1322ERGO    C218664   0.768  12.835   7.280 -0.0424  0.2109 -0.2446
 1323ERGO   ROH18665   8.350   9.088   5.864 -0.1071  0.1407 -0.0429
 1323ERGO    R118666   8.346   9.030   6.141 -0.1346  0.1454 -0.0442
 1323ERGO    R218667   8.119   8.942   6.271 -0.0972 -0.0169 -0.1054
 1323ERGO    R318668   8.281   8.739   6.349  0.0300  0.1025 -0.0465
 1323ERGO    R418669   8.058   8.734   6.540 -0.2172 -0.2519 -0.3092
 1323ERGO    R518670   8.270   8.743   6.589 -0.2709 -0.0543 -0.0453
 1323ERGO    C118671   8.174   8.421   6.770 -0.1677 -0.2766 -0.3726
 1323ERGO    C218672   8.269   8.289   7.044  0.2986  0.3246  0.1380
 1324ERGO   ROH18673   2.330  14.588   5.760  0.1407 -0.0760 -0.1835
 1324ERGO    R118674   2.388  14.426   5.985  0.1170 -0.0981 -0.1916
 1324ERGO    R218675   2.608  14.471   6.148  0.0982 -0.1052 -0.1519
 1324ERGO    R318676   2.420  14.475   6.344  0.0650 -0.1296 -0.1850
 1324ERGO    R418677   2.667  14.397   6.480  0.0370 -0.0836 -0.1370
 1324ERGO    R518678   2.477  14.291   6.486  0.0604 -0.1091 -0.1671
 1324ERGO    C118679   2.525  14.358   6.858 -0.0300 -0.0940 -0.1594
 1324ERGO    C218680   2.661  14.385   7.004  0.1975  0.2780 -0.1347
 1325ERGO   ROH18681   7.919  13.772   5.973 -0.1791  0.1259  0.0434
 1325ERGO    R118682   7.726  13.902   6.133 -0.0915  0.1869  0.0984
 1325ERGO    R218683   7.534  13.765   6.276 -0.1747  0.2543  0.0424
 1325ERGO    R318684   7.634  13.908   6.485 -0.0846  0.1074  0.1034
 1325ERGO    R418685   7.392  13.779   6.591 -0.2232  0.2735  0.0207
 1325ERGO    R518686   7.439  13.992   6.597 -0.0400  0.2392  0.0932
 1325ERGO    C118687   7.403  13.922   6.970 -0.1668  0.1468  0.0653
 1325ERGO    C218688   7.322  13.822   7.295  0.0752  0.2743  0.1355
 1326ERGO   ROH18689  15.778  11.811   6.330 -0.1166  0.3198 -0.1217
 1326ERGO    R118690  15.921  11.836   6.573 -0.2016  0.2156 -0.0597
 1326ERGO    R218691  16.189  11.775   6.596 -0.2211  0.1492  0.0240
 1326ERGO    R318692  16.206  12.027   6.695 -0.2033  0.1164  0.1033
 1326ERGO    R418693  16.398  11.872   6.854 -0.1090  0.0832 -0.0420
 1326ERGO    R518694  16.236  11.996   6.931 -0.0868  0.0380  0.0784
 1326ERGO    C118695  16.535  12.165   7.097 -0.0270  0.0139 -0.0059
 1326ERGO    C218696  16.682  12.147   7.406 -0.0364 -0.0820  0.0134
 1327ERGO   ROH18697   8.655  14.461   6.245  0.0881  0.0206 -0.0520
 1327ERGO    R118698   8.578  14.389   6.508  0.0869 -0.0258 -0.0648
 1327ERGO    R218699   8.646  14.146   6.621  0.3023  0.0529 -0.0173
 1327ERGO    R318700   8.748  14.303   6.818  0.0897  0.1820 -0.0069
 1327ERGO    R418701   8.695  14.045   6.948  0.2228  0.1729  0.0323
 1327ERGO    R518702   8.625  14.240   7.014  0.0422  0.1379 -0.0505
 1327ERGO    C118703   8.821  14.133   7.323 -0.0229  0.3642  0.0710
 1327ERGO    C218704   8.724  14.073   7.530  0.1682  0.2577  0.0151
 1328ERGO   ROH18705  10.669   9.512   6.361  0.0767 -0.2117 -0.0406
 1328ERGO    R118706  10.575   9.605   6.611  0.0514 -0.0873 -0.0940
 1328ERGO    R218707  10.450   9.439   6.795 -0.0802  0.0272 -0.0704
 1328ERGO    R318708  10.643   9.534   6.962 -0.0770 -0.0118 -0.0546
 1328ERGO    R418709  10.411   9.488   7.134 -0.1037  0.0648 -0.0796
 1328ERGO    R518710  10.524   9.673   7.116 -0.0545  0.0296 -0.0793
 1328ERGO    C118711  10.568   9.605   7.489 -0.1142  0.0501 -0.0702
 1328ERGO    C218712  10.636   9.468   7.801 -0.1050 -0.0015 -0.1728
 1329ERGO   ROH18713   9.730  11.833   6.130  0.0441  0.0561 -0.0066
 1329ERGO    R118714   9.747  11.915   6.401  0.0454 -0.0862  0.0354
 1329ERGO    R218715   9.561  11.840   6.591 -0.0319 -0.0630 -0.0427
 1329ERGO    R318716   9.781  11.753   6.725 -0.1128 -0.2621 -0.0318
 1329ERGO    R418717   9.583  11.808   6.934 -0.0070  0.1651 -0.0192
 1329ERGO    R518718   9.786  11.886   6.924  0.1072 -0.1109 -0.1280
 1329ERGO    C118719   9.802  11.707   7.260 -0.0686  0.1110  0.0047
 1329ERGO    C218720   9.852  11.661   7.554  0.0976  0.3410  0.2396
 1330ERGO   ROH18721   8.502   1.907   5.930 -0.1137  0.3171 -0.0072
 1330ERGO    R118722   8.546   1.902   6.209 -0.0462  0.1472 -0.0189
 1330ERGO    R218723   8.352   1.822   6.389 -0.0706  0.2277 -0.0061
 1330ERGO    R318724   8.545   1.650   6.472 -0.1949  0.0210 -0.1382
 1330ERGO    R418725   8.380   1.697   6.710 -0.0206  0.1572 -0.0388
 1330ERGO    R518726   8.596   1.722   6.695 -0.0007 -0.0579 -0.1549
 1330ERGO    C118727   8.578   1.464   6.975 -0.1080 -0.0779 -0.1818
 1330ERGO    C218728   8.498   1.347   7.272  0.0226  0.1373 -0.1083
 1331ERGO   ROH18729  15.384   8.602   6.424 -0.0929  0.2226  0.0860
 1331ERGO    R118730  15.458   8.820   6.588  0.0515  0.1469  0.1254
 1331ERGO    R218731  15.341   8.868   6.834  0.0853  0.1782  0.1420
 1331ERGO    R318732  15.599   8.865   6.920  0.0875 -0.0089  0.1302
 1331ERGO    R418733  15.454   9.023   7.121  0.2347  0.1604  0.0924
 1331ERGO    R518734  15.633   9.084   7.012  0.2762 -0.0164  0.0704
 1331ERGO    C118735  15.762   9.111   7.370  0.3238 -0.0257  0.0524
 1331ERGO    C218736  15.708   9.164   7.733  0.2529  0.3541 -0.0903
 1332ERGO   ROH18737   7.085   7.638   5.944  0.1246 -0.1540  0.0267
 1332ERGO    R118738   7.019   7.765   6.189  0.0332 -0.0527 -0.0499
 1332ERGO    R218739   6.828   7.666   6.362  0.0466 -0.0391 -0.0319
 1332ERGO    R318740   7.031   7.680   6.542  0.0092  0.1374 -0.0009
 1332ERGO    R418741   6.790   7.645   6.705  0.0256 -0.3072 -0.0478
 1332ERGO    R518742   6.939   7.802   6.726 -0.1942 -0.1020  0.0663
 1332ERGO    C118743   6.958   7.646   7.074 -0.0217 -0.2974 -0.0279
 1332ERGO    C218744   6.642   7.562   7.292  0.1395  0.1692 -0.0102
 1333ERGO   ROH18745  12.532  13.253   6.214 -0.0036  0.0167 -0.1251
 1333ERGO    R118746  12.407  13.272   6.467  0.1312  0.0651 -0.0612
 1333ERGO    R218747  12.544  13.235   6.704  0.2613  0.1285 -0.1261
 1333ERGO    R318748  12.441  13.479   6.764  0.2769  0.1345 -0.1252
 1333ERGO    R418749  12.506  13.360   7.024  0.0307  0.0219 -0.1102
 1333ERGO    R518750  12.314  13.443   6.964  0.1008  0.0949 -0.2420
 1333ERGO    C118751  12.387  13.663   7.267 -0.0892 -0.0345 -0.1001
 1333ERGO    C218752  12.286  13.790   7.527 -0.2662 -0.0143 -0.2018
 1334ERGO   ROH18753   9.901   3.552   5.833  0.1398  0.0020 -0.0438
 1334ERGO    R118754   9.896   3.451   6.098  0.1385 -0.0852 -0.0784
 1334ERGO    R218755  10.113   3.472   6.269  0.0366  0.1123  0.0165
 1334ERGO    R318756   9.930   3.588   6.433 -0.1688 -0.1509 -0.0147
 1334ERGO    R418757  10.091   3.419   6.610  0.1447  0.1592  0.0325
 1334ERGO    R518758   9.874   3.417   6.591  0.1309 -0.2203  0.0338
 1334ERGO    C118759   9.906   3.498   6.963  0.0149 -0.0606  0.0125
 1334ERGO    C218760   9.833   3.429   7.306  0.0513 -0.1060 -0.0452
 1335ERGO   ROH18761  10.112   4.663   6.470  0.1199 -0.2062 -0.0118
 1335ERGO    R118762   9.998   4.554   6.705  0.0393 -0.0721  0.0123
 1335ERGO    R218763  10.126   4.562   6.950  0.0142 -0.0509  0.0232
 1335ERGO    R318764   9.894   4.678   7.031  0.0595  0.0884 -0.0411
 1335ERGO    R418765   9.995   4.537   7.269 -0.1112 -0.0115 -0.0243
 1335ERGO    R518766   9.797   4.517   7.180 -0.0959  0.1289 -0.0959
 1335ERGO    C118767   9.701   4.631   7.531 -0.1418  0.1424 -0.1123
 1335ERGO    C218768   9.451   4.567   7.823 -0.1881  0.0455  0.2099
 1336ERGO   ROH18769   2.700   5.083   6.164 -0.1293 -0.0184 -0.0172
 1336ERGO    R118770   2.878   5.146   6.375 -0.1489  0.1734 -0.0554
 1336ERGO    R218771   2.791   5.230   6.623 -0.1901  0.0305 -0.0181
 1336ERGO    R318772   2.944   5.023   6.711  0.0923  0.2032 -0.0906
 1336ERGO    R418773   2.860   5.164   6.955 -0.4433 -0.2253 -0.0126
 1336ERGO    R518774   3.065   5.114   6.897 -0.2801  0.2163  0.1526
 1336ERGO    C118775   3.044   4.932   7.232 -0.3257 -0.2121 -0.0775
 1336ERGO    C218776   3.143   4.913   7.560 -0.0838  0.0925 -0.0670
 1337ERGO   ROH18777   3.763   8.401   6.259  0.1387 -0.0059  0.1137
 1337ERGO    R118778   3.592   8.515   6.454 -0.0418 -0.2504  0.1028
 1337ERGO    R218779   3.528   8.386   6.689  0.3443 -0.2396  0.2176
 1337ERGO    R318780   3.619   8.616   6.802 -0.1194  0.0526  0.0246
 1337ERGO    R418781   3.446   8.495   7.007  0.4196 -0.3478  0.2750
 1337ERGO    R518782   3.432   8.698   6.928 -0.2070 -0.3950  0.2100
 1337ERGO    C118783   3.484   8.775   7.298  0.0281 -0.1365  0.1273
 1337ERGO    C218784   3.343   8.878   7.604  0.2068  0.2065 -0.0576
 1338ERGO   ROH18785   3.491  17.739   6.093  0.2332  0.2094 -0.0300
 1338ERGO    R118786   3.463  17.636   6.356 -0.0615  0.1215 -0.0925
 1338ERGO    R218787   3.661  17.660   6.546 -0.0833 -0.3486 -0.0005
 1338ERGO    R318788   3.461  17.772   6.694  0.0619 -0.0467 -0.0232
 1338ERGO    R418789   3.678  17.723   6.886 -0.0427 -0.4051  0.0087
 1338ERGO    R518790   3.471  17.656   6.903 -0.1550 -0.0838 -0.0316
 1338ERGO    C118791   3.501  17.864   7.222  0.1173 -0.1547 -0.0073
 1338ERGO    C218792   3.571  17.805   7.597  0.1343 -0.2286  0.1481
 1339ERGO   ROH18793  13.482   8.865   6.413  0.3232 -0.1767  0.0547
 1339ERGO    R118794  13.572   8.858   6.681  0.3129 -0.0343  0.0623
 1339ERGO    R218795  13.706   9.070   6.798 -0.0241  0.1797  0.0723
 1339ERGO    R318796  13.510   9.048   6.985 -0.0096 -0.1244  0.0575
 1339ERGO    R418797  13.744   9.149   7.132 -0.1419  0.1534  0.0923
 1339ERGO    R518798  13.625   8.973   7.182  0.0850 -0.0212  0.0450
 1339ERGO    C118799  13.583   9.175   7.502 -0.1968 -0.1473  0.0901
 1339ERGO    C218800  13.602   9.219   7.772  0.2985 -0.1536  0.2659
 1340ERGO   ROH18801  10.349  17.711   5.840 -0.0918 -0.1037 -0.0298
 1340ERGO    R118802  10.115  17.657   5.990 -0.1105 -0.1746 -0.0835
 1340ERGO    R218803  10.082  17.424   6.134 -0.0287 -0.1406 -0.0042
 1340ERGO    R318804  10.033  17.596   6.339 -0.1857 -0.0863 -0.0858
 1340ERGO    R418805   9.938  17.336   6.435  0.3330 -0.1952  0.1565
 1340ERGO    R518806   9.825  17.522   6.430  0.0021 -0.3930  0.1081
 1340ERGO    C118807   9.809  17.445   6.804  0.3962 -0.1761  0.1735
 1340ERGO    C218808   9.799  17.382   7.136  0.1960 -0.0141  0.1844
 1341ERGO   ROH18809  16.253   6.776   6.296 -0.1829 -0.0820  0.0260
 1341ERGO    R118810  16.078   6.749   6.517 -0.0897 -0.0024  0.1114
 1341ERGO    R218811  16.029   6.505   6.638 -0.1846  0.0088  0.1005
 1341ERGO    R318812  16.104   6.639   6.862  0.0172 -0.0708  0.0814
 1341ERGO    R418813  15.935   6.420   6.960 -0.0688  0.0241  0.1384
 1341ERGO    R518814  15.911   6.632   7.004  0.0878  0.0319  0.1824
 1341ERGO    C118815  15.951   6.496   7.357  0.1879 -0.0418  0.1425
 1341ERGO    C218816  16.012   6.335   7.578  0.0413  0.1434  0.0741
 1342ERGO   ROH18817   1.982  14.496   6.060  0.3730 -0.2149 -0.2485
 1342ERGO    R118818   1.909  14.477   6.333  0.2051 -0.0238 -0.2783
 1342ERGO    R218819   1.998  14.274   6.498 -0.0668 -0.0299 -0.1336
 1342ERGO    R318820   2.081  14.480   6.654  0.0324 -0.0308 -0.1844
 1342ERGO    R418821   2.075  14.250   6.834 -0.2154  0.0415 -0.0938
 1342ERGO    R518822   1.976  14.441   6.865 -0.0811  0.1322 -0.2079
 1342ERGO    C118823   2.197  14.430   7.176 -0.2086  0.0823 -0.1183
 1342ERGO    C218824   2.269  14.334   7.452  0.0404  0.1341  0.2308
 1343ERGO   ROH18825   3.408   7.556   6.014 -0.1567 -0.2455 -0.0792
 1343ERGO    R118826   3.331   7.409   6.243 -0.3575 -0.1116 -0.0592
 1343ERGO    R218827   3.449   7.445   6.490 -0.1436 -0.3955 -0.1143
 1343ERGO    R318828   3.193   7.485   6.571 -0.0283  0.1520  0.0233
 1343ERGO    R418829   3.349   7.473   6.819  0.0536 -0.4673 -0.0468
 1343ERGO    R518830   3.173   7.353   6.771 -0.2656  0.0005 -0.0967
 1343ERGO    C118831   3.051   7.526   7.088  0.2767  0.0047  0.1216
 1343ERGO    C218832   2.996   7.494   7.409  0.0389  0.2439 -0.2415
 1344ERGO   ROH18833  14.455   3.804   6.274  0.1526 -0.1224  0.0382
 1344ERGO    R118834  14.307   3.684   6.483  0.1049 -0.0826  0.0269
 1344ERGO    R218835  14.418   3.499   6.657  0.0787 -0.0098  0.1179
 1344ERGO    R318836  14.325   3.671   6.847 -0.0123  0.0309  0.0382
 1344ERGO    R418837  14.303   3.406   6.969  0.1138  0.0682  0.1548
 1344ERGO    R518838  14.144   3.553   6.950  0.0398 -0.0156  0.0822
 1344ERGO    C118839  14.150   3.512   7.329  0.0488  0.1518  0.1014
 1344ERGO    C218840  14.207   3.567   7.716 -0.4680  0.1742 -0.1851
 1345ERGO   ROH18841  10.453   4.412   5.995  0.0801  0.0783 -0.0550
 1345ERGO    R118842  10.487   4.284   6.245  0.3052  0.0734 -0.0870
 1345ERGO    R218843  10.625   4.401   6.454  0.0706  0.2824 -0.0478
 1345ERGO    R318844  10.396   4.350   6.591  0.1503 -0.1922 -0.0733
 1345ERGO    R418845  10.610   4.302   6.785  0.2462  0.1943 -0.0654
 1345ERGO    R518846  10.450   4.164   6.731  0.5119 -0.1182 -0.1015
 1345ERGO    C118847  10.386   4.197   7.106  0.4233 -0.3026 -0.0996
 1345ERGO    C218848  10.389   4.057   7.461  0.1419 -0.0551 -0.2239
 1346ERGO   ROH18849  17.579  13.131   6.293 -0.2355 -0.0291  0.0777
 1346ERGO    R118850  17.592  13.030   6.558 -0.1114  0.0276  0.0937
 1346ERGO    R218851  17.726  13.162   6.761 -0.0992  0.1199  0.0238
 1346ERGO    R318852  17.486  13.141   6.888 -0.0501  0.0493  0.1068
 1346ERGO    R418853  17.684  13.091   7.097  0.0426  0.1557  0.0498
 1346ERGO    R518854  17.516  12.964   7.044  0.0713  0.0831  0.1251
 1346ERGO    C118855  17.435  13.031   7.411  0.1714  0.1103  0.1429
 1346ERGO    C218856  17.315  13.023   7.807  0.2107 -0.1763  0.1322
 1347ERGO   ROH18857   4.494  12.242   6.104 -0.0403  0.1529  0.0169
 1347ERGO    R118858   4.535  12.441   6.301  0.0122  0.1089  0.0511
 1347ERGO    R218859   4.491  12.394   6.570 -0.0385  0.0863  0.0395
 1347ERGO    R318860   4.747  12.483   6.594 -0.0069 -0.0157  0.0838
 1347ERGO    R418861   4.638  12.496   6.866 -0.0519  0.0277  0.0660
 1347ERGO    R518862   4.734  12.659   6.757  0.0328 -0.0098  0.0818
 1347ERGO    C118863   4.963  12.639   7.061 -0.0301 -0.1023  0.1232
 1347ERGO    C218864   5.228  12.506   7.396  0.0612  0.1424  0.1977
 1348ERGO   ROH18865   1.548  14.551   6.122 -0.1986 -0.0130 -0.0461
 1348ERGO    R118866   1.433  14.497   6.376 -0.1093 -0.3216 -0.0670
 1348ERGO    R218867   1.530  14.301   6.544  0.4238 -0.0458 -0.0305
 1348ERGO    R318868   1.543  14.506   6.723 -0.1984  0.0243 -0.0434
 1348ERGO    R418869   1.559  14.263   6.886  0.5906  0.0596 -0.0313
 1348ERGO    R518870   1.418  14.427   6.912  0.0598 -0.3671 -0.0236
 1348ERGO    C118871   1.588  14.432   7.253  0.1036  0.1869 -0.0439
 1348ERGO    C218872   1.804  14.486   7.544  0.0772  0.1703  0.1913
 1349W        W18873  12.302  17.990   2.835  0.1293 -0.5452 -0.0286
 1350W        W18874   9.540   4.279  11.054 -0.0722  0.0032 -0.1815
 1351W        W18875   1.501  13.577  15.042 -0.0644 -0.2683  0.0320
 1352W        W18876  17.890   4.258   5.510 -0.3049 -0.2039 -0.0718
 1353W        W18877   4.269  12.897   3.190 -0.2470 -0.0823 -0.1775
 1354W        W18878   7.038  12.856  14.426  0.1965 -0.1150  0.0933
 1355W        W18879  14.956   1.147  15.646  0.2429  0.4402 -0.2264
 1356W        W18880   6.511   9.906   3.418  0.0985 -0.1795 -0.1311
 1357W        W18881  14.403  14.536  12.534  0.2068 -0.5013 -0.3382
 1358W        W18882   4.077   9.721   5.983  0.4857 -0.0705  0.2155
 1359W        W18883  14.675   3.846   4.299 -0.1278 -0.0044 -0.3320
 1360W        W18884   3.722  10.363  14.131  0.2418  0.1082 -0.0474
 1361W        W18885   0.115  17.857  14.875 -0.0162 -0.1631 -0.1014
 1362W        W18886  15.356   2.676   0.832 -0.2532  0.0583  0.1594
 1363W        W18887  10.645   9.429   3.956 -0.0990  0.1573  0.3488
 1364W        W18888   9.349  14.980   0.455 -0.0129 -0.2700 -0.0598
 1365W        W18889   5.694  11.217   0.967  0.0040  0.0198  0.1439
 1366W        W18890   6.382   4.411   1.581  0.2257  0.1681 -0.2235
 1367W        W18891  17.343  15.164  12.919  0.0262 -0.1992 -0.2648
 1368W        W18892  13.653   1.743  13.007 -0.0188 -0.0213 -0.0826
 1369W        W18893   9.399  15.338  12.270 -0.2492  0.0133 -0.0843
 1370W        W18894   3.875  15.013  12.050  0.1717  0.1178 -0.0207
 1371W        W18895   4.824   2.798   3.546 -0.4102  0.1183  0.2830
 1372W        W18896   9.523   4.017   0.405 -0.2303  0.0030  0.0043
 1373W        W18897  17.107  11.181  14.182 -0.0905  0.2342  0.2904
 1374W        W18898   8.361  13.627   4.760  0.0882  0.1763 -0.0169
 1375W        W18899   1.170   9.186   3.256  0.0293 -0.2568 -0.3586
 1376W        W18900   3.937   7.629   4.604 -0.1531 -0.2185 -0.1449
 1377W        W18901  12.820  15.633  15.521  0.2496 -0.1246  0.0797
 1378W        W18902   8.939  15.752  15.107 -0.1398  0.0581 -0.0459
 1379W        W18903   8.749   2.954  10.853  0.1218 -0.1857  0.1995
 1380W        W18904  14.538   1.462  14.128 -0.0027  0.2291 -0.0027
 1381W        W18905  14.091  15.040  15.735  0.1265 -0.3835 -0.0123
 1382W        W18906  14.854  17.309  15.411 -0.0745 -0.2222  0.1028
 1383W        W18907  17.573  17.625   3.216  0.5313 -0.1635 -0.0434
 1384W        W18908  11.983   5.381   2.972  0.2730  0.0336 -0.0275
 1385W        W18909   7.256   3.785  10.491  0.0416 -0.0394  0.2522
 1386W        W18910   3.224  12.690  13.822 -0.1464  0.1649 -0.4310
 1387W        W18911   3.177  17.688  11.647 -0.0833  0.1906  0.0101
 1388W        W18912   1.151  14.539   0.897  0.1507  0.0772  0.1415
 1389W        W18913  13.574   3.158   1.422  0.1255 -0.1304 -0.1339
 1390W        W18914   3.773   6.611  14.129 -0.4301 -0.1433 -0.1694
 1391W        W18915  16.925   8.969  14.411  0.3348  0.2694 -0.2289
 1392W        W18916  14.453  11.686   1.554  0.0760 -0.0593 -0.1981
 1393W        W18917  18.181  15.240  12.275  0.1921 -0.1863 -0.0135
 1394W        W18918   2.179  16.186  15.227  0.1747  0.1705 -0.1269
 1395W        W18919   0.520   5.566  11.092 -0.1341  0.5700 -0.0282
 1396W        W18920   3.673  16.046  15.766 -0.0847  0.1746 -0.1713
 1397W        W18921  13.995   8.021  14.159 -0.0024  0.1380 -0.1527
 1398W        W18922   2.775   7.066  14.703 -0.2583  0.0551 -0.0611
 1399W        W18923  11.648  17.865  11.456  0.1369  0.0227 -0.1720
 1400W        W18924  12.505   4.279  16.043 -0.0169  0.3761  0.2990
 1401W        W18925   5.667   8.336   1.199 -0.1486 -0.3474  0.1454
 1402W        W18926   4.648  10.679  12.108  0.0433 -0.5079 -0.3751
 1403W        W18927   4.729  10.257   4.628  0.1075 -0.3759 -0.0269
 1404W        W18928   2.839   6.231   2.632  0.2470 -0.0496  0.1485
 1405W        W18929   3.113  17.936   1.904  0.0187  0.0851 -0.0468
 1406W        W18930  18.046  15.900  13.882  0.1574 -0.1855 -0.4962
 1407W        W18931   9.782   1.109   1.073  0.1765  0.1404  0.0213
 1408W        W18932  11.310   3.254  13.282 -0.3189  0.0665 -0.0523
 1409W        W18933   0.831   6.491   1.804  0.1561  0.0227 -0.2636
 1410W        W18934   3.507   7.577  14.072 -0.0398  0.0432  0.4336
 1411W        W18935   2.833   7.795  12.619  0.3343  0.0215  0.1974
 1412W        W18936  15.768   4.914   4.735 -0.0273 -0.0730  0.0494
 1413W        W18937   4.849  14.809  12.657  0.1729  0.1424 -0.0297
 1414W        W18938   9.230   5.176  14.755 -0.1472 -0.0573  0.0300
 1415W        W18939   9.865  13.108  14.592 -0.0624  0.1573 -0.0951
 1416W        W18940  16.513  14.951  12.493  0.2510 -0.2189 -0.2474
 1417W        W18941   3.744  12.389  15.038 -0.1484  0.3050  0.1434
 1418W        W18942   9.289  12.639  14.202  0.0573 -0.1162  0.1996
 1419W        W18943   0.288   8.184   2.781 -0.2451  0.2033 -0.0475
 1420W        W18944  10.963   1.137  14.015 -0.0580 -0.0157  0.3610
 1421W        W18945  12.982  11.444  15.979  0.2840 -0.1879  0.2563
 1422W        W18946   0.930  10.331  12.784 -0.2003  0.1424  0.1076
 1423W        W18947  17.606  13.929   3.287 -0.1038 -0.1059  0.0468
 1424W        W18948   8.242   9.025   1.807  0.0948 -0.1642  0.4935
 1425W        W18949  17.228   9.285   4.899  0.2143 -0.0169  0.1153
 1426W        W18950  12.129  10.017  11.353 -0.4368 -0.2523  0.0926
 1427W        W18951   0.052   7.011  12.774 -0.2621  0.1849  0.0129
 1428W        W18952  13.743  16.065  12.306  0.1133  0.0677 -0.0455
 1429W        W18953   3.630  13.807  11.681 -0.0155 -0.1171  0.4079
 1430W        W18954   9.349  17.158   2.399 -0.1658  0.0574  0.1840
 1431W        W18955  10.494  16.515  13.092 -0.0334  0.1142  0.0483
 1432W        W18956   7.617  17.908  14.951  0.0941 -0.3910  0.2676
 1433W        W18957   6.431  12.090   0.351 -0.0159  0.3709  0.2017
 1434W        W18958   6.948   2.272   2.376  0.0904  0.0436  0.1877
 1435W        W18959   4.624   8.223   1.121 -0.0303 -0.0380 -0.1136
 1436W        W18960  11.258   8.974   2.627 -0.1747 -0.0830  0.0393
 1437W        W18961  13.508   6.497   4.915 -0.1089  0.0416 -0.1926
 1438W        W18962  12.724  12.699  13.578  0.1267  0.0623 -0.0127
 1439W        W18963  14.997  10.139  14.806  0.0472 -0.2924  0.2142
 1440W        W18964   1.147  12.383  13.523 -0.4192  0.1296  0.0387
 1441W        W18965   7.544   3.353   3.437 -0.0878 -0.1985 -0.2288
 1442W        W18966   2.022  11.030   4.207  0.3109  0.0952  0.1232
 1443W        W18967   2.406  17.606   4.639  0.0833 -0.1670 -0.2189
 1444W        W18968  10.246   0.569  15.823  0.0069  0.1221 -0.1533
 1445W        W18969   8.108  14.735   0.195 -0.0050  0.2774 -0.3186
 1446W        W18970   1.676  12.051   3.364  0.3298  0.0527 -0.3903
 1447W        W18971  12.945   7.156  13.348 -0.1093  0.0741  0.0125
 1448W        W18972  10.327   0.194   3.548 -0.0697 -0.0891 -0.1226
 1449W        W18973   5.150  15.130  13.024 -0.1615  0.0747 -0.0291
 1450W        W18974  13.113  16.317  11.196  0.3074  0.4131 -0.1011
 1451W        W18975   3.542   4.173   2.121  0.1686  0.0349  0.0000
 1452W        W18976  13.188   8.817   4.698  0.0660 -0.0549  0.2038
 1453W        W18977   9.093   1.195  13.618 -0.0607 -0.2561 -0.0922
 1454W        W18978   4.443  14.412   0.312  0.0380  0.1165 -0.4111
 1455W        W18979   6.002   4.326   0.220 -0.0705 -0.0202  0.1417
 1456W        W18980   4.293  10.258  11.223 -0.3748  0.1027  0.1972
 1457W        W18981   9.107   9.826  11.135  0.0774 -0.2569  0.2215
 1458W        W18982  15.212   5.049  15.166  0.1199  0.2980 -0.1777
 1459W        W18983   1.684   7.584  13.448  0.1288 -0.4177  0.4186
 1460W        W18984  12.669   2.048   1.295  0.1022 -0.0625 -0.3320
 1461W        W18985  13.308   3.497   4.009 -0.2557  0.0102 -0.4100
 1462W        W18986   8.850   9.522   3.033 -0.0370  0.1618  0.0868
 1463W        W18987  11.266   0.821  12.239  0.0516 -0.2225  0.1772
 1464W        W18988  17.687   3.540   5.122 -0.3853 -0.1496 -0.2200
 1465W        W18989  14.421  12.467  11.913  0.0085 -0.0152  0.1943
 1466W        W18990   1.865  18.067  14.533 -0.1643  0.0499  0.0062
 1467W        W18991  17.109  13.748  15.660  0.1424 -0.0102  0.0050
 1468W        W18992   2.023   7.054   3.231  0.0982 -0.1635  0.2322
 1469W        W18993   6.769   6.275  15.239 -0.0899 -0.2083 -0.2318
 1470W        W18994   3.253   5.368   4.167  0.1692  0.1728 -0.2746
 1471W        W18995   6.080   7.093  11.835 -0.0839  0.3905 -0.0008
 1472W        W18996  10.456  11.226   4.311 -0.4148  0.0635 -0.3346
 1473W        W18997   0.105   2.536  15.786 -0.3264 -0.1316 -0.2029
 1474W        W18998   2.772  14.080   0.683  0.2903  0.2284 -0.3219
 1475W        W18999  12.864   1.470  12.440  0.5211 -0.2184 -0.3279
 1476W        W19000  16.317   2.926   4.124  0.0436 -0.1726 -0.2583
 1477W        W19001   5.765  10.275   3.705 -0.0900 -0.2149 -0.2513
 1478W        W19002   1.486   2.790  15.853 -0.0832 -0.0414  0.0381
 1479W        W19003   9.056  10.298  13.625  0.0270 -0.2537  0.3440
 1480W        W19004   1.474   4.077  10.912  0.1045 -0.2985 -0.0401
 1481W        W19005  17.625  12.898   2.244  0.0032 -0.5297 -0.0848
 1482W        W19006  15.024   0.007   1.755 -0.0417  0.0258 -0.0036
 1483W        W19007  12.061  14.379  12.975  0.0228  0.0047  0.1715
 1484W        W19008  15.222   7.069  11.824  0.0107  0.0430 -0.1575
 1485W        W19009  17.797   5.027   5.151  0.1424 -0.0796  0.2619
 1486W        W19010   7.196  11.906   1.531  0.1295 -0.1884 -0.3436
 1487W        W19011   5.020   8.311   0.401 -0.0492  0.2775  0.0434
 1488W        W19012   7.480   6.031  15.039 -0.2568 -0.1892  0.1999
 1489W        W19013  14.824  15.085   2.304  0.0765  0.3669 -0.0491
 1490W        W19014   4.377   9.081  14.369 -0.1052 -0.1215  0.0337
 1491W        W19015   4.218  16.456   3.482 -0.1145  0.1074  0.3012
 1492W        W19016  17.130   4.657   0.943 -0.0812  0.1827 -0.2645
 1493W        W19017  17.949   0.680  12.174 -0.1545 -0.0115  0.1539
 1494W        W19018  17.051   3.094   3.463  0.0523  0.1939 -0.0594
 1495W        W19019  14.399   4.219   1.419  0.1855  0.2283  0.0097
 1496W        W19020   8.681   4.584  12.267  0.1696 -0.1663  0.0701
 1497W        W19021  18.098   4.448  13.023  0.0896  0.2755  0.0820
 1498W        W19022  14.750   3.363   4.038 -0.0531  0.3730  0.1954
 1499W        W19023   7.381   5.141   0.749 -0.0910  0.0921 -0.3955
 1500W        W19024   5.596  14.433   4.439 -0.0939 -0.1800  0.1360
 1501W        W19025   9.830   1.164   4.232  0.0250  0.0172 -0.0520
 1502W        W19026  17.941  16.680   1.010 -0.0598  0.2674 -0.1798
 1503W        W19027  11.960  15.561  12.523 -0.1039  0.1431  0.2188
 1504W        W19028   2.282  12.763   4.535 -0.2341 -0.0046  0.2386
 1505W        W19029   1.568  11.846   0.962 -0.0514 -0.0843  0.0691
 1506W        W19030  14.825   0.670  13.991  0.1765  0.1270 -0.1543
 1507W        W19031  11.679   9.670  12.205  0.0766  0.0680  0.2546
 1508W        W19032   8.163  12.499  13.025 -0.0709  0.3990  0.2936
 1509W        W19033  12.890   9.669  12.558 -0.0494  0.2382  0.4568
 1510W        W19034   5.050   9.909  11.108 -0.1005  0.1881  0.0415
 1511W        W19035  11.086  17.712  14.828  0.0581 -0.1516 -0.2005
 1512W        W19036   7.772   7.481  12.976  0.1071  0.1047  0.0494
 1513W        W19037   9.507   9.031   3.087  0.3497 -0.4516  0.4326
 1514W        W19038   7.614   0.332   3.001 -0.0881 -0.1968  0.1873
 1515W        W19039   1.071   5.247   3.561  0.2685 -0.0755  0.2104
 1516W        W19040   1.970  15.847   3.292  0.1307 -0.4378 -0.1918
 1517W        W19041   6.191   7.093  15.091 -0.0466  0.0290 -0.0523
 1518W        W19042  17.351   3.638  12.182  0.2391 -0.1839  0.1780
 1519W        W19043   6.223  17.120  15.081 -0.2174  0.1447 -0.0078
 1520W        W19044  16.860  13.749  15.259 -0.1248  0.0131 -0.0530
 1521W        W19045  12.505   0.026   2.414  0.0683 -0.0621 -0.5551
 1522W        W19046   5.077   4.440   1.371  0.0760  0.0246  0.1585
 1523W        W19047  14.967   2.022  13.397  0.0994  0.0773  0.0160
 1524W        W19048   1.047   3.560  12.648  0.0379 -0.0179 -0.2860
 1525W        W19049  12.643   3.914   5.608 -0.0292  0.0830 -0.1518
 1526W        W19050  14.644  10.383   2.761  0.0727  0.0606 -0.0311
 1527W        W19051   4.606  13.117   2.071  0.0077 -0.0497  0.3113
 1528W        W19052   8.811   6.256   0.552 -0.1019 -0.3762 -0.1201
 1529W        W19053  17.314   2.377  13.674 -0.1283 -0.1144 -0.2434
 1530W        W19054   3.914  12.265  13.341 -0.2465  0.1431  0.2224
 1531W        W19055  14.531  17.833   0.062 -0.0528 -0.0511 -0.0173
 1532W        W19056  11.043  14.849  15.992 -0.0849  0.2990 -0.0832
 1533W        W19057   0.763   3.698   2.526  0.1863 -0.1938  0.1590
 1534W        W19058  12.595  12.574   2.164 -0.0497  0.0589 -0.1455
 1535W        W19059   7.666   5.750  12.392  0.0652  0.1620  0.3099
 1536W        W19060  11.317   7.669   2.963  0.0333  0.2163  0.1930
 1537W        W19061   3.345   6.253   4.025  0.0793 -0.2624 -0.0546
 1538W        W19062  13.028   0.017  11.674  0.2237  0.1278 -0.0373
 1539W        W19063  14.028  14.808   2.866 -0.1199 -0.0819  0.1569
 1540W        W19064  16.161   4.629   4.509  0.1651  0.1353  0.1758
 1541W        W19065   0.915   9.583  11.678  0.1250 -0.0675 -0.0085
 1542W        W19066   6.999   2.536   1.616  0.0592  0.1840  0.0623
 1543W        W19067   2.576   4.989  14.939 -0.1319  0.2074 -0.3380
 1544W        W19068  15.586  10.977   1.186  0.0516 -0.1078 -0.0319
 1545W        W19069  16.728  11.244  14.557 -0.0425 -0.0982 -0.0375
 1546W        W19070  14.441  11.834  16.034 -0.1241  0.2345 -0.2823
 1547W        W19071  12.450   8.236  11.842 -0.0292 -0.1236  0.0326
 1548W        W19072  13.259  17.189  11.461  0.0691  0.0781  0.1661
 1549W        W19073  10.145   8.478   0.256 -0.2064 -0.0635 -0.0558
 1550W        W19074   9.150   9.837  10.539  0.2028  0.1346 -0.2901
 1551W        W19075   3.456   2.113  12.008  0.2664  0.3469 -0.2892
 1552W        W19076  13.371   1.865   4.887  0.0984  0.0781  0.0990
 1553W        W19077   8.867  10.938   0.585 -0.3620 -0.0329 -0.1630
 1554W        W19078  16.876  15.326   3.930 -0.2128  0.0252 -0.1982
 1555W        W19079   0.637   5.263   3.873 -0.0466 -0.3302 -0.3027
 1556W        W19080   4.460  13.538  14.113 -0.3127 -0.1420 -0.1830
 1557W        W19081   6.178   7.180   1.923  0.1267 -0.0994 -0.4257
 1558W        W19082   3.964   6.296  14.481 -0.1642  0.0376  0.0356
 1559W        W19083   6.652   6.194  14.709  0.1191  0.0261  0.0317
 1560W        W19084  11.524   9.267  14.802  0.1494  0.0994 -0.2329
 1561W        W19085   6.890   1.370  11.145  0.4646 -0.0196  0.2647
 1562W        W19086   4.949  10.571   3.201 -0.2251 -0.0539  0.0319
 1563W        W19087  13.800  10.333   1.711  0.0645  0.2319  0.1062
 1564W        W19088  13.791  10.601   4.913  0.0869 -0.2588 -0.0040
 1565W        W19089   9.906  10.240  13.222  0.4525  0.1763  0.3439
 1566W        W19090   5.311  12.146   3.242  0.3765  0.0783  0.1537
 1567W        W19091  10.250   0.576   2.863 -0.2479  0.1016 -0.0978
 1568W        W19092  16.388  15.868   0.299 -0.0997 -0.0667  0.0065
 1569W        W19093   4.980   5.529   1.010  0.1087  0.0409 -0.3123
 1570W        W19094  17.971   9.667   0.447  0.0375  0.3026 -0.0468
 1571W        W19095  16.209  17.350  11.788 -0.1933  0.1178 -0.0569
 1572W        W19096  16.773  14.798  16.055  0.1783  0.3301 -0.0964
 1573W        W19097  16.528  10.609  13.848  0.1257 -0.3193  0.2342
 1574W        W19098  15.535   3.346   4.531 -0.2165  0.1519  0.0539
 1575W        W19099   9.741   5.106  14.677  0.1809 -0.1144  0.1243
 1576W        W19100   1.382   6.849   2.946  0.0172  0.0845 -0.0737
 1577W        W19101  18.042   9.632  13.114 -0.1784  0.0103 -0.0514
 1578W        W19102   9.240  13.705   0.431 -0.1824  0.0277 -0.1511
 1579W        W19103   8.308  14.738  11.965  0.0777 -0.0008  0.3834
 1580W        W19104  13.680  15.087   4.013  0.0711  0.0901 -0.1080
 1581W        W19105   2.730   4.962  12.567  0.1380  0.0536  0.0581
 1582W        W19106   3.163  15.016   3.151 -0.1230  0.0802  0.0968
 1583W        W19107   6.523   8.300   4.245  0.0196 -0.1416  0.1153
 1584W        W19108   6.597  14.303   3.360  0.1871  0.2769 -0.1001
 1585W        W19109   0.607  17.115   4.633  0.3211 -0.2600 -0.3149
 1586W        W19110  13.752  14.024   5.692  0.3807 -0.0906  0.0405
 1587W        W19111   4.055   4.259  13.073  0.1640 -0.0283 -0.1342
 1588W        W19112  12.625   0.355  14.582 -0.0395  0.2078  0.1438
 1589W        W19113   5.916   3.289  14.634  0.2205 -0.1669 -0.1492
 1590W        W19114  13.836   2.216  12.786 -0.0484 -0.0471  0.0327
 1591W        W19115  12.195  14.336   3.029 -0.0170  0.2308  0.3825
 1592W        W19116   0.872   2.662  14.742 -0.0295 -0.4787 -0.3844
 1593W        W19117  15.504   1.070   4.627 -0.3897 -0.0331  0.4747
 1594W        W19118  16.416  14.653   2.186 -0.0982  0.1406 -0.2469
 1595W        W19119   7.081  16.206   3.685 -0.2217 -0.2100  0.2397
 1596W        W19120   4.210   3.387   1.142  0.1594 -0.2501 -0.2651
 1597W        W19121  14.422  15.091  12.229  0.1504  0.2390 -0.1941
 1598W        W19122   3.612  17.354   0.441 -0.0582 -0.4071 -0.1645
 1599W        W19123   3.962   3.001   5.461  0.3255 -0.4210 -0.1717
 1600W        W19124   1.279   1.091  13.978  0.0514 -0.0831 -0.1105
 1601W        W19125   4.260   7.255  12.449  0.1403 -0.0724  0.3177
 1602W        W19126  16.319  11.889   4.484  0.1573 -0.1691  0.1520
 1603W        W19127   9.261  17.751   0.661 -0.3270  0.0045  0.1166
 1604W        W19128   2.677  10.027  12.420  0.0766  0.0993  0.0774
 1605W        W19129  11.303  15.930   1.346  0.2768  0.0062 -0.1357
 1606W        W19130  10.899   5.530   3.812  0.1594  0.0091 -0.1535
 1607W        W19131   3.567  11.228   1.604  0.0743 -0.1399  0.1057
 1608W        W19132  16.798   9.297  15.029  0.0604 -0.0490 -0.0720
 1609W        W19133  16.949   5.689   0.054  0.1101 -0.0248  0.1646
 1610W        W19134   5.469  15.952  16.091  0.2895  0.0969  0.1317
 1611W        W19135   2.346  13.815  13.614 -0.1966 -0.3566 -0.0672
 1612W        W19136  15.903   8.355  15.054 -0.1111  0.1006 -0.2255
 1613W        W19137   9.587  13.088  11.281  0.0617 -0.3390 -0.1554
 1614W        W19138  16.621  16.963   4.885  0.1832 -0.1019  0.0035
 1615W        W19139  15.890   8.623  11.360  0.2189  0.0263 -0.2199
 1616W        W19140  11.509  13.776  11.478  0.1765  0.0581 -0.1039
 1617W        W19141  11.385   3.528   2.969  0.3022  0.0917 -0.2782
 1618W        W19142  16.634   8.783  12.842  0.0397 -0.0021  0.1719
 1619W        W19143  14.148  15.865  13.896 -0.2144  0.0573  0.0260
 1620W        W19144  10.467   4.388  10.986 -0.0717  0.0233 -0.1504
 1621W        W19145  11.921  13.428   4.845  0.1758  0.1819  0.1231
 1622W        W19146  17.674   2.270   4.804 -0.0855  0.0982 -0.0927
 1623W        W19147   6.920   4.506  12.340  0.0301  0.0762 -0.2514
 1624W        W19148  17.967   9.930  15.232 -0.0179  0.3434 -0.0086
 1625W        W19149   5.425   4.792   1.452  0.5707  0.4607 -0.1728
 1626W        W19150   3.607   2.249  13.366 -0.0187  0.0510  0.1627
 1627W        W19151   9.647   1.499  12.739 -0.0465  0.0685 -0.2068
 1628W        W19152   1.511   6.225  14.165  0.0333 -0.0882 -0.1577
 1629W        W19153   8.946  17.056   1.109  0.3718 -0.0449 -0.2142
 1630W        W19154   9.813   9.116  14.482  0.1186 -0.1120  0.1899
 1631W        W19155   3.115   9.133  12.875  0.2769  0.1101  0.2540
 1632W        W19156  11.806   4.502   1.910  0.0742 -0.0728 -0.0941
 1633W        W19157   3.643  14.608  13.432  0.1163  0.0083  0.2421
 1634W        W19158  13.058   7.643  14.614  0.0681  0.1361 -0.4755
 1635W        W19159  13.840   4.699  11.523  0.3253  0.0705 -0.0213
 1636W        W19160  10.912  12.602   4.411  0.2996  0.1137 -0.1935
 1637W        W19161  11.647  11.386  15.820  0.0808 -0.1869  0.0994
 1638W        W19162  12.637  13.084  10.446  0.0451  0.2731 -0.1478
 1639W        W19163   1.513  17.967  15.365 -0.3783 -0.1008 -0.2269
 1640W        W19164  14.818   4.471   0.592  0.0734 -0.2318  0.0555
 1641W        W19165  13.721   6.561   4.061 -0.0413  0.0887  0.0731
 1642W        W19166  14.164   0.986   2.208  0.0211  0.2711 -0.0500
 1643W        W19167  11.882   6.225   2.122  0.0605  0.1684 -0.1401
 1644W        W19168  15.095  13.986   2.835  0.2953 -0.0999  0.3494
 1645W        W19169  18.138   6.917   2.102  0.0921 -0.0006 -0.0181
 1646W        W19170   9.845   0.565  12.085  0.0885  0.1069  0.0154
 1647W        W19171   1.767  17.563  11.476 -0.0275 -0.1365 -0.3153
 1648W        W19172   0.682   5.728  12.960 -0.1656  0.3059 -0.2347
 1649W        W19173   9.448  15.148   3.921  0.2165 -0.0561 -0.0801
 1650W        W19174  10.781   6.158   0.801 -0.2385  0.1484  0.2968
 1651W        W19175   6.675  13.342   2.139 -0.0121  0.2491 -0.0851
 1652W        W19176  10.380  15.183   4.258 -0.2365  0.0339  0.3800
 1653W        W19177  12.590  17.181   3.425  0.0827  0.0249  0.2952
 1654W        W19178  15.999  15.567  13.763 -0.1078 -0.0803  0.1187
 1655W        W19179  15.678   5.808  15.726 -0.0581  0.0115 -0.4135
 1656W        W19180   7.629  12.246  12.702 -0.2766 -0.0943 -0.0681
 1657W        W19181   0.696  18.140  13.206 -0.1169 -0.1900 -0.0916
 1658W        W19182   6.024  13.633  14.098 -0.3022 -0.1221 -0.0971
 1659W        W19183   6.973   8.405  14.941 -0.0876 -0.0629 -0.1003
 1660W        W19184   1.195   0.230   2.514  0.3819 -0.0295  0.3845
 1661W        W19185   7.702  15.697  11.164  0.3493  0.0815 -0.2760
 1662W        W19186   9.026  11.469   4.322  0.2664  0.3160  0.1219
 1663W        W19187  15.013  11.509  12.823 -0.1057 -0.2837  0.3061
 1664W        W19188   9.005   7.921  12.841 -0.0676 -0.1090  0.0318
 1665W        W19189   8.173  11.840   3.549 -0.2533  0.0599  0.0547
 1666W        W19190  12.110   8.450   1.691 -0.2818  0.2350 -0.2032
 1667W        W19191  16.279   3.970  13.639  0.0074 -0.0981 -0.2002
 1668W        W19192   1.656   3.358   0.963  0.0355 -0.0487  0.1603
 1669W        W19193   7.602   0.408  14.312  0.0412 -0.1668  0.1424
 1670W        W19194  11.279   5.345   1.677 -0.2375 -0.1220 -0.1816
 1671W        W19195   7.145   8.010  14.103 -0.0160  0.0669 -0.0482
 1672W        W19196  14.802  11.564  14.254  0.0177 -0.0445  0.1289
 1673W        W19197   1.865  15.974   1.944 -0.2260 -0.6255 -0.2210
 1674W        W19198   6.011  15.694  15.323 -0.0073  0.4137 -0.0783
 1675W        W19199  15.067   0.201  13.898  0.1253  0.2763 -0.1715
 1676W        W19200  10.740  16.948   5.680 -0.0973 -0.1302 -0.1083
 1677W        W19201   9.983   3.414  11.339 -0.1657  0.1492 -0.0006
 1678W        W19202   2.665   8.051   1.545  0.1236  0.2224  0.0819
 1679W        W19203   7.950   9.097  11.156 -0.1718  0.0607 -0.4064
 1680W        W19204   3.128  13.274   4.669  0.1299 -0.1375 -0.0813
 1681W        W19205  17.383   5.735  15.277 -0.1443  0.0192  0.0905
 1682W        W19206  13.782   1.560  15.046  0.1660 -0.1106  0.1178
 1683W        W19207   2.144   2.769   3.674 -0.1075  0.1944  0.1582
 1684W        W19208  14.027   7.619  11.079 -0.0041 -0.1160 -0.0472
 1685W        W19209   5.583  17.857  12.021  0.4590  0.0010  0.1306
 1686W        W19210   6.419   5.015  12.170 -0.2552  0.1054  0.0376
 1687W        W19211  12.781  13.947  10.691  0.1772  0.0123  0.1567
 1688W        W19212   7.465   7.831  12.689 -0.2056 -0.0597 -0.1221
 1689W        W19213   6.063  12.831  14.130  0.0443 -0.1180 -0.3341
 1690W        W19214   8.230  16.906  13.476  0.0317  0.1366 -0.1709
 1691W        W19215  10.986   9.801   3.841  0.2075  0.0597  0.1779
 1692W        W19216  13.704   2.356   3.586  0.0721 -0.2135  0.1909
 1693W        W19217  17.065   7.527   0.598  0.0171 -0.0994  0.1780
 1694W        W19218  14.371   7.505   2.159 -0.0180  0.2895 -0.1467
 1695W        W19219   0.577   5.824  14.518 -0.0478  0.1222  0.0505
 1696W        W19220  10.421   6.879   0.204 -0.0563  0.0388 -0.1025
 1697W        W19221  13.989  15.845  14.427  0.0328  0.1372  0.4695
 1698W        W19222  14.107   8.675  15.414  0.0419 -0.0319  0.1154
 1699W        W19223  14.481   0.919  12.464  0.1831  0.2484 -0.1292
 1700W        W19224   8.104   2.100  13.253 -0.0283  0.3435  0.4124
 1701W        W19225   5.519  13.889   1.486 -0.0827  0.0878 -0.1220
 1702W        W19226   7.205   8.472   1.350  0.2832 -0.2375  0.1977
 1703W        W19227   5.692   7.123  15.292  0.3463 -0.1920  0.1675
 1704W        W19228   4.361  17.157  15.630 -0.0671  0.0674  0.2611
 1705W        W19229  12.720   2.604   0.090 -0.1834  0.1171 -0.2581
 1706W        W19230   9.524  12.713   4.821  0.0592  0.1745  0.0362
 1707W        W19231   0.641   2.840   3.551 -0.3078 -0.2319  0.0728
 1708W        W19232  12.532   1.741   3.448  0.4061 -0.4112 -0.1653
 1709W        W19233  10.841   1.820   4.244 -0.0586 -0.1948  0.0157
 1710W        W19234  18.015   4.224  12.246  0.2136 -0.1754 -0.1814
 1711W        W19235   9.479   6.369  14.015  0.1735 -0.0903  0.2717
 1712W        W19236   2.618   7.487   3.341 -0.0243 -0.1006 -0.1012
 1713W        W19237  12.182  14.428  16.086 -0.0801 -0.2575  0.2150
 1714W        W19238   3.597  17.814  12.858 -0.0833  0.1151 -0.0706
 1715W        W19239  15.264   6.374  14.792 -0.0759  0.0931 -0.2027
 1716W        W19240  15.603  16.821   1.647  0.2341  0.0615 -0.0635
 1717W        W19241   9.766  11.660   4.727 -0.0626  0.1071  0.2954
 1718W        W19242  11.897   8.759  15.411  0.1923 -0.3208  0.2347
 1719W        W19243  15.605   2.980   3.732  0.0490 -0.0747 -0.1031
 1720W        W19244   1.762   3.859  11.310  0.1427 -0.0338 -0.2034
 1721W        W19245  14.861  10.859  12.562  0.0275 -0.1463 -0.0565
 1722W        W19246   0.050  11.030  12.954  0.0978  0.0973  0.1303
 1723W        W19247  11.986  16.779   2.114 -0.2090 -0.3401  0.0947
 1724W        W19248  13.362   8.164   3.031 -0.4600  0.0637 -0.0457
 1725W        W19249   3.573   4.058  12.983  0.3263 -0.0669 -0.0368
 1726W        W19250  11.432  10.190  12.139  0.1923  0.1120 -0.1934
 1727W        W19251   3.090  14.680   1.315  0.0527  0.1887  0.1009
 1728W        W19252   6.068  16.288  11.599  0.1060 -0.2357 -0.1527
 1729W        W19253   8.955   7.850  15.833  0.3314  0.1620  0.1403
 1730W        W19254   2.543  16.565  13.169  0.0186  0.1555  0.1189
 1731W        W19255   7.259   4.302   4.576  0.0534  0.1969 -0.1725
 1732W        W19256   8.483  11.680   2.511  0.0844 -0.4117 -0.1865
 1733W        W19257  12.396  17.024   1.334  0.1228 -0.2231 -0.2902
 1734W        W19258   5.426   1.447  11.916 -0.1015 -0.1986 -0.1366
 1735W        W19259  13.909  17.282  10.554 -0.1878 -0.1288  0.2478
 1736W        W19260  17.371  15.439  11.446  0.0094  0.0445 -0.5275
 1737W        W19261  10.110   6.532   3.066  0.0823  0.1686 -0.1609
 1738W        W19262  15.160   6.581   4.956  0.0652  0.0691  0.0312
 1739W        W19263  15.784  12.268   0.582 -0.0855  0.1124 -0.1484
 1740W        W19264   2.514   2.974   3.393 -0.0010 -0.2111 -0.1161
 1741W        W19265   7.141  16.869  14.714 -0.2888 -0.1259 -0.1876
 1742W        W19266   5.324  13.006  11.361  0.1611 -0.0094  0.0785
 1743W        W19267   2.309   7.721   4.256  0.1587  0.0225 -0.0442
 1744W        W19268  10.401   2.534  15.822  0.3353  0.2132  0.0648
 1745W        W19269   5.222   2.321  14.018  0.0430 -0.1502 -0.1997
 1746W        W19270  12.673   4.230   5.206  0.0791  0.4497 -0.0262
 1747W        W19271   6.923  11.406  11.129  0.0498 -0.0902 -0.3211
 1748W        W19272  11.050  15.447  13.539  0.0069  0.2956  0.0351
 1749W        W19273  15.188   1.974   4.415  0.2544 -0.0105 -0.1314
 1750W        W19274   9.815   7.494  15.792 -0.2140  0.1774  0.1416
 1751W        W19275   6.521  13.712  10.199  0.2410  0.4458  0.0239
 1752W        W19276  18.168   2.438   1.360  0.0636  0.0638  0.1102
 1753W        W19277  10.457   7.023  12.430  0.3456 -0.0342 -0.1870
 1754W        W19278  12.626   9.835   2.100  0.0202  0.1622 -0.2596
 1755W        W19279   8.755  13.958  14.190  0.1776  0.0006 -0.0622
 1756W        W19280   5.694   0.264   4.021  0.1020 -0.1639 -0.3265
 1757W        W19281   8.132   7.434   4.354  0.0647  0.2036  0.0110
 1758W        W19282  14.240  11.974  11.814 -0.1692 -0.1525 -0.0151
 1759W        W19283   3.749  15.412   4.835 -0.0511  0.1410 -0.0529
 1760W        W19284   9.706   6.953  15.905 -0.0201 -0.4057  0.4480
 1761W        W19285   8.228  15.694  12.990  0.2247 -0.2491 -0.1430
 1762W        W19286  16.224   6.381  15.327  0.1058  0.1504  0.2019
 1763W        W19287  13.678   0.663  15.074 -0.1266  0.0111 -0.0327
 1764W        W19288   1.517  13.352   4.743  0.0233  0.2515 -0.0541
 1765W        W19289  13.740   4.013   2.817  0.0237 -0.2158  0.1816
 1766W        W19290   6.454  12.002   2.076  0.3212  0.0203  0.0021
 1767W        W19291   0.301  14.460   3.371 -0.1211 -0.0811 -0.0387
 1768W        W19292   6.289   8.325  14.363  0.1279 -0.1723 -0.3441
 1769W        W19293   4.472   7.719   1.277 -0.2622 -0.2705 -0.2590
 1770W        W19294   4.619  17.289   2.300 -0.0963 -0.1559 -0.1264
 1771W        W19295  17.022   0.965   0.006 -0.1715 -0.0644 -0.0577
 1772W        W19296  14.542  13.516  12.316 -0.1401  0.1562 -0.1303
 1773W        W19297  12.929  17.469   3.868  0.3642  0.3231  0.0217
 1774W        W19298  18.036  10.581  12.936  0.1158  0.0072 -0.2521
 1775W        W19299  12.970   4.683   6.107 -0.1447 -0.2136  0.0004
 1776W        W19300   9.415   2.361  10.250 -0.1823 -0.1453  0.2561
 1777W        W19301   0.959   7.122   4.655 -0.1638 -0.1269 -0.1864
 1778W        W19302   4.352   7.180   2.362  0.2162  0.0940  0.0574
 1779W        W19303  10.600   6.132   2.570 -0.0925 -0.1428 -0.1289
 1780W        W19304  14.342  16.536   0.288  0.1566  0.0642  0.1450
 1781W        W19305   9.024   5.008  15.339  0.0765  0.0106  0.0361
 1782W        W19306  17.813   5.424  15.913  0.0570 -0.1912  0.3197
 1783W        W19307   9.312   0.057   0.792  0.1797  0.3048  0.2382
 1784W        W19308   4.092   7.439   2.001 -0.0262 -0.2098 -0.0121
 1785W        W19309  16.580   7.320  12.805  0.0787  0.0589  0.0392
 1786W        W19310  11.478  16.064   2.597  0.2671 -0.1509  0.0797
 1787W        W19311   8.742   1.898  15.814  0.3450 -0.1666  0.2004
 1788W        W19312   3.459   4.623   5.253  0.1718 -0.1426 -0.2927
 1789W        W19313   4.504  16.081  13.690  0.3758  0.0919  0.1205
 1790W        W19314   0.245  15.749   1.955  0.0033  0.1693 -0.1347
 1791W        W19315   1.751  13.933   3.441  0.3258 -0.0975  0.0641
 1792W        W19316   5.355  16.893   0.887 -0.1110  0.0198  0.0619
 1793W        W19317   9.582   6.539  12.370  0.1581 -0.0756 -0.0660
 1794W        W19318  11.154  16.882  15.564  0.0175 -0.1330  0.0253
 1795W        W19319   2.926  13.516   0.523  0.2755 -0.3601  0.2119
 1796W        W19320   6.282  16.589  10.273 -0.1537 -0.2405 -0.0968
 1797W        W19321  11.857   0.838   1.673 -0.2839  0.1706 -0.4122
 1798W        W19322  11.707   1.644   2.254 -0.0001 -0.2789 -0.0994
 1799W        W19323  16.090  17.365  11.330  0.0804 -0.2631 -0.0393
 1800W        W19324  11.553   7.167   4.615  0.0408  0.1935 -0.2970
 1801W        W19325   3.083   5.945  12.598  0.1667 -0.1134 -0.1126
 1802W        W19326  13.719   0.032   2.091  0.0417  0.1101  0.2572
 1803W        W19327  12.348   7.136  15.426  0.1720 -0.0258  0.0185
 1804W        W19328   6.735   1.236   0.474 -0.3541  0.0950 -0.3383
 1805W        W19329   1.196  10.928  11.826 -0.1562 -0.2187 -0.5200
 1806W        W19330   4.252  17.268   1.641  0.1580 -0.1898  0.1801
 1807W        W19331  10.015  13.083  14.088  0.3205  0.0372 -0.3736
 1808W        W19332  17.482  11.277   3.159 -0.3016 -0.0003 -0.2642
 1809W        W19333   7.199  17.087  13.453 -0.0812  0.1857  0.1579
 1810W        W19334   4.154   6.344   4.213 -0.1343  0.1588 -0.1463
 1811W        W19335   4.546   2.185   5.281 -0.0616  0.0171 -0.1010
 1812W        W19336  16.878  14.397   0.800 -0.0145 -0.0395  0.2682
 1813W        W19337  10.762   5.896  14.748  0.1967  0.2414 -0.0438
 1814W        W19338   3.774   8.344   2.895 -0.0010  0.1302 -0.0749
 1815W        W19339  11.962   5.362   4.795 -0.0208  0.1043 -0.0391
 1816W        W19340   5.921  15.709  13.951 -0.2750  0.0458  0.0994
 1817W        W19341  10.431   4.543   3.735 -0.3326 -0.1127  0.0510
 1818W        W19342   4.437   8.148   4.001 -0.0323 -0.3501  0.1795
 1819W        W19343  12.649   2.108   2.702  0.1026 -0.0990  0.1686
 1820W        W19344   3.660   1.040  14.023 -0.1611 -0.1317  0.0364
 1821W        W19345  15.240   3.247  15.985  0.1960  0.2037  0.1182
 1822W        W19346   2.686   5.096   3.723  0.0148  0.3385  0.2420
 1823W        W19347   4.771   8.952  14.708 -0.0036  0.0895 -0.0058
 1824W        W19348  11.582  12.767   1.268  0.1108  0.1304 -0.4504
 1825W        W19349  15.608  10.985   0.672 -0.2297 -0.0105  0.1314
 1826W        W19350  13.311  17.978   2.310 -0.0944  0.1244 -0.0102
 1827W        W19351  10.039   4.152   2.345  0.1662  0.1214  0.1197
 1828W        W19352  11.421  13.565   4.842  0.3442 -0.1212 -0.1398
 1829W        W19353  15.057   4.153  12.937 -0.2378 -0.0316 -0.2551
 1830W        W19354   4.258   5.428   1.805 -0.1151  0.1612 -0.3861
 1831W        W19355  10.030  12.751  15.918  0.0786 -0.1367  0.2086
 1832W        W19356  12.389   6.560  12.961  0.0722 -0.2193  0.0876
 1833W        W19357   9.132   0.634  15.994 -0.0753  0.0747 -0.0231
 1834W        W19358   8.927   0.910  13.059 -0.1366  0.2323  0.0354
 1835W        W19359   3.440  13.999   3.258 -0.1347 -0.1903  0.3752
 1836W        W19360   7.287  11.832  15.491  0.0347  0.1508  0.2088
 1837W        W19361   7.861   1.493   1.560 -0.0127  0.2208  0.0698
 1838W        W19362  12.874   1.760   3.854 -0.1997  0.1605  0.1404
 1839W        W19363   9.588   9.782  11.756 -0.2344  0.0772 -0.1332
 1840W        W19364  12.217   2.457  13.877  0.2882 -0.1705  0.0885
 1841W        W19365  14.286  14.082  12.988  0.1077 -0.1607 -0.0273
 1842W        W19366  16.317   1.747   3.708 -0.2829 -0.1943  0.0801
 1843W        W19367  16.415   7.988  15.264  0.0376 -0.1507 -0.0413
 1844W        W19368  16.080  15.633   4.776 -0.0535  0.0702 -0.2598
 1845W        W19369   4.835  16.618   3.371 -0.0737  0.0703 -0.0837
 1846W        W19370   2.171   3.523   4.212 -0.2639  0.4743  0.3985
 1847W        W19371   4.318   2.532   3.962  0.2751  0.0254  0.1689
 1848W        W19372   9.324   8.045   2.911  0.0020  0.3969  0.2118
 1849W        W19373  15.278   0.962   3.729 -0.0472 -0.0395 -0.1210
 1850W        W19374  11.153   5.584  12.166 -0.1083  0.3061 -0.0611
 1851W        W19375  18.067   7.724   0.616  0.2511 -0.5429 -0.3516
 1852W        W19376  10.213  16.646  11.755  0.0391 -0.0768 -0.1571
 1853W        W19377   0.195  10.466  12.603 -0.0366  0.1319  0.0391
 1854W        W19378  11.204   0.672  15.954 -0.0541  0.0143  0.1296
 1855W        W19379  13.244   5.284  14.449  0.0614  0.0543 -0.2406
 1856W        W19380   0.334   7.576   3.479  0.2210  0.1538  0.1702
 1857W        W19381   3.079   3.142   2.758  0.1239  0.2584  0.3970
 1858W        W19382  12.153  12.287   3.976 -0.0053  0.2103  0.2248
 1859W        W19383  14.916  11.301  15.537 -0.2013 -0.0898 -0.6620
 1860W        W19384   7.548   7.897  13.222  0.0509  0.1298  0.1801
 1861W        W19385   1.436   6.914   4.930 -0.1904 -0.0852 -0.2789
 1862W        W19386   7.042  14.704  14.476 -0.0306 -0.0230 -0.1546
 1863W        W19387  15.406  16.964  14.753 -0.0819  0.1142  0.0067
 1864W        W19388   6.363   5.463  14.060  0.1029 -0.2809  0.0299
 1865W        W19389   7.150   1.039  13.455  0.0745 -0.1197 -0.0141
 1866W        W19390   7.969  15.814  15.022  0.0545 -0.0637 -0.3169
 1867W        W19391   6.461   1.034  12.698 -0.2443 -0.0676 -0.0461
 1868W        W19392  17.659   4.732  12.785  0.2562  0.4053  0.0892
 1869W        W19393  10.804   0.126  14.199  0.1007  0.3739  0.1852
 1870W        W19394   6.326   1.844   4.017  0.0064  0.3202 -0.2912
 1871W        W19395  11.694   1.384   1.819  0.0658  0.1732  0.3483
 1872W        W19396  17.983   9.773   3.173  0.1031  0.0645  0.3607
 1873W        W19397  17.589   3.259   0.576  0.1206 -0.2534  0.4363
 1874W        W19398   5.654  10.923  13.674 -0.0262 -0.1165 -0.2964
 1875W        W19399   8.959   9.342  13.373 -0.1060  0.1387 -0.1850
 1876W        W19400  15.402   1.531  11.652  0.1943  0.0216 -0.2501
 1877W        W19401  11.618  18.152   1.151  0.1891  0.0941  0.0351
 1878W        W19402   5.811  17.726   2.629  0.0934  0.1153 -0.4360
 1879W        W19403  13.745  17.881  13.836 -0.0236 -0.0633 -0.2062
 1880W        W19404   0.504   2.676  11.999 -0.2728  0.2243  0.2724
 1881W        W19405  15.778  11.227  13.117 -0.1573  0.2153 -0.1392
 1882W        W19406   6.601   1.140   0.960  0.2762 -0.2160  0.1639
 1883W        W19407   8.648  15.090   3.560  0.0928  0.3089 -0.2320
 1884W        W19408   9.208   9.168  15.816  0.1507  0.1782  0.1163
 1885W        W19409  12.515  15.204  12.041  0.0761 -0.0702 -0.0896
 1886W        W19410   2.610   9.206   2.425  0.0053  0.2152  0.0904
 1887W        W19411  12.140  17.929  12.759 -0.0312  0.3045  0.0078
 1888W        W19412  12.241   2.221   3.481  0.0096  0.2550 -0.0934
 1889W        W19413   7.796   5.399   4.113 -0.0217  0.0060 -0.1232
 1890W        W19414   0.252  11.493   4.147  0.3387  0.0470 -0.1900
 1891W        W19415   1.756   3.553  12.887  0.2086  0.0899 -0.0802
 1892W        W19416  11.401   6.963   2.625 -0.0011  0.0437  0.1725
 1893W        W19417   5.746   0.954  11.426  0.1047  0.3529  0.1525
 1894W        W19418   5.599  15.361   1.161 -0.0244 -0.1579 -0.0866
 1895W        W19419   2.516  17.322  14.970 -0.1266 -0.3443 -0.0462
 1896W        W19420   1.708   6.140   4.466  0.1375 -0.0519  0.1555
 1897W        W19421   6.706   8.523   3.277  0.1507  0.1322 -0.1105
 1898W        W19422  14.585   7.604   3.562  0.0618 -0.1481 -0.1581
 1899W        W19423  16.776   5.423   0.624 -0.1125 -0.3171  0.3487
 1900W        W19424   4.408   5.461   3.749 -0.3160 -0.4629 -0.1881
 1901W        W19425   6.945   2.145  12.510 -0.0522  0.1010  0.0219
 1902W        W19426  17.515   5.812   1.529 -0.0901  0.1583 -0.1791
 1903W        W19427  16.310   2.277   4.776  0.1485  0.0797  0.0306
 1904W        W19428   9.181   4.068  10.762 -0.2241  0.2711  0.3792
 1905W        W19429   2.922  12.838   2.198 -0.1144  0.0583 -0.2448
 1906W        W19430  17.699   3.917   3.787  0.0085 -0.2289 -0.0432
 1907W        W19431  17.210   8.270   4.488  0.0900 -0.0900  0.3987
 1908W        W19432   1.346   2.609  14.790  0.1144  0.3129  0.1637
 1909W        W19433  14.539   1.351   3.504  0.2823  0.0114  0.0859
 1910W        W19434   3.660   0.395  13.259 -0.0794 -0.0343 -0.1824
 1911W        W19435  11.062  11.374  13.387 -0.0547  0.1154  0.1671
 1912W        W19436   2.086  10.163  11.747  0.3019  0.0246 -0.1248
 1913W        W19437   7.240  17.114   1.753 -0.1689 -0.0879  0.1812
 1914W        W19438   5.002  14.326  15.210  0.0469 -0.3607 -0.1465
 1915W        W19439   0.639  12.545  15.658 -0.4092  0.1259  0.1805
 1916W        W19440  11.587  15.257   4.877  0.0163  0.2446 -0.3259
 1917W        W19441  16.121   3.363   0.339  0.0261  0.0261  0.1561
 1918W        W19442  14.899   8.138   0.039 -0.1643 -0.0735  0.1436
 1919W        W19443   1.603   4.981  11.730 -0.0804  0.0526 -0.0772
 1920W        W19444   0.514  17.243   0.580 -0.0231  0.0832  0.0979
 1921W        W19445   1.008   8.853   0.435  0.3331  0.0533  0.0864
 1922W        W19446   2.445   8.496   1.246  0.2941  0.0502  0.3196
 1923W        W19447   3.605  11.217   2.573  0.1179 -0.1920 -0.2292
 1924W        W19448  16.393   9.257  13.140  0.1176  0.2204 -0.0945
 1925W        W19449   4.943  11.952   3.616 -0.1958 -0.1680 -0.0664
 1926W        W19450  10.536  13.395   2.161  0.3713 -0.0351 -0.2891
 1927W        W19451   2.606   7.175   0.880 -0.1167  0.1230  0.2349
 1928W        W19452   1.585  11.378   0.670  0.1302 -0.0269  0.0078
 1929W        W19453   6.509   9.616  10.820 -0.0500 -0.2013 -0.2429
 1930W        W19454  12.292  10.341  11.733 -0.0911 -0.1987 -0.0040
 1931W        W19455  17.230   8.135  13.173  0.1590 -0.1101 -0.2789
 1932W        W19456   1.480  13.545  12.002  0.3000  0.0725 -0.0149
 1933W        W19457  10.929   8.514  14.812 -0.1799  0.1626  0.2110
 1934W        W19458  10.110   8.506  13.817  0.0211  0.2640 -0.2151
 1935W        W19459  16.783  12.576  12.622  0.0827  0.1277 -0.0081
 1936W        W19460   8.462  10.519  15.837  0.0005 -0.2451  0.2543
 1937W        W19461  11.670   4.171  13.006 -0.0152 -0.0814  0.1070
 1938W        W19462   2.863  15.945  10.944 -0.0666  0.1221  0.3318
 1939W        W19463   4.989   2.053  12.752  0.0335  0.0681 -0.1106
 1940W        W19464  16.107   0.646   3.903  0.2750 -0.0486  0.0886
 1941W        W19465   0.544  12.108   2.119  0.1511  0.0374  0.0645
 1942W        W19466  13.643  14.958  10.894  0.0144 -0.1713  0.2335
 1943W        W19467   5.218  11.370  11.621 -0.0223  0.1163  0.4351
 1944W        W19468   2.948  11.061  13.949 -0.0554  0.1478  0.0238
 1945W        W19469  18.167  18.173  14.439  0.0322  0.0669 -0.0443
 1946W        W19470   1.419  10.906   1.315  0.0059 -0.0210  0.0713
 1947W        W19471  10.934  18.011  13.262 -0.2322 -0.0558  0.3722
 1948W        W19472   1.507  11.830  14.697  0.1661 -0.0878 -0.0972
 1949W        W19473  16.652  15.087   1.740  0.0839  0.0068  0.1141
 1950W        W19474  10.281   7.435   0.377  0.1645  0.3146 -0.1234
 1951W        W19475   7.709  12.473   4.154 -0.2158  0.0880 -0.3785
 1952W        W19476   4.245  16.071  12.687  0.0452  0.0830  0.2305
 1953W        W19477  16.342  18.025   3.534  0.0041 -0.1656  0.1020
 1954W        W19478  16.091   3.638   2.893 -0.1658 -0.1410 -0.1374
 1955W        W19479   4.549   5.327   2.662  0.1536 -0.1878 -0.0562
 1956W        W19480   1.379  16.120  14.820 -0.0757 -0.2409 -0.1814
 1957W        W19481   2.789   5.894   0.456 -0.1290  0.0822  0.1563
 1958W        W19482  11.704   7.653   4.658 -0.0526  0.0792 -0.0528
 1959W        W19483  16.103  14.390   0.001  0.1898  0.2101  0.2199
 1960W        W19484   1.811   0.758  10.942  0.0786  0.0163  0.1507
 1961W        W19485  14.905  10.660   1.295 -0.1195  0.3693  0.1638
 1962W        W19486  11.596   5.575  13.452 -0.2127  0.0329  0.0736
 1963W        W19487   9.381  13.443   2.868 -0.1277 -0.2393 -0.1162
 1964W        W19488   3.751   4.608  14.757 -0.1480  0.1477 -0.1654
 1965W        W19489   4.084   0.551   3.727 -0.0735  0.0968 -0.1657
 1966W        W19490   4.898   4.184  15.862  0.0704 -0.1111  0.1953
 1967W        W19491  12.598   4.105  14.599  0.1004 -0.1477 -0.2578
 1968W        W19492   3.978  16.691  15.086 -0.0851 -0.0844  0.0097
 1969W        W19493   2.615   5.995   4.525 -0.0413 -0.0583  0.3693
 1970W        W19494  11.519   4.777  12.337  0.4097 -0.1726  0.1565
 1971W        W19495  16.602  17.904   2.789  0.1472  0.1871  0.0825
 1972W        W19496  12.498   6.307   2.147  0.1139 -0.1143 -0.2258
 1973W        W19497  10.784   7.163   3.534  0.1053 -0.2190 -0.0389
 1974W        W19498   8.924   7.817  13.474 -0.2288 -0.0245  0.2290
 1975W        W19499   9.194  16.163  11.173  0.3658  0.3950 -0.0838
 1976W        W19500   1.473   3.457  15.945 -0.0442 -0.0842 -0.1631
 1977W        W19501   0.699   8.960   5.552 -0.0766  0.0557  0.0849
 1978W        W19502   5.523  10.719  14.822 -0.0320  0.1945  0.4414
 1979W        W19503  17.919   7.392  12.753 -0.0242  0.0339 -0.1472
 1980W        W19504  12.896   1.639  15.222  0.1554  0.1090  0.1908
 1981W        W19505   6.055  16.340   0.561  0.2788 -0.2804 -0.0208
 1982W        W19506  15.138  13.014   3.768 -0.2494  0.1519 -0.1016
 1983W        W19507  15.484   6.444   2.810 -0.2244  0.0700 -0.2221
 1984W        W19508   1.757   4.493  11.725 -0.0827  0.0423  0.3634
 1985W        W19509  17.228   5.337   1.923  0.1631  0.2930 -0.0536
 1986W        W19510  12.625   0.198  11.230 -0.2350  0.0286 -0.0227
 1987W        W19511   2.709   3.913  13.826  0.1741 -0.0829  0.1319
 1988W        W19512  15.022  16.758  12.268 -0.2571 -0.2985  0.0015
 1989W        W19513  10.083   9.078  11.905  0.4962  0.1144  0.0563
 1990W        W19514  11.892   2.832  13.666  0.2071  0.3233 -0.0407
 1991W        W19515   9.558  13.947  14.275  0.0845  0.4500 -0.1871
 1992W        W19516   7.180  17.089  12.524  0.2101 -0.0798 -0.1785
 1993W        W19517   5.782   7.215   0.540  0.0999  0.2015 -0.1852
 1994W        W19518   3.675  11.474  15.452  0.1476  0.1127 -0.1007
 1995W        W19519  17.106  17.373   4.466  0.0015  0.1271 -0.1575
 1996W        W19520   7.199  16.183   3.174 -0.2637  0.1811  0.0320
 1997W        W19521   3.979  14.525   0.400 -0.0941 -0.2302  0.0686
 1998W        W19522   8.689   8.227   0.546 -0.0394 -0.2354 -0.1480
 1999W        W19523   0.985   3.411  11.536 -0.3770 -0.0715  0.1783
 2000W        W19524   2.507  12.680  12.783  0.0004 -0.1032 -0.2486
 2001W        W19525   0.925   1.883  11.664  0.0365 -0.0873 -0.0263
 2002W        W19526  15.148  13.435  13.392  0.3640  0.0100 -0.3822
 2003W        W19527  14.273   7.634   5.124 -0.0149 -0.1030 -0.0856
 2004W        W19528   4.392   2.127  14.893 -0.2606 -0.1938  0.1023
 2005W        W19529  12.679   9.007   4.560 -0.0193 -0.0972 -0.1064
 2006W        W19530  10.762  17.314  14.903 -0.0468  0.0578 -0.0056
 2007W        W19531   7.780   3.840  15.662  0.0316 -0.2579  0.2534
 2008W        W19532   7.682  16.522  13.908 -0.0273  0.0509 -0.1648
 2009W        W19533  13.369  17.518   2.576 -0.1698 -0.1546  0.2739
 2010W        W19534   5.447   8.472  12.972 -0.0383  0.0985 -0.0380
 2011W        W19535  10.618   6.207  11.130  0.2308 -0.1527 -0.1215
 2012W        W19536   2.482   1.320   1.102 -0.2114  0.4759 -0.1068
 2013W        W19537  10.622   7.976  10.347  0.2086  0.0024  0.0266
 2014W        W19538  13.479   2.695   4.523 -0.2673  0.1044 -0.0449
 2015W        W19539  10.587  10.916   5.287 -0.1549  0.2644 -0.1291
 2016W        W19540   9.702   4.297  14.248  0.0180  0.0975 -0.1929
 2017W        W19541  16.724  13.090   1.067  0.0839  0.1422  0.4832
 2018W        W19542  14.068  16.025  11.941 -0.1668 -0.0759 -0.2996
 2019W        W19543   4.746  11.674   4.050  0.0538 -0.2369  0.4984
 2020W        W19544   2.523  16.522   2.959 -0.2259 -0.2195 -0.0776
 2021W        W19545  17.626  17.026   2.872 -0.0068  0.1522  0.0447
 2022W        W19546   5.842   9.285   1.074  0.0763  0.0742  0.0549
 2023W        W19547  15.837  10.412  11.628 -0.0968  0.1442  0.0881
 2024W        W19548  14.725   7.767   0.743  0.3218  0.1486  0.2195
 2025W        W19549   8.055   1.573   1.006  0.2035 -0.2087  0.0614
 2026W        W19550  14.894   0.872  12.200  0.0722 -0.1747  0.1394
 2027W        W19551  10.606   5.865  12.914  0.1116  0.2165  0.2491
 2028W        W19552  15.014  10.622   0.545  0.4409  0.0260 -0.0218
 2029W        W19553   0.909  14.071  12.663 -0.1875 -0.4262 -0.1975
 2030W        W19554   8.355  13.201   2.366  0.0237  0.0043  0.1625
 2031W        W19555   2.947   1.186   0.907  0.2586  0.0204  0.1645
 2032W        W19556   9.770   9.522  14.686  0.1890 -0.0204 -0.0836
 2033W        W19557   6.919   5.315  15.698  0.3438  0.0804 -0.0252
 2034W        W19558   6.804  10.384  13.068 -0.2780  0.1045 -0.1299
 2035W        W19559  16.242   9.722   0.142  0.1395  0.2695  0.6698
 2036W        W19560   0.799  17.183  10.869  0.0067  0.2674  0.1956
 2037W        W19561   4.423   3.145   2.074  0.2662  0.1232  0.2648
 2038W        W19562  12.152   4.890   3.932  0.4667  0.1090  0.0188
 2039W        W19563  17.366   7.280   5.020  0.3467 -0.0036 -0.1586
 2040W        W19564   8.142  10.664   0.093  0.1775 -0.5775  0.2132
 2041W        W19565   5.350  17.042  11.292  0.1784 -0.1152 -0.1420
 2042W        W19566  16.007   5.534  12.356 -0.0962  0.0143 -0.2083
 2043W        W19567  10.083  11.404   0.970 -0.1624  0.4789 -0.0109
 2044W        W19568   2.797  14.478   4.037  0.0403 -0.0163 -0.1148
 2045W        W19569   3.636  12.984  13.913 -0.0759 -0.0763  0.1742
 2046W        W19570  12.578   7.308  11.884  0.0698  0.1125  0.1345
 2047W        W19571  11.337   2.268   0.756 -0.2465 -0.0944 -0.1128
 2048W        W19572  17.839  11.684  12.210  0.1643  0.1315  0.4199
 2049W        W19573   3.455   1.125  11.380  0.0204 -0.0946  0.0601
 2050W        W19574  12.248  11.176   2.448  0.1878 -0.1949  0.1683
 2051W        W19575   1.519  12.333   0.717 -0.0078  0.0361  0.1929
 2052W        W19576  15.130   1.854   1.511  0.0177 -0.0705 -0.3441
 2053W        W19577   0.947   3.192   1.748  0.0537 -0.0401  0.1043
 2054W        W19578  17.957  11.960  15.099  0.0622  0.0195  0.0431
 2055W        W19579   2.077  16.835  11.259 -0.1331  0.0614 -0.0969
 2056W        W19580   8.911  14.955  14.712 -0.3023 -0.1347 -0.0637
 2057W        W19581  12.401  12.928  11.709  0.1299  0.3796  0.1919
 2058W        W19582  14.796  12.895   1.916  0.5002 -0.3956 -0.1371
 2059W        W19583   9.558   9.202  15.022  0.2762 -0.0554 -0.1189
 2060W        W19584  14.405  14.166   3.880 -0.4281  0.3300 -0.1232
 2061W        W19585   9.368   5.036  14.337 -0.0029 -0.1082  0.1368
 2062W        W19586  13.813  16.965   0.955  0.1840 -0.1265  0.1211
 2063W        W19587  12.364  15.282   5.246 -0.2944  0.1549  0.0453
 2064W        W19588  10.079   8.170  15.075 -0.0252 -0.1016  0.0553
 2065W        W19589   5.665  14.901   1.024  0.1505  0.2248 -0.1922
 2066W        W19590   1.944   8.331   5.275 -0.2882 -0.0865 -0.0700
 2067W        W19591   8.864  14.860   2.204 -0.0150 -0.1862  0.0307
 2068W        W19592  12.359  12.024  15.406  0.1311  0.1838  0.1205
 2069W        W19593  14.684  18.040   3.200 -0.1552  0.1917 -0.2159
 2070W        W19594   4.058   9.926   4.055  0.2789 -0.0155  0.1663
 2071W        W19595  12.592  10.431  15.085 -0.3836 -0.2009 -0.2454
 2072W        W19596  10.742   1.434   2.183  0.0939  0.2572 -0.1329
 2073W        W19597  14.787  13.301   1.525  0.0031  0.3145 -0.0203
 2074W        W19598  15.413  14.913  11.490  0.0428  0.3279  0.1644
 2075W        W19599  10.597  13.776  14.442 -0.0547 -0.0149  0.2811
 2076W        W19600   6.616  16.447  10.982  0.0261  0.0186 -0.2673
 2077W        W19601  14.977  13.945   4.916  0.0441  0.0363 -0.0723
 2078W        W19602  16.825   2.596   3.370  0.2566 -0.1586 -0.2355
 2079W        W19603  12.312   3.089  11.487 -0.1394 -0.1968  0.1907
 2080W        W19604  15.125   2.889  14.006  0.2482 -0.1956  0.0136
 2081W        W19605  10.382   9.669   2.321 -0.1561  0.0180 -0.0053
 2082W        W19606   4.471  17.985  15.311  0.0909  0.4531 -0.3017
 2083W        W19607   8.703   3.390  15.015 -0.3626 -0.1504  0.1034
 2084W        W19608  13.045   7.070   1.933  0.1861  0.0706 -0.1541
 2085W        W19609  15.156  15.745   4.346 -0.0293  0.0609 -0.1254
 2086W        W19610   5.634  13.899   3.778 -0.3063  0.1161  0.3218
 2087W        W19611   2.110  16.467   4.469  0.0609  0.2181  0.2496
 2088W        W19612  15.358  11.488   5.144 -0.1223 -0.1111  0.2098
 2089W        W19613   3.976   4.739  12.290  0.2660  0.1890  0.0322
 2090W        W19614   8.410  11.083   0.288  0.0363  0.1588 -0.1014
 2091W        W19615   1.245   5.925   1.635  0.0773 -0.0591  0.1538
 2092W        W19616   9.855   9.289   3.310 -0.0594 -0.1060  0.0414
 2093W        W19617   5.962  13.049   0.335 -0.2019  0.0617  0.1015
 2094W        W19618   5.131   6.604  12.955 -0.2103 -0.2797  0.2448
 2095W        W19619   7.563  17.913  11.753 -0.2017 -0.2227 -0.1819
 2096W        W19620   2.199   3.919   3.135  0.3426 -0.2476 -0.0353
 2097W        W19621  12.682  17.346  11.642  0.0060  0.0809  0.1812
 2098W        W19622   3.658  13.739  15.704 -0.2797  0.1406 -0.0536
 2099W        W19623   3.827   5.653  13.109 -0.1601  0.4197 -0.0304
 2100W        W19624  16.010  11.467  12.579 -0.3386 -0.1554 -0.0556
 2101W        W19625   2.553  12.148  13.994  0.1018  0.0605  0.0855
 2102W        W19626  13.520   5.270   0.168 -0.0147 -0.3137 -0.2658
 2103W        W19627   4.582  13.989  13.825 -0.3450  0.1835  0.3071
 2104W        W19628   5.468  12.470  13.401  0.0670  0.0041 -0.1304
 2105W        W19629  12.149   8.996   2.781  0.2208 -0.1182 -0.1721
 2106W        W19630   5.077   1.088   0.933 -0.1954 -0.2237 -0.1701
 2107W        W19631   1.624  14.863   3.111  0.1501 -0.0999 -0.1012
 2108W        W19632   9.892   1.941  11.510 -0.5281  0.0646  0.1580
 2109W        W19633  15.237   2.634   1.711  0.0960  0.0049 -0.1437
 2110W        W19634   4.108  10.832  13.519  0.0781 -0.1448  0.0520
 2111W        W19635   5.244   2.853  14.094 -0.0406 -0.2015 -0.0275
 2112W        W19636   9.314   5.090  12.891  0.1692 -0.0362 -0.0742
 2113W        W19637  14.901   7.722  15.929  0.0738  0.1846 -0.0517
 2114W        W19638   9.304   4.136  14.496  0.1920 -0.2055 -0.1798
 2115W        W19639   4.740  13.025  13.938 -0.1939 -0.0554  0.0146
 2116W        W19640  17.536  15.254  14.768 -0.3973 -0.3254  0.0634
 2117W        W19641   6.655   0.699   0.670  0.1360  0.1582  0.1709
 2118W        W19642  13.647  14.926  12.402  0.1893  0.1956  0.1975
 2119W        W19643   2.193   8.559   2.064 -0.1088  0.1484 -0.1988
 2120W        W19644   9.898   0.657   1.331 -0.2390  0.2118  0.0106
 2121W        W19645   9.161   5.769   2.291 -0.2659  0.0801  0.0889
 2122W        W19646   3.202   4.543  10.923  0.0475 -0.2100  0.0374
 2123W        W19647  17.774  11.311   4.025  0.0876  0.0498  0.2949
 2124W        W19648   7.221   3.855   1.423  0.0552 -0.0826  0.6724
 2125W        W19649   2.646  15.582  15.724 -0.4043  0.1559 -0.0378
 2126W        W19650   3.363   3.327  16.032  0.2155  0.0852 -0.0253
 2127W        W19651  17.125   1.092  13.213  0.1291  0.1974  0.0410
 2128W        W19652  14.437   6.882  12.633  0.1760 -0.3174  0.1028
 2129W        W19653   9.271   1.767  12.654  0.3617  0.1348 -0.1077
 2130W        W19654   1.505  16.966  15.475 -0.0755  0.0097  0.0856
 2131W        W19655   5.125   9.171  14.333  0.0331  0.1291 -0.1426
 2132W        W19656  10.854   1.063  12.069 -0.1260 -0.0494  0.1523
 2133W        W19657  16.691   8.115   0.178  0.0446  0.1287  0.0230
 2134W        W19658  16.117   2.655  13.801  0.1539  0.0083 -0.1298
 2135W        W19659  12.163  16.641   3.603 -0.0055 -0.1466 -0.3305
 2136W        W19660  12.067  11.598  15.455  0.0474 -0.0153 -0.1103
 2137W        W19661   7.956   8.988   3.515  0.2280 -0.2732 -0.1264
 2138W        W19662   9.425   6.718   1.257  0.0626  0.1489 -0.0206
 2139W        W19663   2.897   0.493   3.271  0.0239  0.0342  0.3644
 2140W        W19664   8.614   8.415  11.479  0.0903 -0.2040  0.0167
 2141W        W19665   2.274  10.295   1.487  0.2556 -0.0554  0.1510
 2142W        W19666  17.088  15.044   0.823  0.0998  0.0137 -0.2200
 2143W        W19667  15.947   8.384   0.407  0.1502 -0.1214  0.0721
 2144W        W19668   1.881   1.762   6.100 -0.0282  0.1018  0.0064
 2145W        W19669   0.406  15.159   3.989 -0.0666 -0.0386  0.0795
 2146W        W19670   4.192   4.744   1.871  0.1683  0.1448  0.1672
 2147W        W19671   0.692   0.807   3.012  0.2557  0.1698 -0.3333
 2148W        W19672   2.829   8.010  11.132 -0.2020  0.0852 -0.0647
 2149W        W19673   7.935  17.996   0.481 -0.0163  0.1186 -0.1225
 2150W        W19674  12.007   5.974   4.028 -0.3689 -0.2949 -0.0603
 2151W        W19675   9.703  16.191  11.162 -0.0455  0.0360 -0.1634
 2152W        W19676   4.887   9.442  10.918 -0.0242 -0.0543  0.0403
 2153W        W19677  17.272  10.956   0.243  0.3107  0.0959 -0.1518
 2154W        W19678   1.281  14.408   1.430 -0.0356 -0.1342  0.0936
 2155W        W19679  14.934   3.785  11.331  0.1820  0.0944  0.2020
 2156W        W19680   9.548   5.502  15.915 -0.4216 -0.1276  0.1955
 2157W        W19681   3.373   6.914  10.016  0.1025 -0.1442  0.1064
 2158W        W19682   2.054  17.496   5.056  0.0111 -0.2301  0.0093
 2159W        W19683   3.765   7.150   0.299 -0.0553  0.1220 -0.0050
 2160W        W19684   3.027  15.067  10.885  0.0338 -0.2130 -0.3048
 2161W        W19685   6.271   5.224   5.694  0.1703  0.0259  0.1991
 2162W        W19686  15.147  17.050   2.084 -0.0381 -0.1835  0.3246
 2163W        W19687  15.530  18.100   2.731  0.0426  0.0073 -0.2126
 2164W        W19688   7.668  13.965   3.785  0.0989  0.1320 -0.0323
 2165W        W19689  15.388   4.621   4.705  0.1047 -0.0135 -0.0206
 2166W        W19690   7.315   6.265   2.481  0.0717  0.0424  0.0159
 2167W        W19691  17.429  11.960   4.982  0.0163  0.0486  0.1734
 2168W        W19692   1.708  10.538   0.062 -0.0437 -0.1538  0.2025
 2169W        W19693  14.034  11.933   0.226  0.2064 -0.0039 -0.2026
 2170W        W19694  15.009   3.668   0.997  0.1384 -0.0133  0.2406
 2171W        W19695   2.386  16.883   0.525 -0.1405  0.0495  0.0284
 2172W        W19696   8.453  10.219  14.411 -0.1167  0.0813  0.0791
 2173W        W19697   1.576   1.033  11.267  0.1295  0.1297  0.1675
 2174W        W19698   8.066  13.083  15.916 -0.2334  0.0770 -0.1672
 2175W        W19699  10.609  10.863   2.562 -0.3984  0.3835  0.1175
 2176W        W19700   8.105   9.909   2.592  0.0077  0.3323 -0.3220
 2177W        W19701   0.577   6.673   2.575  0.0075 -0.1677  0.2826
 2178W        W19702  14.200   4.156   3.446  0.0742  0.2964 -0.0879
 2179W        W19703   9.698  15.421  12.820 -0.2251 -0.1790 -0.0986
 2180W        W19704   3.512  17.866   2.739 -0.0168 -0.0967 -0.3004
 2181W        W19705   4.411   9.399  14.814 -0.0733  0.2312  0.0051
 2182W        W19706  16.561   3.081  12.996 -0.2062  0.5497  0.3712
 2183W        W19707  10.690   4.530   4.264 -0.0434 -0.2500 -0.1378
 2184W        W19708  16.076   8.342   1.917 -0.2119 -0.0351 -0.1866
 2185W        W19709   9.591  11.504  11.807 -0.1114 -0.1227 -0.0033
 2186W        W19710  15.752   0.619   5.912  0.2180  0.0864 -0.4642
 2187W        W19711   0.600  11.467  15.455 -0.1023 -0.1530  0.1330
 2188W        W19712   2.066   6.832  13.744 -0.2830 -0.0074  0.2419
 2189W        W19713  16.480  16.065   2.400  0.2929  0.0934 -0.0145
 2190W        W19714  17.381   8.939  13.345 -0.1266 -0.2208  0.0204
 2191W        W19715   3.952  13.440   4.074  0.4507 -0.0934 -0.0930
 2192W        W19716  14.022   5.948  12.568 -0.0552  0.1120 -0.1492
 2193W        W19717   4.200   0.182  10.502 -0.0312  0.1226  0.3714
 2194W        W19718  17.561  17.745  11.946  0.0296 -0.0831 -0.1490
 2195W        W19719   8.012   8.980   0.879 -0.0000 -0.0544  0.0637
 2196W        W19720   8.063   2.502  12.901  0.1364  0.0597 -0.0156
 2197W        W19721   6.677  14.720  10.847  0.2155  0.0506 -0.2109
 2198W        W19722   3.521  17.575   2.171 -0.0734  0.1368  0.1857
 2199W        W19723  17.066   8.706   3.546 -0.1435  0.0788 -0.0830
 2200W        W19724  15.870  14.732  13.241 -0.2006 -0.1862 -0.1218
 2201W        W19725  13.550  11.204   1.634  0.2522  0.3147  0.1640
 2202W        W19726  12.232   6.824   4.884  0.1678  0.1725 -0.0316
 2203W        W19727   7.194  10.789  12.577 -0.0777  0.0060 -0.1231
 2204W        W19728   2.443   9.139   2.880  0.1758  0.0861  0.2983
 2205W        W19729   2.961   2.281   1.797  0.0535  0.2441 -0.0940
 2206W        W19730  10.649  12.567   1.630  0.0947 -0.1672  0.1879
 2207W        W19731  10.265   4.220  15.828 -0.1180  0.5300 -0.1492
 2208W        W19732  16.372   1.564   2.073 -0.1001  0.2618  0.0376
 2209W        W19733   0.043  14.018  13.171  0.1175  0.2132 -0.0261
 2210W        W19734   7.587  10.259   5.401  0.0660  0.0362  0.4474
 2211W        W19735  14.348   0.512   3.238 -0.1066 -0.1337 -0.0518
 2212W        W19736   2.547  11.254   0.615 -0.1159  0.3119 -0.1671
 2213W        W19737   5.373   1.609   2.048  0.4776 -0.0954 -0.0126
 2214W        W19738   1.473   4.124   4.886 -0.2654  0.2423  0.1376
 2215W        W19739   0.331  10.802   0.958 -0.0055 -0.1483 -0.1959
 2216W        W19740   3.784  14.500  11.813  0.1710  0.2145 -0.0954
 2217W        W19741  17.561  15.845  13.970 -0.1295 -0.2053  0.2444
 2218W        W19742   6.475  10.326  15.262  0.0837  0.0327  0.0195
 2219W        W19743   1.597  18.172   3.930 -0.1499 -0.1816 -0.2416
 2220W        W19744   9.065   2.653   1.866 -0.0555 -0.3221 -0.0836
 2221W        W19745   7.324   0.880  15.482  0.0041 -0.0032 -0.1574
 2222W        W19746   1.112   3.313  13.837 -0.1962 -0.3039 -0.0677
 2223W        W19747   4.049  10.961   4.574  0.2862  0.2445  0.1869
 2224W        W19748   6.082   9.128  11.835  0.1738 -0.2433  0.0409
 2225W        W19749   5.428  15.977  11.222 -0.0146  0.1085 -0.2977
 2226W        W19750   9.946   2.246  14.311 -0.1555  0.1661  0.0846
 2227W        W19751   8.380  17.963  12.576  0.0969  0.2139  0.1941
 2228W        W19752   4.587   9.457   2.216 -0.1791 -0.1331 -0.2040
 2229W        W19753   9.240  12.346  14.918  0.1608 -0.1218 -0.0316
 2230W        W19754   8.876   8.285  13.753 -0.3472 -0.0537  0.1018
 2231W        W19755   1.263   5.708   3.460 -0.2840  0.1438 -0.1896
 2232W        W19756   5.880   6.400   1.705  0.0181  0.0055  0.0251
 2233W        W19757   7.597   0.068  13.991 -0.1390  0.2149 -0.0023
 2234W        W19758  18.031   3.917   1.740  0.0570  0.1554 -0.0553
 2235W        W19759   9.292  11.820  14.954  0.2285 -0.0148  0.4373
 2236W        W19760   6.112  16.787   2.439 -0.0947 -0.3019  0.1473
 2237W        W19761   0.406  12.757   0.007 -0.0472  0.1084 -0.0134
 2238W        W19762   1.804  16.700  12.547  0.0976  0.0096 -0.0008
 2239W        W19763  15.463   5.017   1.127  0.0415  0.0742 -0.1257
 2240W        W19764   4.172  14.289   4.440 -0.2087 -0.1035 -0.1604
 2241W        W19765  14.047  11.366   1.861  0.1197  0.2572 -0.3380
 2242W        W19766   7.670  12.638  13.046  0.0955 -0.2292  0.1557
 2243W        W19767  14.405  14.415   2.829  0.1337  0.0827 -0.1770
 2244W        W19768   7.369   2.610   4.652 -0.1616 -0.1864 -0.0984
 2245W        W19769   2.341  14.168  11.630  0.2391 -0.3251 -0.1398
 2246W        W19770   8.801   1.048  13.944  0.2555 -0.1265  0.1741
 2247W        W19771   0.667  13.985  11.868 -0.0867 -0.0320 -0.1930
 2248W        W19772  16.687  13.110   4.696  0.2034 -0.2615  0.0726
 2249W        W19773   9.922   8.896   2.859  0.1878  0.0285 -0.0484
 2250W        W19774   1.098   3.965  11.267 -0.0530 -0.0785  0.0060
 2251W        W19775  11.577  17.099  10.345  0.0504  0.1211 -0.1135
 2252W        W19776  15.828   5.805   3.324 -0.2649 -0.1846 -0.0008
 2253W        W19777  14.880  16.452  15.347 -0.1129 -0.1517  0.1585
 2254W        W19778  13.405   9.276  13.470 -0.1525 -0.1502  0.1154
 2255W        W19779  11.267   2.205   1.527  0.1781  0.4187 -0.2626
 2256W        W19780  15.687  11.676  14.644  0.1560  0.0079  0.0577
 2257W        W19781  12.097  10.712   1.731 -0.1871  0.0364 -0.0876
 2258W        W19782  17.492   8.301   4.103  0.1201 -0.2192  0.0818
 2259W        W19783   8.738  13.581  12.333  0.0122  0.3056 -0.2113
 2260W        W19784   2.611  17.783   0.418 -0.0046  0.2148  0.2651
 2261W        W19785   4.586  12.196  15.990 -0.2251  0.1661  0.0233
 2262W        W19786   9.767  17.604   3.666 -0.0277  0.0817  0.0594
 2263W        W19787  14.631  12.982  12.200 -0.2573  0.3683  0.1646
 2264W        W19788   4.729   9.416   4.411  0.1330 -0.1149 -0.1324
 2265W        W19789  14.708   9.050   0.933  0.0323 -0.0684 -0.2142
 2266W        W19790  16.198   7.478  12.538  0.0062  0.1710  0.3931
 2267W        W19791  14.548   9.190   4.180 -0.0279 -0.2559  0.0103
 2268W        W19792   3.356   7.584  12.814 -0.1531  0.2964 -0.1514
 2269W        W19793   5.194  18.186   5.299 -0.0914 -0.2587 -0.2762
 2270W        W19794  14.310  17.004  10.456  0.1826  0.1223  0.1450
 2271W        W19795   4.396   4.176  12.687  0.1802 -0.1725 -0.0086
 2272W        W19796  14.368  10.826  12.714 -0.3837  0.2024 -0.1070
 2273W        W19797   4.568  15.821  10.197  0.1936  0.1472  0.1160
 2274W        W19798  10.081  10.023   4.407 -0.4907 -0.2613 -0.0654
 2275W        W19799   3.800   1.390   4.368  0.2400  0.1516 -0.1155
 2276W        W19800   4.053  16.661   4.728 -0.0742  0.1703  0.2170
 2277W        W19801  10.853   1.944   2.750  0.2483  0.0952 -0.2344
 2278W        W19802   1.124  17.672  12.457 -0.0151  0.4790  0.0245
 2279W        W19803   3.935   1.900  12.907  0.0645  0.0001  0.0247
 2280W        W19804   8.755   8.210   1.519  0.1284  0.1354 -0.3436
 2281W        W19805   7.049  13.597  12.099 -0.1444 -0.1110 -0.0695
 2282W        W19806  14.801  17.722   1.759 -0.1732 -0.0195 -0.0209
 2283W        W19807   7.392  10.983  14.489  0.0607 -0.1291  0.0621
 2284W        W19808  15.432   7.501  12.010 -0.0644  0.0758 -0.0938
 2285W        W19809   8.992   3.192   0.828  0.0660  0.0274  0.1619
 2286W        W19810   1.242   4.770  12.131 -0.0211 -0.0599  0.1018
 2287W        W19811  14.415   5.845  12.101 -0.0592  0.1211  0.0157
 2288W        W19812   5.213   5.559  13.543  0.0379  0.0939 -0.2270
 2289W        W19813   4.024   2.891   4.855  0.1563 -0.2488 -0.1113
 2290W        W19814   6.231   0.532   1.422 -0.0247 -0.2184 -0.1467
 2291W        W19815  11.377  11.287   2.049  0.1084 -0.3341  0.2670
 2292W        W19816  11.275   7.160   3.060 -0.4355  0.2118  0.1285
 2293W        W19817   1.452  15.525   0.851  0.1303 -0.0976 -0.3163
 2294W        W19818   5.890   3.044  12.407  0.0117 -0.1135 -0.2352
 2295W        W19819   2.870  11.162   1.846 -0.0882  0.2314  0.1595
 2296W        W19820   5.707  10.298   2.965  0.1053  0.2416  0.0066
 2297W        W19821  14.333   0.640   2.615  0.1253 -0.0337  0.2871
 2298W        W19822   0.930  17.596   3.911  0.0998 -0.0328  0.1804
 2299W        W19823  15.808   4.088   5.327 -0.0641  0.0195 -0.0157
 2300W        W19824  13.933  12.490   4.206  0.3152  0.0700  0.1767
 2301W        W19825   4.693   7.471   2.116 -0.2119  0.2655 -0.0341
 2302W        W19826   1.553  11.280   4.169 -0.1471 -0.2887  0.1141
 2303W        W19827  17.207  14.433   3.381  0.2265  0.0783  0.2594
 2304W        W19828  13.410  11.490   5.079  0.1129  0.0504  0.0088
 2305W        W19829  10.846  15.369   4.230 -0.0850  0.0348  0.0554
 2306W        W19830  16.788  13.107  12.244 -0.1118 -0.0954 -0.0356
 2307W        W19831   4.985   3.774   1.530 -0.0137 -0.0207  0.0065
 2308W        W19832   3.888  14.997   0.256  0.1809 -0.2183  0.1406
 2309W        W19833  11.795   1.985   0.742  0.0986 -0.1737  0.2257
 2310W        W19834  12.252   7.252  12.866  0.3048  0.0080 -0.1360
 2311W        W19835   4.237   8.702  10.551  0.1030 -0.1348  0.2209
 2312W        W19836  15.033   7.743   3.359  0.2849  0.1078  0.3192
 2313W        W19837   4.447  15.642   1.730  0.1923 -0.0184 -0.0433
 2314W        W19838  16.272  17.272  13.927 -0.1833  0.0979 -0.0545
 2315W        W19839  12.013  15.305  11.399  0.1071 -0.1651 -0.4324
 2316W        W19840   4.932   6.679  11.045 -0.4100  0.0230 -0.1214
 2317W        W19841  15.185  17.076   3.350 -0.1760  0.0338 -0.1524
 2318W        W19842  17.931   2.258   2.866 -0.0700 -0.1560  0.0200
 2319W        W19843   3.556   2.575  15.008  0.2685  0.1455  0.0484
 2320W        W19844   8.530   0.333   1.617  0.0174  0.0546 -0.2207
 2321W        W19845   0.344   4.159  13.058 -0.0155  0.4770 -0.0482
 2322W        W19846  15.694   8.179   2.185  0.0393 -0.0306 -0.0377
 2323W        W19847   2.446  17.076  15.427  0.1339 -0.2085 -0.1438
 2324W        W19848  11.785  10.152  14.164  0.2221  0.3946  0.3006
 2325W        W19849  10.217   2.317   3.323 -0.3316 -0.0630  0.0473
 2326W        W19850   8.255  10.184   4.145 -0.1977 -0.1093 -0.1878
 2327W        W19851   0.991   6.049  12.107 -0.5114 -0.1922 -0.3427
 2328W        W19852  15.754   9.683   4.093 -0.0871 -0.1421  0.0630
 2329W        W19853  16.544   0.804   0.100 -0.1374 -0.1067 -0.5027
 2330W        W19854  16.804   4.515  11.813 -0.2261  0.2100  0.0283
 2331W        W19855   8.271   4.294   3.169  0.0042 -0.4337  0.0270
 2332W        W19856  14.100  12.824   4.562 -0.1161  0.1857 -0.4647
 2333W        W19857   7.672  11.527  13.262 -0.0163  0.2553 -0.0842
 2334W        W19858  12.250   2.004   2.996 -0.0076  0.1219  0.1362
 2335W        W19859   6.975   5.445   2.446 -0.2070 -0.2955  0.1120
 2336W        W19860   3.261  13.096  14.829  0.1452 -0.1899 -0.0138
 2337W        W19861  10.537  16.312   4.471  0.0052  0.2319  0.1823
 2338W        W19862   4.763  15.122  15.853 -0.0865 -0.2370 -0.3516
 2339W        W19863  17.872   2.640   3.209  0.0975  0.3083 -0.1763
 2340W        W19864   0.010  17.840   3.826 -0.3049 -0.0096 -0.0423
 2341W        W19865  16.551  13.905  12.726 -0.0334  0.0983 -0.0778
 2342W        W19866   1.098  15.330  13.933 -0.0020  0.0760  0.0758
 2343W        W19867  10.970   7.792  15.333 -0.0927  0.1033 -0.1279
 2344W        W19868  12.148  16.513  11.515 -0.0943 -0.1474  0.2108
 2345W        W19869   8.727   1.648  15.133  0.1530 -0.0862 -0.0857
 2346W        W19870  11.751   5.082   2.551 -0.3788  0.2471 -0.3276
 2347W        W19871  14.907   6.670  12.657 -0.1793 -0.2322  0.2265
 2348W        W19872   4.879  11.534   1.740  0.0970  0.0611 -0.2099
 2349W        W19873   7.473   7.781   1.615  0.2766 -0.0433  0.1111
 2350W        W19874   4.187  12.534   2.870 -0.3080  0.0084  0.1331
 2351W        W19875  13.879  11.255   3.249  0.0654  0.1789  0.4765
 2352W        W19876  10.544  16.591   0.671 -0.1294  0.0848 -0.1073
 2353W        W19877   6.903  14.597   2.478 -0.3349 -0.0414 -0.2052
 2354W        W19878   0.556  13.799  16.075 -0.0352  0.3577 -0.3015
 2355W        W19879  12.949   8.263   3.485 -0.0016  0.0223 -0.1053
 2356W        W19880  15.892  16.122   4.838 -0.2964 -0.2055 -0.2495
 2357W        W19881  14.521  15.145   3.520  0.1155 -0.0657  0.0563
 2358W        W19882  13.602   8.696   4.943 -0.2312 -0.1328  0.0674
 2359W        W19883   8.526   2.406   3.886 -0.1368  0.0802 -0.1905
 2360W        W19884   8.968   8.711   2.575 -0.2568  0.0639 -0.3128
 2361W        W19885  10.270  11.422   3.286  0.1648 -0.1250  0.0696
 2362W        W19886   0.389   6.706  13.682  0.1762 -0.0547  0.1312
 2363W        W19887  11.358  12.806   6.042  0.2994 -0.2705 -0.0045
 2364W        W19888   4.020  16.254  14.756  0.1014  0.1447 -0.0024
 2365W        W19889  14.841  17.771   0.811 -0.1467  0.4771 -0.1103
 2366W        W19890  14.451  14.717   0.591 -0.4141  0.0140 -0.2188
 2367W        W19891   6.337   2.383  12.169  0.2252 -0.3265  0.0271
 2368W        W19892  17.124   6.142  15.282 -0.0417 -0.7415 -0.0361
 2369W        W19893  10.313   7.982   5.437 -0.2379 -0.4732  0.1056
 2370W        W19894  15.031  10.243   1.985 -0.2247  0.2566  0.4154
 2371W        W19895  15.500  13.756   2.603 -0.1910 -0.2987 -0.1140
 2372W        W19896   4.826   6.026  14.752  0.0807 -0.0789  0.0076
 2373W        W19897   5.061  10.527  13.419  0.0152  0.1843  0.2290
 2374W        W19898   9.598   9.370   0.485  0.2812 -0.2178  0.0144
 2375W        W19899   7.319   2.400   5.380  0.1731  0.0647 -0.2027
 2376W        W19900   4.060   7.976   0.602 -0.0389 -0.2226  0.2044
 2377W        W19901  15.853  17.907   1.185 -0.0200  0.0650 -0.1540
 2378W        W19902   3.496   3.034   1.467 -0.3396  0.2043  0.0950
 2379W        W19903   8.082   1.843   0.323 -0.2324 -0.0339  0.0737
 2380W        W19904  14.358   7.403   0.847 -0.1405 -0.2899 -0.2854
 2381W        W19905   4.368  13.818  12.562 -0.2505  0.0583 -0.1742
 2382W        W19906   2.310   4.211  11.870 -0.0680  0.0198  0.1334
 2383W        W19907   9.440   9.093  11.819 -0.0751 -0.2286  0.5202
 2384W        W19908   8.814  10.989  14.652  0.0669  0.2817  0.1525
 2385W        W19909   8.528  16.043  14.391  0.0573  0.1101  0.2932
 2386W        W19910  14.529   9.227  14.376  0.3601  0.0040 -0.0298
 2387W        W19911   8.608   2.335   1.802 -0.3598  0.1428 -0.1781
 2388W        W19912   6.557  16.864   0.049 -0.0281 -0.0620  0.1421
 2389W        W19913  11.352  17.884   4.713  0.1169 -0.2780 -0.3506
 2390W        W19914   7.981   4.982   4.527  0.0912 -0.2642 -0.0938
 2391W        W19915   9.579  13.165   3.805 -0.1005 -0.0986 -0.0439
 2392W        W19916  10.903   3.272   2.932  0.1035 -0.1239  0.1755
 2393W        W19917   2.759  17.513   3.437  0.2007 -0.0990 -0.0433
 2394W        W19918   0.832  17.116   5.177  0.1105 -0.0668  0.1620
 2395W        W19919   6.639  11.183  15.070 -0.0489  0.1613  0.0688
 2396W        W19920   9.669  17.585   2.162 -0.0572 -0.1971 -0.0067
 2397W        W19921  14.755   1.027   0.793 -0.2711  0.0390  0.0104
 2398W        W19922   5.600   6.914  13.420 -0.0604  0.0064 -0.1610
 2399W        W19923  17.096  11.435  13.278  0.0197 -0.0733  0.0353
 2400W        W19924   8.650  10.503   0.662  0.3495 -0.2557 -0.2891
 2401W        W19925  12.334   5.229   2.332  0.0806  0.1421  0.0002
 2402W        W19926  11.651  12.578   6.410  0.1905 -0.0525  0.1383
 2403W        W19927  10.164   5.778   1.989 -0.0675 -0.0433 -0.3367
 2404W        W19928  17.420  13.719   3.712  0.3062 -0.1262  0.0645
 2405W        W19929  15.253  16.603   4.786  0.0812  0.0410 -0.0913
 2406W        W19930  16.188  17.730   0.872  0.0911  0.0486 -0.0885
 2407W        W19931   3.223   9.159   1.550  0.0828  0.1340  0.1615
 2408W        W19932  10.026   4.602   5.972 -0.0434 -0.0107  0.4668
 2409W        W19933   8.901  14.611   1.270  0.2475 -0.1089  0.3078
 2410W        W19934  10.936  10.099  14.553  0.2796 -0.0542 -0.2526
 2411W        W19935   0.382   5.513  12.543 -0.4237 -0.1525  0.0957
 2412W        W19936  15.741   8.743   4.588 -0.1238 -0.0463 -0.0006
 2413W        W19937   1.515   2.436   0.739 -0.1065 -0.1023 -0.0563
 2414W        W19938   6.663   9.864   1.415  0.0760 -0.1116 -0.2121
 2415W        W19939  15.823  12.239   1.698  0.1477 -0.2033 -0.0961
 2416W        W19940  15.300   3.553  11.560  0.0322 -0.0890  0.1317
 2417W        W19941   2.831   5.962  13.097 -0.0363 -0.1752 -0.3893
 2418W        W19942  15.920  11.975   3.600  0.1710  0.2257  0.1320
 2419W        W19943   1.069   4.334  13.513 -0.2883 -0.1802  0.3243
 2420W        W19944   1.627   3.241   3.637  0.0005 -0.1059 -0.0401
 2421W        W19945   3.751   4.921   3.131  0.2688 -0.2279 -0.0931
 2422W        W19946   7.743   0.724  15.211  0.1386 -0.1536 -0.4325
 2423W        W19947   3.245   1.971   1.519  0.1212  0.0929  0.1293
 2424W        W19948  12.934   6.594   1.224  0.4184  0.0385 -0.1042
 2425W        W19949   0.620  11.129  10.551  0.1682 -0.1348  0.1338
 2426W        W19950   2.170   1.028   0.843  0.1979 -0.3635  0.0390
 2427W        W19951   3.179  14.777  12.597 -0.1694  0.1061 -0.0779
 2428W        W19952  15.847  10.469   0.708 -0.3284 -0.0808  0.1754
 2429W        W19953   8.775   2.383   3.054 -0.1215  0.0512  0.0735
 2430W        W19954  15.214  10.367   5.303 -0.0176 -0.2413 -0.0197
 2431W        W19955  14.579   3.934  12.256 -0.2134  0.0973  0.1557
 2432W        W19956  17.080   9.805   0.768 -0.0951 -0.2022 -0.0247
 2433W        W19957   6.356  13.238  10.892  0.2619  0.0317  0.1574
 2434W        W19958   9.417   4.248  15.967 -0.1120 -0.0878 -0.1559
 2435W        W19959  10.324   4.366   4.728 -0.0242  0.2050  0.2698
 2436W        W19960  13.644  16.661  14.193 -0.0709 -0.0716 -0.0468
 2437W        W19961  12.298   7.449   4.195 -0.0580 -0.3780  0.3278
 2438W        W19962  10.429   2.916   0.491  0.1802  0.0804  0.0388
 2439W        W19963   1.736  14.085  14.205  0.2808  0.0770  0.2390
 2440W        W19964  14.397   3.072  15.854  0.1712 -0.0748 -0.0438
 2441W        W19965   5.401   6.623  12.525 -0.1158  0.2019 -0.0031
 2442W        W19966   5.444  15.172  11.308 -0.4188 -0.2048 -0.3587
 2443W        W19967   9.942   1.469  13.248  0.0565 -0.0362 -0.1815
 2444W        W19968  18.091   3.756   2.941  0.2182 -0.0144  0.2134
 2445W        W19969   4.863   2.911  12.750  0.0521 -0.1290  0.0019
 2446W        W19970  12.940  10.697  15.363 -0.0024  0.2462 -0.2458
 2447W        W19971   6.694   5.910   0.362  0.1272 -0.0798 -0.4687
 2448W        W19972  15.699  17.204  13.915  0.0848  0.0749 -0.0962
 2449W        W19973   7.357  13.985  14.154 -0.1264 -0.1876  0.2242
 2450W        W19974   3.853  17.859   1.706 -0.0211 -0.0532 -0.4543
 2451W        W19975  18.108  14.305  10.949 -0.1716 -0.0841  0.3632
 2452W        W19976   2.357  16.747  15.098  0.1554  0.4218  0.1882
 2453W        W19977  17.442  10.723   3.014  0.1429 -0.2305 -0.0599
 2454W        W19978  16.808  15.231  13.663  0.0142  0.0977 -0.0665
 2455W        W19979  16.672  17.166  13.648 -0.0769 -0.1270  0.0139
 2456W        W19980   2.342   9.215  11.806  0.0674 -0.0218  0.1132
 2457W        W19981   1.273   5.494   2.553  0.0668 -0.1688  0.0839
 2458W        W19982   4.023   1.093   4.848 -0.0484  0.1910 -0.1918
 2459W        W19983  14.383  12.058  11.319 -0.1171  0.0600 -0.2238
 2460W        W19984  13.633   5.911  14.029 -0.0124  0.3299 -0.1160
 2461W        W19985   5.611  13.031   2.575  0.0132  0.0110 -0.0146
 2462W        W19986   9.376  10.393   1.325  0.3695 -0.1599  0.2588
 2463W        W19987  17.404   3.333   4.348  0.0082  0.2142  0.3190
 2464W        W19988  16.132  14.258  13.002  0.0668 -0.1721 -0.0958
 2465W        W19989   8.711   6.618   3.803 -0.3326  0.1116  0.0310
 2466W        W19990   4.765   4.221  14.665 -0.1197  0.0819  0.0106
 2467W        W19991  16.078   7.418   1.444 -0.1180  0.2584 -0.0820
 2468W        W19992  11.981   9.342   3.186  0.1771  0.1524  0.1227
 2469W        W19993  14.799   2.254  14.908 -0.6028 -0.0860  0.0891
 2470W        W19994  17.668  12.734  12.544  0.0338 -0.1860  0.1278
 2471W        W19995   2.054  10.277   4.646 -0.0608 -0.2385  0.2190
 2472W        W19996   3.173  15.662  14.939  0.0100 -0.2101 -0.1564
 2473W        W19997   3.198   8.251  13.501  0.0840  0.1285  0.2561
 2474W        W19998   6.604  18.101  14.213  0.0860  0.1320  0.1430
 2475W        W19999   0.144  12.147   3.532  0.0798 -0.0556 -0.2321
 2476W        W20000   9.931  16.005   4.993 -0.1487 -0.1776  0.1570
 2477W        W20001   5.172  11.905  11.663 -0.3959  0.0113  0.1110
 2478W        W20002   6.209  15.096  12.866  0.1129 -0.1517 -0.1259
 2479W        W20003   4.856  10.301   1.060 -0.4634  0.1853  0.2675
 2480W        W20004   8.713  10.135  16.008 -0.0217 -0.0827 -0.1787
 2481W        W20005   0.313   4.681  12.837  0.1216 -0.0377 -0.0797
 2482W        W20006   2.624   9.777  14.758  0.0032  0.3248 -0.0051
 2483W        W20007   6.872  13.067  13.565  0.0121 -0.1390 -0.0023
 2484W        W20008   0.036  14.218   1.869 -0.2392  0.3128  0.0397
 2485W        W20009  15.413   6.591  13.253  0.0358  0.0281 -0.0831
 2486W        W20010  12.893  11.441   4.616  0.0050  0.1375  0.0570
 2487W        W20011  11.736  12.516  13.136  0.0499  0.1075 -0.0495
 2488W        W20012   4.622   5.974  15.203 -0.0959 -0.3039 -0.2074
 2489W        W20013  16.395   0.071  12.638 -0.2302  0.0420  0.0787
 2490W        W20014   4.609   7.549  11.178  0.1609  0.1035 -0.1523
 2491W        W20015   6.843   0.923  14.598 -0.1032 -0.0984 -0.2371
 2492W        W20016   5.842   0.430  12.116  0.0720 -0.0637 -0.2587
 2493W        W20017   8.014   9.618   0.138 -0.1561 -0.2341 -0.0366
 2494W        W20018   8.826  12.620   2.758 -0.0374 -0.1069 -0.0127
 2495W        W20019   3.549   4.664  11.322  0.1386 -0.0736  0.2174
 2496W        W20020   3.985  16.780   0.574  0.1166 -0.0474 -0.1329
 2497W        W20021   2.753   5.576   2.920  0.0249  0.1059 -0.3593
 2498W        W20022  14.057  16.261   3.224 -0.2178 -0.2900  0.0891
 2499W        W20023  10.322  16.207  12.730  0.2862  0.0838  0.0005
 2500W        W20024   7.543   9.954  10.631 -0.1691 -0.0505 -0.1074
 2501W        W20025   9.828  16.734   3.112  0.2152  0.3302 -0.0767
 2502W        W20026   7.784  10.094  15.500  0.0869  0.1386  0.2304
 2503W        W20027  16.503   1.226   0.853  0.0878  0.1528 -0.1346
 2504W        W20028  15.324   7.165   5.141 -0.0904  0.0172  0.1499
 2505W        W20029   9.343   8.907  14.668  0.0075 -0.1177 -0.1394
 2506W        W20030  11.020  13.913   4.735  0.0649 -0.0250 -0.2349
 2507W        W20031   4.326   2.802  15.588  0.1349  0.1300  0.0847
 2508W        W20032  14.406  12.723   4.192 -0.1839  0.1026  0.1890
 2509W        W20033  14.706  11.555   0.617 -0.4515 -0.0043  0.0828
 2510W        W20034  17.124   4.224  13.569  0.1037  0.3550 -0.0954
 2511W        W20035  16.432   0.384   1.606  0.0212 -0.0944 -0.1107
 2512W        W20036  11.350  10.184  13.630 -0.2254 -0.2578  0.0459
 2513W        W20037   6.549   7.382  14.087  0.0620 -0.1267 -0.0455
 2514W        W20038   1.240  14.193   5.697 -0.2582 -0.0451 -0.0256
 2515W        W20039  17.316  10.277   5.039 -0.1708 -0.0856  0.0009
 2516W        W20040  16.037   6.361  13.531  0.0028  0.1500  0.0196
 2517W        W20041  16.277   2.441  15.157  0.2221 -0.1640 -0.0223
 2518W        W20042  10.046   8.247  11.259  0.0346  0.0050 -0.3637
 2519W        W20043  15.023   8.784  14.152 -0.1484  0.2045  0.1938
 2520W        W20044  17.556   8.207  14.711  0.1854 -0.0607 -0.1676
 2521W        W20045  16.818  15.538   2.599  0.2528 -0.2325  0.0373
 2522W        W20046   8.685  11.448   5.236 -0.1765  0.0488  0.3131
 2523W        W20047   6.584   9.245  11.695  0.1864  0.1542 -0.4006
 2524W        W20048  17.742  11.021   3.537  0.1110  0.0867  0.0212
 2525W        W20049   3.718   4.816  15.237  0.1293 -0.2131  0.0489
 2526W        W20050  14.265  18.083   2.515  0.1727 -0.3855  0.0781
 2527W        W20051   4.176   2.601   4.506  0.2545  0.1106  0.1399
 2528W        W20052  13.304  12.468   4.580 -0.0313  0.0453  0.0321
 2529W        W20053   3.572   7.804   1.656  0.2263 -0.0398  0.0360
 2530W        W20054   0.807   5.806   3.548  0.3673 -0.0493 -0.3527
 2531W        W20055  13.674  14.353   2.095  0.1360  0.0585  0.0883
 2532W        W20056  13.453  10.113   5.073  0.2058  0.0307  0.0633
 2533W        W20057  10.450   1.913  13.602  0.1632 -0.0280  0.0073
 2534W        W20058  14.157  16.578  13.401 -0.0927 -0.2715 -0.3240
 2535W        W20059  12.474  17.054   2.856 -0.0478  0.0869 -0.2460
 2536W        W20060  16.183   7.558  14.941  0.0165 -0.0997 -0.0374
 2537W        W20061  13.103   8.057   5.209  0.2701 -0.1423 -0.0294
 2538W        W20062  10.826  13.549  15.875 -0.0678  0.0559  0.2235
 2539W        W20063   7.925   9.441  14.405  0.0777 -0.0268  0.3621
 2540W        W20064   7.519   5.895   0.634 -0.0809 -0.2318 -0.0605
 2541W        W20065  17.180  11.319   1.199 -0.1027 -0.2291 -0.0812
 2542W        W20066   8.771   4.804   0.299  0.0498  0.0133 -0.4008
 2543W        W20067  17.898   4.629   4.533  0.1601  0.0640 -0.0079
 2544W        W20068   0.296   7.172  14.004  0.2378  0.0769  0.3299
 2545W        W20069  13.586  16.996   3.321  0.1009 -0.3127  0.1563
 2546W        W20070  14.337  16.416  11.859  0.1333  0.1401 -0.0154
 2547W        W20071  17.730  15.661   5.050  0.1790  0.1128 -0.0885
 2548W        W20072  11.305   0.643  11.668 -0.0344 -0.1909  0.4948
 2549W        W20073   4.415  13.567  14.605  0.1022 -0.1480  0.1634
 2550W        W20074  12.297  13.661  15.707  0.1019  0.0675  0.0349
 2551W        W20075  12.138  12.123  10.975  0.2599 -0.1625  0.1386
 2552W        W20076   4.659   6.497   3.564  0.2238 -0.4394  0.0546
 2553W        W20077  10.748   4.372   0.272 -0.0230 -0.0271 -0.1121
 2554W        W20078  13.303  17.760   3.650 -0.0156  0.0532 -0.2606
 2555W        W20079   3.726   8.782  13.504 -0.1563 -0.0879  0.1133
 2556W        W20080   6.014  15.600  12.778 -0.1998 -0.1798 -0.1076
 2557W        W20081  15.797  16.802  10.505  0.0423  0.0351  0.0228
 2558W        W20082  13.078  17.266  14.889  0.1519 -0.1078  0.3516
 2559W        W20083  13.844  12.692  13.807  0.1328  0.5830 -0.3148
 2560W        W20084   3.344   5.625   0.655 -0.0482 -0.2513 -0.3462
 2561W        W20085   7.086   8.300   0.026 -0.1062  0.0077  0.0904
 2562W        W20086   9.997   9.271  15.823 -0.1710 -0.3772 -0.0963
 2563W        W20087  12.933   5.412  15.757 -0.2238  0.0886  0.0166
 2564W        W20088  11.918  15.327  12.945  0.1039  0.1797 -0.0997
 2565W        W20089   4.273   1.378  13.471  0.0887 -0.1255 -0.0548
 2566W        W20090   4.026   0.208  14.028  0.3495  0.0615 -0.1825
 2567W        W20091   9.029   9.991   0.228 -0.3792  0.1419  0.0421
 2568W        W20092   9.135   2.023  11.147  0.0522 -0.1523  0.2243
 2569W        W20093   3.637   9.948  14.411  0.2291  0.5830  0.3190
 2570W        W20094  13.766   3.244   3.864  0.0108 -0.1235 -0.0975
 2571W        W20095  11.741  12.535  14.916  0.1132 -0.0148 -0.2395
 2572W        W20096  17.324  15.903   4.722  0.2057  0.0618  0.0467
 2573W        W20097   8.563   4.728  15.236  0.0893  0.4419 -0.0607
 2574W        W20098  15.937  13.089  14.071  0.1176 -0.2878  0.0121
 2575W        W20099  15.416   8.331  14.203  0.1070 -0.2671  0.0382
 2576W        W20100   2.059   1.365   0.451 -0.1010 -0.1289  0.0543
 2577W        W20101  15.642  10.850  15.834 -0.2568 -0.1694 -0.4553
 2578W        W20102   9.905   6.985   4.901  0.1057  0.1158  0.1361
 2579W        W20103   9.732  13.446   5.020 -0.2509 -0.0535  0.1397
 2580W        W20104  17.062   9.867   0.214 -0.1244 -0.0700 -0.2382
 2581W        W20105  13.560  17.492   0.991 -0.0840 -0.2582 -0.0540
 2582W        W20106   8.918   7.320  15.620  0.0576  0.1385  0.2090
 2583W        W20107  15.207   9.536  15.465  0.0856 -0.0211  0.0874
 2584W        W20108   5.930  11.779  13.427  0.0568 -0.0703  0.0441
 2585W        W20109   6.306  17.556  15.445 -0.0366 -0.1820  0.2133
 2586W        W20110   8.580  17.039  15.121  0.2503  0.0629  0.1387
 2587W        W20111  10.729   8.257  12.820  0.2133 -0.0336  0.0939
 2588W        W20112   4.858   0.059  11.595  0.0654 -0.2378 -0.2821
 2589W        W20113   9.036  15.374   2.016 -0.0683 -0.2196 -0.2535
 2590W        W20114   6.987   5.060   1.846  0.0645  0.1177  0.0693
 2591W        W20115   5.868  13.893  11.762  0.2076 -0.0729 -0.0618
 2592W        W20116   4.269  13.035   0.559  0.0438 -0.1389 -0.1054
 2593W        W20117   1.682  11.946  16.030 -0.0065 -0.2212  0.0737
 2594W        W20118   2.740   2.218  15.585 -0.1699 -0.2443 -0.0416
 2595W        W20119  14.846  13.159   5.170 -0.0827  0.1846 -0.0450
 2596W        W20120   9.410   6.207  11.989 -0.0141  0.0678  0.2038
 2597W        W20121   8.857   1.599   3.384  0.2632  0.2322  0.0674
 2598W        W20122  11.965  11.644  14.873 -0.1925 -0.2577 -0.4542
 2599W        W20123  11.836  12.963   2.451  0.2124  0.1753  0.2271
 2600W        W20124   9.938   2.659   2.278 -0.1917  0.1244  0.1346
 2601W        W20125  12.632  13.789   2.460  0.2684 -0.0783 -0.2421
 2602W        W20126   0.789   5.929   1.823  0.1881 -0.0578 -0.3612
 2603W        W20127  12.678   6.105   4.552 -0.1265  0.1203  0.0258
 2604W        W20128   2.477   2.763   4.606 -0.1997  0.2373  0.0479
 2605W        W20129  16.444   5.366  15.192  0.0590  0.0963 -0.3036
 2606W        W20130   2.316   6.903   2.818 -0.1405  0.2044 -0.0069
 2607W        W20131  11.025  15.080   3.871  0.1749 -0.0098  0.1667
 2608W        W20132   3.300  11.219   2.098  0.2420  0.3651  0.2606
 2609W        W20133  15.118  17.880  13.645 -0.1006  0.0604  0.1451
 2610W        W20134   5.490   1.854   4.072 -0.3806  0.0104  0.4019
 2611W        W20135   5.141  17.563  12.519 -0.0212 -0.1648  0.0021
 2612W        W20136  12.798   3.876   0.603 -0.1694  0.1401  0.3342
 2613W        W20137   0.812  15.858   0.411  0.1435 -0.0108 -0.0839
 2614W        W20138   7.052  12.724  11.321  0.0347 -0.0664 -0.4511
 2615W        W20139   0.256   8.304  14.651  0.0349 -0.1453 -0.0031
 2616W        W20140   6.939   2.355  11.445 -0.0750  0.1233 -0.0596
 2617W        W20141   1.568  15.743   2.258  0.1543 -0.1016  0.2106
 2618W        W20142  12.262   8.035   3.063  0.0044 -0.2092  0.2769
 2619W        W20143   5.876  16.997   3.908 -0.0908 -0.1120 -0.0011
 2620W        W20144   0.699  13.120  13.479  0.3776  0.1239  0.2046
 2621W        W20145  10.824   3.688  14.161 -0.1090 -0.1141 -0.1660
 2622W        W20146   9.113   4.110  11.255  0.0051  0.0478 -0.0067
 2623W        W20147   2.913   4.176   4.755 -0.0866  0.0529 -0.3789
 2624W        W20148   8.287  16.331   0.340  0.0986 -0.1171 -0.1871
 2625W        W20149  12.503   8.053  15.808 -0.2037  0.2921  0.0908
 2626W        W20150   4.548   2.974  15.080 -0.1476 -0.0810  0.1466
 2627W        W20151   5.574  12.670   3.453  0.0052 -0.2364 -0.0054
 2628W        W20152  13.886   1.001  14.130 -0.1255  0.0728  0.2207
 2629W        W20153   0.684  18.178  10.918 -0.0982 -0.1893 -0.0668
 2630W        W20154   2.030  13.888  15.510  0.1185  0.0210  0.1385
 2631W        W20155   7.441   3.211  11.223 -0.0616  0.1582 -0.1187
 2632W        W20156  10.691   2.952   5.045  0.4230  0.0734 -0.1411
 2633W        W20157   7.678   8.305  13.450 -0.1925  0.0326  0.1965
 2634W        W20158   0.311   6.374   5.612 -0.0588 -0.1049  0.0261
 2635W        W20159  15.891  12.968  12.490 -0.1160 -0.1296  0.0252
 2636W        W20160  16.604  11.439  12.187 -0.0038 -0.1474  0.0287
 2637W        W20161   9.551  14.828   4.905 -0.3307  0.0455 -0.0430
 2638W        W20162  12.711   8.264  12.787 -0.3598 -0.1691  0.0569
 2639W        W20163   7.628   9.402  12.495 -0.0689 -0.0556  0.3287
 2640W        W20164   3.706   2.192  12.458  0.3101  0.0114  0.2397
 2641W        W20165   6.813   0.654  15.350  0.1537 -0.0665  0.0857
 2642W        W20166   5.095   7.680  11.364  0.1179  0.0299 -0.2329
 2643W        W20167   5.916   0.031   3.645  0.0167 -0.1877  0.1897
 2644W        W20168   0.288   3.945   4.528  0.2648 -0.1509  0.0116
 2645W        W20169  17.252  13.204  12.536  0.1758  0.2436 -0.2781
 2646W        W20170   1.644   8.457  12.674 -0.1114 -0.1112  0.0666
 2647W        W20171   5.063  10.689   1.503  0.0937  0.4329  0.0246
 2648W        W20172   4.347   7.729  14.980 -0.0237 -0.2599 -0.3817
 2649W        W20173   5.968  13.441   3.853 -0.0726 -0.3285  0.0308
 2650W        W20174  11.785  10.102   0.482  0.1145  0.0115 -0.1004
 2651W        W20175   3.579  17.392   3.394  0.1132 -0.0735 -0.3354
 2652W        W20176   6.498   0.779   3.783 -0.0113  0.0917  0.2388
 2653W        W20177  10.771   7.775   3.004  0.2238 -0.0638 -0.0509
 2654W        W20178  10.524  17.020  10.408 -0.2555  0.1585 -0.3575
 2655W        W20179   6.863   5.878  12.807  0.0637 -0.1602  0.3295
 2656W        W20180   8.814  12.214  11.654 -0.1903  0.1370  0.2659
 2657W        W20181  14.826  10.320   3.648  0.3394 -0.0783  0.0401
 2658W        W20182   5.172  14.331   2.704  0.0308  0.2561  0.0964
 2659W        W20183   6.496   4.085   2.520  0.0828  0.0506 -0.1769
 2660W        W20184  15.596   8.901   2.900 -0.1634 -0.0042 -0.1648
 2661W        W20185   0.588  15.254   2.524  0.0335  0.2401 -0.3903
 2662W        W20186   0.853  11.212   2.024 -0.5262  0.0982  0.2121
 2663W        W20187   3.440  12.594  12.987 -0.0071 -0.0551  0.0708
 2664W        W20188   5.116  16.818   2.992 -0.2417 -0.1778  0.1000
 2665W        W20189   3.695  12.736   2.449 -0.2261 -0.3041  0.1386
 2666W        W20190  13.414  10.876  13.563 -0.2322  0.1165  0.1077
 2667W        W20191   5.963  13.271  13.613 -0.0227 -0.1748  0.1662
 2668W        W20192  13.447  17.959  14.753  0.2185  0.1223  0.2241
 2669W        W20193  15.456  10.372   2.900  0.2286  0.2430 -0.0729
 2670W        W20194   7.394   6.049  12.745  0.0652  0.0483  0.0819
 2671W        W20195   6.093   0.470  14.845  0.0421  0.4583  0.1389
 2672W        W20196   8.531   1.339  13.011  0.0389  0.0331  0.0378
 2673W        W20197  14.386   1.385   0.712  0.1477 -0.1843 -0.1521
 2674W        W20198  10.271  16.304   3.906  0.0920  0.0734 -0.1678
 2675W        W20199  14.078   4.243   0.060  0.1954  0.0742  0.1775
 2676W        W20200   8.416   8.147   1.940  0.2277 -0.1123 -0.0043
 2677W        W20201   4.124   3.253  14.832  0.3243  0.1710  0.3346
 2678W        W20202   0.661  15.211  15.334  0.1348  0.0971  0.1125
 2679W        W20203  16.677  11.282   0.786 -0.0439 -0.3135  0.2745
 2680W        W20204  11.871   2.049  15.420 -0.0443  0.2157 -0.0693
 2681W        W20205  15.959  13.018  13.494 -0.0561 -0.0283  0.0376
 2682W        W20206   7.958  13.070   3.106  0.0591 -0.1707 -0.3120
 2683W        W20207  16.936  11.587  15.922 -0.3693  0.0552  0.3264
 2684W        W20208  13.848   2.162  13.374  0.1310 -0.1208  0.2053
 2685W        W20209  10.466  16.727  11.287  0.0021 -0.1942 -0.3280
 2686W        W20210   8.992   1.434  13.110  0.1689 -0.2174  0.2183
 2687W        W20211   3.328   1.323  15.737 -0.0081  0.1969  0.0593
 2688W        W20212  10.400  15.483   3.254 -0.1182  0.0082 -0.2439
 2689W        W20213  14.001   1.630   3.511  0.0681 -0.0987  0.0426
 2690W        W20214   7.368   2.855   1.704  0.2308  0.1607 -0.0473
 2691W        W20215   2.595  13.182   4.472  0.2798 -0.5988 -0.2408
 2692W        W20216  13.851  13.503  13.174 -0.0319 -0.1567  0.0314
 2693W        W20217   9.940  11.435   2.218  0.0244  0.0468  0.4106
 2694W        W20218   2.687   0.953   3.328  0.0812  0.0124 -0.0997
 2695W        W20219  13.310   5.183   2.305  0.3212  0.0947  0.0786
 2696W        W20220  17.117  12.407  15.272 -0.3107 -0.2789 -0.1472
 2697W        W20221   2.931   4.551  14.920  0.1145  0.5340 -0.1548
 2698W        W20222   2.909  17.012  14.433  0.1846  0.1056 -0.0898
 2699W        W20223   1.123  16.895   1.771 -0.4584  0.2711 -0.1528
 2700W        W20224   9.528  15.798  11.980  0.0809 -0.2327 -0.1114
 2701W        W20225   1.535  16.408   4.744 -0.0327 -0.2106  0.3159
 2702W        W20226   8.181   8.637   2.238  0.1472 -0.2144 -0.1088
 2703W        W20227  15.439   4.462  11.437 -0.2054  0.1529  0.0402
 2704W        W20228   4.861  12.851   3.250  0.2092  0.3283 -0.0769
 2705W        W20229   5.631  15.915  12.954 -0.2220  0.1815  0.2702
 2706W        W20230   3.208  15.970   2.744 -0.1273 -0.0260  0.4599
 2707W        W20231   9.527  12.021   1.030 -0.2909  0.2294  0.2111
 2708W        W20232  12.230   3.162   5.173  0.0995 -0.0270  0.3033
 2709W        W20233  11.075  15.950   3.096  0.0332 -0.0383  0.0864
 2710W        W20234  11.930  12.874  15.201 -0.1361  0.0748  0.2035
 2711W        W20235   4.944   9.282  12.934 -0.1602 -0.2170 -0.0668
 2712W        W20236   1.006   6.658  14.746 -0.1123 -0.1040  0.2319
 2713W        W20237  10.359  17.879   2.082  0.0505 -0.0726 -0.0586
 2714W        W20238   4.104   8.068   1.051 -0.0336  0.0591 -0.2228
 2715W        W20239   3.549   9.598   2.843  0.1035  0.0610  0.2742
 2716W        W20240  13.247   0.640   0.266  0.1042 -0.0093  0.2528
 2717W        W20241  11.540  14.039   3.608  0.4275  0.3073 -0.1804
 2718W        W20242   7.372   8.595   4.628 -0.2208 -0.0240  0.0560
 2719W        W20243  15.037  11.861   5.190  0.1880 -0.0378 -0.1482
 2720W        W20244   6.690   7.455  11.824 -0.1387 -0.1673  0.0640
 2721W        W20245   8.943  15.909   1.949 -0.2087  0.2389  0.1980
 2722W        W20246   7.432  13.365  13.347 -0.0315  0.1130  0.1587
 2723W        W20247  10.249  14.010  15.290  0.1752 -0.0533 -0.1572
 2724W        W20248  10.566   1.350   1.699  0.0458  0.0128 -0.2902
 2725W        W20249   1.327   8.932  15.219 -0.0908 -0.1560  0.0850
 2726W        W20250  13.625  15.935   0.718 -0.2747  0.2294 -0.3423
 2727W        W20251   5.891   8.289  12.842  0.3310 -0.1379 -0.2333
 2728W        W20252  14.092   9.460   2.388  0.2564  0.2355  0.0111
 2729W        W20253  10.782   3.053  11.426 -0.1678  0.1204 -0.2127
 2730W        W20254   7.258  11.368   1.547  0.3245 -0.0154 -0.0491
 2731W        W20255  17.547   2.551  11.308 -0.2027  0.1750 -0.0343
 2732W        W20256  13.053   8.540   1.957  0.0915 -0.1818  0.1917
 2733W        W20257  15.737   9.721  15.322 -0.2141 -0.2755  0.1064
 2734W        W20258   2.599   8.113   3.971 -0.0427  0.0637 -0.0435
 2735W        W20259  15.853   1.666  13.672  0.1995 -0.1499 -0.4258
 2736W        W20260   7.955  16.341   1.146  0.1042  0.0251  0.3349
 2737W        W20261   1.124   5.717  11.799 -0.2020 -0.0584  0.1936
 2738W        W20262  12.078   3.142  12.508 -0.1176  0.1168  0.1119
 2739W        W20263   9.107   2.387  15.012 -0.1945 -0.2496  0.3888
 2740W        W20264  14.244   1.995  15.710  0.1145 -0.1945 -0.0095
 2741W        W20265   5.143   8.147  11.723  0.3143 -0.1873  0.0571
 2742W        W20266   9.304  16.705   1.490  0.0806  0.1219 -0.0624
 2743W        W20267   9.150   6.212   0.982  0.0176  0.0706  0.2310
 2744W        W20268   6.040   8.008   4.280 -0.1777  0.0060 -0.3375
 2745W        W20269   0.121   8.167  11.908  0.4004 -0.1855 -0.0468
 2746W        W20270  16.397   8.906   5.002 -0.1157 -0.0374  0.2420
 2747W        W20271  12.395   0.303  11.957 -0.0723  0.0390  0.0434
 2748W        W20272  12.751  10.444  11.113 -0.0053  0.1181  0.1675
 2749W        W20273   5.952  14.731  15.407 -0.0620 -0.0909  0.0441
 2750W        W20274   4.256   3.256  11.173  0.0755 -0.3201  0.1010
 2751W        W20275  16.559  10.602   1.878  0.1545 -0.3377  0.1381
 2752W        W20276   3.359  11.070  11.660  0.0036 -0.2858  0.1766
 2753W        W20277  16.815   5.948  13.459  0.0097 -0.1096 -0.2453
 2754W        W20278   3.436   6.666   1.107 -0.0170  0.1055  0.2850
 2755W        W20279   3.463   2.078  12.917 -0.1717  0.1845  0.2204
 2756W        W20280  13.269  18.082   2.812 -0.4825  0.1164  0.0378
 2757W        W20281  15.063   6.111   5.070  0.2207  0.1120  0.0063
 2758W        W20282  12.702   1.104  13.301  0.0625  0.2198  0.3663
 2759W        W20283  14.054   0.251   4.502 -0.0257 -0.0496  0.0713
 2760W        W20284   4.711  15.392   3.500 -0.2533  0.1115 -0.3100
 2761W        W20285   2.470  14.036   1.094  0.1172 -0.2194  0.2744
 2762W        W20286   7.911  16.165   4.836  0.1527  0.1680 -0.1512
 2763W        W20287  17.718  14.702  15.959  0.0576 -0.0252 -0.4659
 2764W        W20288  11.346  11.146   0.058  0.0015  0.0733  0.1704
 2765W        W20289  15.338  14.284   4.384  0.1940 -0.1075 -0.0499
 2766W        W20290   7.466   0.619  11.662  0.0554  0.1071  0.0267
 2767W        W20291  11.154   2.975  14.195  0.2894  0.0810  0.2416
 2768W        W20292  16.897   9.347   2.316  0.3065 -0.2648  0.5697
 2769W        W20293   0.722   0.578  12.231 -0.1965 -0.0529 -0.0826
 2770W        W20294  16.962  15.003   2.556  0.4942  0.1091 -0.1459
 2771W        W20295   3.078   6.354   1.067  0.0484  0.2403 -0.0351
 2772W        W20296   8.529  12.909   1.996  0.0522 -0.0935  0.0252
 2773W        W20297   9.032   5.333   2.496 -0.0626 -0.0134 -0.1193
 2774W        W20298   6.992   6.416   0.157 -0.1434  0.1244 -0.0941
 2775W        W20299  13.216   2.690  13.470 -0.1959  0.2072  0.1691
 2776W        W20300  13.861   5.232   2.512 -0.1380 -0.3134  0.0336
 2777W        W20301   3.319  16.212  12.750  0.0025  0.0746  0.0649
 2778W        W20302  16.965  14.695   1.517 -0.1369  0.0498 -0.1420
 2779W        W20303   2.720   3.193  15.335 -0.1917 -0.0910  0.1847
 2780W        W20304  11.441   8.411   3.460 -0.0518  0.0709  0.0759
 2781W        W20305  15.358  11.128  15.539 -0.0179 -0.0571  0.0138
 2782W        W20306   5.727  17.080  12.261  0.1910 -0.0806  0.2128
 2783W        W20307  17.087  10.269   6.227 -0.1712  0.1229 -0.2135
 2784W        W20308  17.480  12.643   2.671  0.3874  0.0505 -0.2245
 2785W        W20309  14.630   3.181   3.549 -0.0865 -0.3394 -0.2765
 2786W        W20310   5.697   6.135   0.156  0.1215  0.2678  0.1223
 2787W        W20311  16.659  12.242   1.146  0.0776  0.3004 -0.3485
 2788W        W20312  16.236  11.474   2.799 -0.1028 -0.1656  0.1463
 2789W        W20313   0.918   4.315   0.977 -0.1963  0.0077 -0.2071
 2790W        W20314   8.383   7.350  11.872 -0.1499  0.0015 -0.1596
 2791W        W20315   9.625   3.868  11.419 -0.1954  0.1183  0.0658
 2792W        W20316  13.510  12.257  11.133 -0.0134  0.0203  0.0311
 2793W        W20317   5.670   3.675   5.080 -0.3449 -0.2642  0.0001
 2794W        W20318   9.109  17.934  12.087 -0.4054  0.5071  0.2640
 2795W        W20319  15.756  17.624   2.569 -0.1197 -0.1221 -0.0725
 2796W        W20320   5.630   9.787  13.705 -0.0011 -0.2081  0.1951
 2797W        W20321  15.834   9.606   4.809 -0.0691  0.0170  0.0513
 2798W        W20322   5.427  15.780   1.350  0.3724 -0.0708 -0.1165
 2799W        W20323  16.563   3.844   1.140 -0.2676 -0.0118 -0.0535
 2800W        W20324  12.853  15.454   2.308 -0.3097  0.0029 -0.1243
 2801W        W20325  11.645   5.191   4.449 -0.0212  0.2294  0.2803
 2802W        W20326  18.116   7.772   4.658 -0.2176 -0.0615 -0.1120
 2803W        W20327  15.460   9.528   0.830 -0.1051 -0.3235  0.0907
 2804W        W20328   4.473   8.750   3.424 -0.0023  0.1208  0.0229
 2805W        W20329   5.968   4.217   4.117 -0.2995  0.1853 -0.1835
 2806W        W20330  10.145   6.026   5.140  0.1141  0.1277  0.1817
 2807W        W20331  13.714   9.141   2.538  0.0109 -0.0414 -0.0331
 2808W        W20332   2.927  15.054  15.748  0.0171  0.2133  0.0743
 2809W        W20333   3.946   3.592   4.258 -0.2369  0.1712 -0.0240
 2810W        W20334   2.778  16.384  11.985  0.0495  0.1672 -0.1405
 2811W        W20335  11.469   6.454   1.914 -0.1453 -0.2256  0.4222
 2812W        W20336  12.611   8.252   1.640  0.2214  0.5891 -0.0578
 2813W        W20337  13.001   4.328  12.313 -0.4326  0.0626  0.1541
 2814W        W20338   6.157   6.547  11.714 -0.0271 -0.0462 -0.0766
 2815W        W20339  14.103   8.543  13.358 -0.2172 -0.2038  0.0336
 2816W        W20340   1.735   6.338   2.185 -0.1726 -0.1276  0.3113
 2817W        W20341  10.109  10.752  16.057  0.1138  0.0464  0.3955
 2818W        W20342   3.525   6.178  11.406  0.0284  0.2000 -0.1601
 2819W        W20343   0.064  13.271  13.252  0.0800  0.1965 -0.0063
 2820W        W20344   6.929   1.257  15.560 -0.1684  0.1283  0.1654
 2821W        W20345   2.961   2.051  11.754  0.0762 -0.1672 -0.2146
 2822W        W20346   9.907   7.095   3.451  0.1635  0.2155  0.1856
 2823W        W20347   9.958   1.888   2.136 -0.1092  0.0364 -0.1335
 2824W        W20348  11.353  17.692   1.005 -0.0977 -0.2670 -0.2618
 2825W        W20349   2.783   3.971  11.423  0.1858 -0.1825 -0.0209
 2826W        W20350   3.640   3.887  11.848 -0.0981 -0.1192 -0.0650
 2827W        W20351   5.278   6.127  14.269  0.3626  0.4440  0.2738
 2828W        W20352  10.735  10.076   1.596  0.0895 -0.1121 -0.1841
 2829W        W20353   5.496  13.629  15.241 -0.0487  0.0183 -0.2104
 2830W        W20354   9.358   6.089   3.457  0.3454 -0.0948 -0.0369
 2831W        W20355   9.739  10.142  10.537  0.4846 -0.1544 -0.0979
 2832W        W20356   4.261  11.563   3.844 -0.2277  0.3924  0.0530
 2833W        W20357  13.263  15.912  13.538  0.1505  0.0863 -0.2113
 2834W        W20358  14.017  16.119  11.102  0.0197 -0.3799 -0.1858
 2835W        W20359   9.130   9.236   2.688  0.1076  0.1976  0.0957
 2836W        W20360   3.907   2.273   4.217 -0.1342  0.0492  0.0188
 2837W        W20361  11.861  10.562   3.506  0.2488 -0.3179 -0.1266
 2838W        W20362   8.334   5.085  16.081 -0.1365  0.2565  0.4943
 2839W        W20363   9.892  13.906  13.895 -0.0656 -0.1047 -0.2603
 2840W        W20364  13.888  17.783   0.372  0.2681 -0.0032  0.2827
 2841W        W20365   7.682  13.102  11.917 -0.0970 -0.2215 -0.2523
 2842W        W20366   9.154  11.398  13.754  0.1121  0.1747 -0.0033
 2843W        W20367  13.416  17.012   4.329 -0.4626 -0.2849  0.2689
 2844W        W20368   2.887   9.051   4.802  0.0096 -0.2277 -0.0969
 2845W        W20369  13.664   0.065  15.219 -0.0329 -0.0382  0.0219
 2846W        W20370  15.767   8.499  12.946 -0.1264 -0.0295 -0.0904
 2847W        W20371   3.008  13.039  15.287  0.3288  0.2773  0.0153
 2848W        W20372  14.066   4.385  14.026  0.0479 -0.1089  0.1406
 2849W        W20373  17.230   9.902   4.273  0.0449 -0.1447 -0.2118
 2850W        W20374  16.166   8.919   1.404  0.0443  0.3401 -0.1810
 2851W        W20375  11.926   4.133  12.513 -0.2144  0.0403 -0.3428
 2852W        W20376  13.069   7.971  12.945 -0.1237 -0.3365 -0.4100
 2853W        W20377   8.989   4.528  14.443 -0.2855 -0.1795 -0.2571
 2854W        W20378   4.663  11.349  15.142  0.0527 -0.1975 -0.1254
 2855W        W20379   3.721   0.142   2.805  0.0032  0.4695 -0.3537
 2856W        W20380  14.792  10.925   2.886  0.0339 -0.0815  0.3307
 2857W        W20381  10.908   1.541   3.651 -0.0723  0.2194  0.2706
 2858W        W20382  15.422   5.664  13.715  0.4834  0.1109 -0.1423
 2859W        W20383  12.632  12.944   0.799 -0.0319  0.0962 -0.0836
 2860W        W20384  10.803   8.783  13.427  0.0566  0.3494 -0.2059
 2861W        W20385   8.954   7.538  11.121  0.1365 -0.0418 -0.3092
 2862W        W20386   3.414  16.150  13.261  0.0118  0.2386 -0.0374
 2863W        W20387  13.989  14.454   3.323  0.1507  0.1515 -0.1118
 2864W        W20388  13.145   9.603   2.412 -0.1890  0.2620 -0.0433
 2865W        W20389   3.682   5.375   0.365  0.0100  0.0265  0.1470
 2866W        W20390  17.422  16.789   0.328 -0.0526  0.0475 -0.1367
 2867W        W20391   5.871   6.017   4.743  0.1789 -0.2173  0.0267
 2868W        W20392   1.977  16.595  11.734  0.3517  0.0016 -0.2450
 2869W        W20393   0.080  16.665  15.609  0.0067  0.0955  0.1243
 2870W        W20394   4.160  15.754  11.399 -0.0799  0.2911  0.1434
 2871W        W20395   6.229   0.197  12.394  0.3042 -0.1711 -0.0295
 2872W        W20396  13.306  13.767  11.444  0.1016 -0.0677  0.1778
 2873W        W20397   7.731   5.716  14.514  0.0867  0.1830  0.0904
 2874W        W20398  14.482  13.692   4.003 -0.0556  0.1168  0.0013
 2875W        W20399  11.854  15.047  15.076 -0.0966 -0.2022  0.1031
 2876W        W20400   3.574  12.916   2.900  0.0524 -0.1688 -0.1292
 2877W        W20401  13.463  10.288   2.361  0.2879 -0.2111  0.0472
 2878W        W20402  16.366   8.328   5.019  0.0504  0.0252 -0.0232
 2879W        W20403   6.398  10.370  12.571  0.0818 -0.1398 -0.0523
 2880W        W20404  17.953  11.791   0.056 -0.2577  0.0952 -0.2179
 2881W        W20405   3.758  16.069   2.160  0.1371 -0.0161  0.1742
 2882W        W20406  16.867  15.144  15.536 -0.1209  0.1554 -0.4195
 2883W        W20407  15.135  17.342   0.854 -0.1316  0.0406  0.0883
 2884W        W20408  10.022  14.718   5.013  0.1839  0.1688 -0.2214
 2885W        W20409   4.931   1.249   0.459  0.0798 -0.2474  0.0329
 2886W        W20410  11.397  12.314   4.533 -0.4821 -0.0742  0.1878
 2887W        W20411   4.575   1.720  13.337 -0.0512  0.3456 -0.1592
 2888W        W20412  14.930   5.817  15.663  0.3280 -0.2044 -0.0144
 2889W        W20413  14.897  11.785  11.356  0.1249  0.0452 -0.1949
 2890W        W20414  14.537  15.166  11.366  0.1511  0.0594 -0.3771
 2891W        W20415   0.193  16.398  11.994  0.2138 -0.1723  0.0328
 2892W        W20416   9.534   8.493  11.273 -0.0628  0.2536 -0.1752
 2893W        W20417   0.093   2.811  11.557 -0.0071 -0.0534  0.1826
 2894W        W20418   2.544   7.548   2.013 -0.1189  0.1316 -0.3015
 2895W        W20419   5.186  12.811  14.160 -0.2430  0.0194 -0.2968
 2896W        W20420   3.569  12.532  14.136  0.1341 -0.0962  0.0796
 2897W        W20421  12.220   3.913   1.305 -0.2347 -0.1625  0.1069
 2898W        W20422  14.753  14.387  15.592 -0.1654  0.1211  0.1976
 2899W        W20423   4.050   1.774   4.214  0.2888  0.1126  0.0099
 2900W        W20424   4.680   0.743  12.002 -0.0376 -0.0727 -0.2561
 2901W        W20425  16.836   9.273   2.802 -0.0871 -0.1352 -0.0241
 2902W        W20426   9.572   1.895  13.975  0.3932  0.3010  0.0406
 2903W        W20427  13.990   8.656   1.475 -0.3197 -0.1960 -0.0261
 2904W        W20428  13.238  14.792  14.025  0.1612 -0.3108  0.2174
 2905W        W20429   1.532  11.788  12.052  0.3133  0.1233 -0.1888
 2906W        W20430  12.377   7.898   2.573  0.3573  0.3470  0.1565
 2907W        W20431  18.046  11.171  13.683 -0.1101 -0.2317  0.0815
 2908W        W20432   0.719  10.213   1.122 -0.3381 -0.0802 -0.0222
 2909W        W20433   0.792  11.438   1.570  0.1552 -0.2552  0.1369
 2910W        W20434  15.996   9.038  13.373  0.3269 -0.0578 -0.0481
 2911W        W20435   7.380  17.579   3.578 -0.1178  0.1043  0.1331
 2912W        W20436  15.877  14.532   3.173 -0.2041 -0.0053 -0.0075
 2913W        W20437   3.752   7.870  10.651 -0.1794  0.1455  0.0826
 2914W        W20438  12.731   5.800   1.435 -0.0778  0.3338  0.0865
 2915W        W20439   0.938   0.333   2.076 -0.1195 -0.0349 -0.0366
 2916W        W20440  13.899   6.162   0.393  0.2529 -0.2334 -0.1065
 2917W        W20441   2.832  14.143  15.511 -0.1821 -0.0045 -0.0066
 2918W        W20442  13.329  11.935  10.288 -0.2543 -0.0476  0.0236
 2919W        W20443  16.270   9.734   4.556 -0.1340 -0.1033 -0.1125
 2920W        W20444  11.159  14.504  14.560  0.1727 -0.0570  0.0856
 2921W        W20445  14.480   5.876  11.509 -0.0343  0.0068 -0.0104
 2922W        W20446   6.072   1.377   4.846 -0.0529  0.1305  0.0471
 2923W        W20447   7.809  13.021   3.602 -0.2229 -0.1593 -0.0775
 2924W        W20448   7.227   8.211  14.530  0.0510 -0.0743  0.1350
 2925W        W20449  17.912   0.958  13.550 -0.5366  0.5101 -0.0988
 2926W        W20450   8.087  11.673  13.487  0.0363 -0.1836  0.1302
 2927W        W20451   8.845   2.217   4.435  0.2609  0.0803  0.1444
 2928W        W20452   9.676   5.846  13.166 -0.0441  0.0854  0.1845
 2929W        W20453   4.329   9.112   3.054  0.0367  0.0582  0.1429
 2930W        W20454   1.044  14.103  11.250 -0.1361  0.1509  0.2123
 2931W        W20455  12.298   2.162   1.754  0.2993 -0.0998 -0.0877
 2932W        W20456   3.390   1.611  11.223  0.0659  0.0657 -0.1816
 2933W        W20457   4.013   7.762  14.350 -0.2235 -0.0574 -0.2900
 2934W        W20458   2.577  10.714  13.081  0.1064  0.0612 -0.0332
 2935W        W20459  13.156   2.418  14.135 -0.3380 -0.0500 -0.1014
 2936W        W20460   2.145  16.126   2.828 -0.2665  0.3556 -0.0795
 2937W        W20461   4.152  11.725  12.582  0.2509  0.2878 -0.1248
 2938W        W20462  17.527  14.191   0.224 -0.0937  0.2973 -0.0762
 2939W        W20463  15.839  12.739   4.663  0.2652 -0.0341 -0.0349
 2940W        W20464   1.976   9.898   2.417  0.0035  0.0301 -0.3428
 2941W        W20465  14.909   2.732   3.444  0.1959 -0.2323 -0.3669
 2942W        W20466   4.001   0.708  13.101  0.1680 -0.1131 -0.1748
 2943W        W20467   5.860   7.178  11.070  0.0698 -0.2229 -0.1125
 2944W        W20468   3.906   4.070   0.262  0.2587  0.2113  0.2467
 2945W        W20469   5.341   6.782   5.152  0.1302  0.1347 -0.3015
 2946W        W20470  10.363   2.992  14.650 -0.0360 -0.1401  0.1399
 2947W        W20471  10.591  11.252   2.991 -0.2631  0.1434 -0.1127
 2948W        W20472  13.937  10.837  14.409  0.0076 -0.0484  0.2142
 2949W        W20473   8.732   3.460   0.447 -0.0759  0.0137  0.0803
 2950W        W20474   4.155   6.364   4.728 -0.0358  0.2484 -0.0850
 2951W        W20475  14.195   5.704   0.981  0.0720 -0.2587 -0.1551
 2952W        W20476  12.558  10.333   2.321  0.1952  0.2022 -0.4425
 2953W        W20477   5.322   4.967   3.385  0.2300 -0.0563  0.3152
 2954W        W20478   5.471   9.177  13.587  0.1316  0.2418  0.1064
 2955W        W20479  12.616   7.681  14.819  0.3118  0.0692 -0.0338
 2956W        W20480   9.968   4.354   2.834  0.3816  0.1086 -0.0409
 2957W        W20481  12.718   4.883   3.138  0.0509  0.3566  0.0288
 2958W        W20482  12.502  17.466  12.841  0.3201 -0.0599  0.2345
 2959W        W20483   8.634  16.240  16.083 -0.0294 -0.0342  0.1379
 2960W        W20484  13.922  11.857   2.132 -0.5651 -0.0165  0.0814
 2961W        W20485  14.618   4.377  13.229 -0.0047 -0.1072 -0.0280
 2962W        W20486   9.362  10.099  14.000 -0.0009  0.0311 -0.1558
 2963W        W20487  10.586  14.249   2.825 -0.0996  0.0983 -0.1824
 2964W        W20488   0.172   8.572   4.228  0.1727 -0.1741 -0.2291
 2965W        W20489  10.126   7.119   1.840 -0.1659 -0.3290 -0.2233
 2966W        W20490  17.896  12.469   4.518 -0.2886  0.1827  0.0466
 2967W        W20491   7.606  14.697  13.342  0.0547  0.0439 -0.2646
 2968W        W20492   3.465  15.492  11.372  0.0044 -0.1525 -0.2548
 2969W        W20493   8.528   7.894   0.219  0.0114 -0.4254  0.0105
 2970W        W20494   8.742   8.096  14.920  0.2117  0.1403 -0.3589
 2971W        W20495  16.169   9.515   2.621 -0.0364 -0.0548  0.1873
 2972W        W20496  16.257   9.324   1.051 -0.1287  0.0925 -0.0996
 2973W        W20497   6.483  16.371  13.798  0.1539  0.2511 -0.2250
 2974W        W20498   7.885   0.340  11.496 -0.0864  0.0681  0.1425
 2975W        W20499   3.324  11.574  14.565 -0.0869 -0.0229 -0.1789
 2976W        W20500   7.616   4.858   2.673 -0.0394 -0.1094  0.1644
 2977W        W20501   1.457   3.868  12.576 -0.1108 -0.1400  0.2526
 2978W        W20502   9.445  17.033  11.932 -0.0005  0.2406  0.1268
 2979W        W20503   6.287   1.067   0.010  0.0126 -0.2573 -0.0577
 2980W        W20504  15.844   9.608   1.742 -0.2000 -0.2982  0.1028
 2981W        W20505   1.795  10.945   5.108 -0.0267  0.0331  0.1335
 2982W        W20506  10.385  14.462  13.654 -0.3242  0.0571  0.1869
 2983W        W20507  15.986   2.424   4.388  0.2008  0.2360 -0.2934
 2984W        W20508  14.450  10.361  14.171 -0.2771  0.1100 -0.0234
 2985W        W20509  15.499   2.478   0.370  0.1437  0.1069 -0.1601
 2986W        W20510   4.553  13.826  12.048 -0.0719 -0.0407  0.1348
 2987W        W20511  15.097   4.652   1.101 -0.1349 -0.2356  0.0237
 2988W        W20512   6.499  17.578   3.468 -0.2567  0.1990  0.0657
 2989W        W20513   8.685  10.674   0.186 -0.0341  0.1836  0.3566
 2990W        W20514  17.588   6.957  12.861  0.0791  0.0959  0.1450
 2991W        W20515  10.626   6.918  15.844 -0.0762  0.1784 -0.1425
 2992W        W20516   4.128   3.569   1.863 -0.2581 -0.2478 -0.0740
 2993W        W20517  11.462   7.382  13.532 -0.0115 -0.0144 -0.0631
 2994W        W20518   2.437  16.277   3.908 -0.2649  0.1514  0.1156
 2995W        W20519  16.258   9.760   2.124  0.1979  0.1627 -0.2324
 2996W        W20520  13.968  13.162  11.027  0.0155 -0.2558 -0.2307
 2997W        W20521   8.964  13.186  15.101 -0.0361 -0.0895  0.1023
 2998W        W20522  16.031   9.435  14.662  0.3721 -0.1947  0.0917
 2999W        W20523   8.951   8.779   3.618 -0.0291 -0.1838 -0.3994
 3000W        W20524   8.099  10.322  11.486 -0.0307  0.0774 -0.0521
 3001W        W20525  17.598   4.752   5.480  0.1366  0.1463  0.2390
 3002W        W20526  13.293  15.646  11.672 -0.1136 -0.1788  0.0536
 3003W        W20527   2.814  13.053   0.190 -0.3635  0.2061  0.0396
 3004W        W20528   6.519   1.382  15.809  0.0230 -0.1360  0.0916
 3005W        W20529   7.440  16.445  12.061 -0.0552 -0.1694  0.0363
 3006W        W20530   7.943   8.689   5.327  0.5234  0.0313 -0.1384
 3007W        W20531   2.428   4.262   3.785  0.0127  0.1254  0.0065
 3008W        W20532  13.125   8.631  14.134  0.1047  0.0827  0.0542
 3009W        W20533  17.941   8.091  13.090  0.0798 -0.2051 -0.1275
 3010W        W20534  12.077   9.441  16.021  0.0666  0.1326 -0.0809
 3011W        W20535   2.190   1.636  11.689 -0.0193 -0.0946  0.0748
 3012W        W20536  11.680   8.027   3.151 -0.1154  0.0248 -0.0731
 3013W        W20537  14.064   8.463  12.441 -0.3343  0.0384  0.0143
 3014W        W20538  11.920   5.696   3.388  0.0048 -0.0322 -0.1407
 3015W        W20539  15.937  17.991   1.712 -0.1142  0.0402  0.0269
 3016W        W20540  14.260   6.327  13.440  0.0701 -0.1094 -0.1270
 3017W        W20541  14.604  14.179   1.768  0.1813  0.2118  0.1027
 3018W        W20542   9.508  11.378  14.623 -0.1566 -0.0676 -0.1138
 3019W        W20543  15.094  12.043  13.885  0.0029 -0.0461 -0.2474
 3020W        W20544  15.118   2.830   0.173  0.3157  0.0445  0.2677
 3021W        W20545  15.695  17.579   1.534 -0.0487  0.0227  0.3510
 3022W        W20546   2.917   9.317   1.936 -0.2138 -0.2920 -0.2608
 3023W        W20547   3.689  10.283  10.114 -0.0134 -0.0527 -0.0042
 3024W        W20548   1.419   7.755   2.851  0.1503 -0.2737 -0.1080
 3025W        W20549  13.313  15.602  16.092 -0.0429 -0.0493  0.0653
 3026W        W20550  13.832   3.164  15.072 -0.1761 -0.1506  0.0403
 3027W        W20551   7.395   9.207  13.419 -0.0472  0.0709 -0.1012
 3028W        W20552  10.766  12.438   1.166  0.0178  0.1472  0.1121
 3029W        W20553   6.129   5.385   4.356 -0.1286 -0.1196  0.3643
 3030W        W20554   5.098  17.527   2.226  0.0391 -0.2951  0.1799
 3031W        W20555   7.768   9.327  14.995  0.4199  0.4499 -0.0562
 3032W        W20556   5.646  18.109   1.672 -0.1136  0.0249 -0.0346
 3033W        W20557  18.182  12.621   4.182  0.1864 -0.1879 -0.0819
 3034W        W20558   2.435   3.051  15.741 -0.1046 -0.1576 -0.3327
 3035W        W20559   4.758  12.359  15.384  0.0775  0.1938  0.2335
 3036W        W20560   0.480  13.263  11.692  0.0498 -0.2502 -0.2064
 3037W        W20561   2.608   8.880  15.078 -0.0788 -0.0794  0.0183
 3038W        W20562   9.381   6.256  13.551  0.1049  0.1883  0.0092
 3039W        W20563  14.318   4.680  11.326 -0.0494  0.0909  0.1118
 3040W        W20564  18.143  17.250   3.119 -0.1733  0.2295  0.0971
 3041W        W20565   7.907   4.516   2.544  0.0117  0.2856 -0.0390
 3042W        W20566  16.084  17.878  11.150  0.1310 -0.1245  0.0693
 3043W        W20567   2.608   9.842   3.062  0.0748  0.1857  0.1260
 3044W        W20568   1.144   4.402   5.409  0.0075  0.2515  0.0165
 3045W        W20569   7.031   0.769   1.121  0.0793 -0.1382  0.0361
 3046W        W20570   8.287  13.376  15.539  0.0854  0.1205  0.0824
 3047W        W20571   5.405  13.966  14.875  0.1687  0.1426  0.0999
 3048W        W20572   7.215  15.441  11.823  0.0256 -0.2218  0.1363
 3049W        W20573  12.186   0.462   3.394  0.1784  0.0475 -0.2735
 3050W        W20574  16.020  16.526   4.552  0.2214  0.1167  0.1998
 3051W        W20575   4.807   3.478  15.182 -0.2843 -0.1819 -0.0627
 3052W        W20576   9.277  10.349   2.606 -0.1288 -0.2350  0.1059
 3053W        W20577  11.264   5.910   0.407  0.0831  0.0733  0.1289
 3054W        W20578   5.582   0.656  14.903 -0.1612 -0.1323  0.2729
 3055W        W20579  16.813   5.577   2.285 -0.0088 -0.2930 -0.4726
 3056W        W20580  10.174   1.993  14.634  0.2484 -0.1436  0.2012
 3057W        W20581  16.319  14.020   0.454  0.1792  0.1891 -0.0517
 3058W        W20582   9.373   3.440   2.020  0.0551 -0.0525 -0.0338
 3059W        W20583   9.804   9.930  13.774 -0.2047  0.3445  0.1775
 3060W        W20584   2.197   2.890  11.840 -0.0455  0.0244  0.0152
 3061W        W20585   2.523  15.608   4.350  0.0256  0.0292  0.1092
 3062W        W20586   1.913   9.192  15.762 -0.1251 -0.1715  0.1013
 3063W        W20587   1.494   9.845  15.421 -0.0719  0.0625  0.3401
 3064W        W20588   1.361   6.480  12.890  0.1097  0.2434  0.2262
 3065W        W20589  13.505  11.338  16.051  0.1879 -0.1050  0.1536
 3066W        W20590  11.532   3.146   5.519  0.4770  0.0250 -0.3663
 3067W        W20591  15.999  15.715   4.108 -0.0060  0.1113 -0.0211
 3068W        W20592  14.732   0.106   0.584 -0.1369  0.2750  0.2535
 3069W        W20593  10.411   1.147  12.358  0.0191 -0.2384  0.1208
 3070W        W20594   3.044   5.639   1.563  0.1988  0.4502 -0.0218
 3071W        W20595   6.250  11.034   2.896 -0.1162 -0.2517  0.0621
 3072W        W20596   6.352   9.618   2.534  0.0739 -0.0347  0.2173
 3073W        W20597  10.010  16.268  14.924  0.0092  0.1432  0.0035
 3074W        W20598   2.069   6.867   2.351  0.1406  0.0359 -0.1051
 3075W        W20599   3.599  11.690  13.448 -0.0625 -0.1008  0.0249
 3076W        W20600   9.914   0.163   0.121  0.0498  0.2566 -0.0483
 3077W        W20601   2.615  16.664  13.661  0.1353 -0.1568  0.0469
 3078W        W20602  15.367  11.451  13.309 -0.0450  0.0500 -0.2094
 3079W        W20603  12.177   5.926  12.612 -0.2296  0.1438  0.1983
 3080W        W20604   7.939   3.225   4.347 -0.2719 -0.0114  0.1837
 3081W        W20605  17.510   0.442   3.462 -0.0349  0.4396  0.2970
 3082W        W20606  16.598   4.802   3.831 -0.0590 -0.1280 -0.1389
 3083W        W20607   3.822   6.137  13.290 -0.0498  0.2177 -0.3873
 3084W        W20608  15.368  10.273  11.758  0.2921  0.3140 -0.2226
 3085W        W20609   8.878   9.598  15.886  0.1491  0.0033  0.1198
 3086W        W20610   5.335   7.054   0.659  0.1258 -0.0506 -0.0010
 3087W        W20611   4.460   5.070   1.527 -0.1007 -0.0042 -0.0953
 3088W        W20612   9.525   3.087   0.899 -0.2858 -0.4612  0.0268
 3089W        W20613   2.628   8.713  15.924  0.0026 -0.2037 -0.0474
 3090W        W20614   3.750  14.116  12.181  0.1144  0.4248  0.1660
 3091W        W20615   0.332   1.772   0.909  0.0455  0.1010  0.1991
 3092W        W20616   1.332   6.672  15.689 -0.2945 -0.1511  0.0344
 3093W        W20617  17.662   7.627   2.392  0.0084 -0.2888  0.0545
 3094W        W20618   4.118   0.684  11.426  0.2152  0.0533 -0.1382
 3095W        W20619   1.860   3.174  14.342 -0.0770 -0.0823 -0.1638
 3096W        W20620   3.736  17.792   4.891  0.1252  0.0017 -0.0431
 3097W        W20621   6.398  13.915   2.978 -0.1095 -0.0976  0.1545
 3098W        W20622  14.339   8.148  13.749 -0.1909  0.0769 -0.0870
 3099W        W20623   5.513  14.209  12.616  0.0255  0.1530 -0.2006
 3100W        W20624   9.151   5.790  13.626 -0.3245  0.5900 -0.0893
 3101W        W20625   4.462  15.749   3.211 -0.1373 -0.0465 -0.1809
 3102W        W20626   8.104  11.415  11.805  0.2170  0.1626 -0.1421
 3103W        W20627  11.455  17.125   4.099 -0.1427  0.0010 -0.3595
 3104W        W20628  18.029   1.397   4.887 -0.0958  0.1208  0.1054
 3105W        W20629  14.201  14.076  12.439  0.2758 -0.1918 -0.0978
 3106W        W20630   9.573   0.230  11.779  0.0498 -0.2040  0.3229
 3107W        W20631   5.615   4.641   5.621 -0.1590  0.1120  0.0953
 3108W        W20632   2.831   1.005   1.944  0.0894  0.2579 -0.2022
 3109W        W20633   8.627   2.766  11.853 -0.1928 -0.0543  0.1233
 3110W        W20634  17.950   0.730  14.993 -0.1275  0.2091  0.2717
 3111W        W20635  11.758   5.397   5.280 -0.2197 -0.2989 -0.1905
 3112W        W20636   2.821  14.939   5.198 -0.0821  0.0731  0.0420
 3113W        W20637  17.960   9.132  11.214  0.0377  0.0936 -0.0508
 3114W        W20638  10.864  12.148  10.990  0.2612 -0.0497  0.1006
 3115W        W20639   8.317   5.102   2.918  0.0700 -0.1499  0.3432
 3116W        W20640  16.920   2.134  15.018  0.1094 -0.2086 -0.1759
 3117W        W20641   1.073   4.568   4.356  0.0974 -0.0148 -0.0869
 3118W        W20642  16.777   7.683  14.902  0.0312  0.0479  0.3917
 3119W        W20643   6.026   1.528  11.197  0.2464  0.0277  0.0330
 3120W        W20644   2.060   9.936  12.248 -0.0173 -0.1541 -0.1943
 3121W        W20645  13.347  10.398   3.318  0.0549 -0.1734 -0.2165
 3122W        W20646  13.371  15.412   6.235 -0.0048  0.0075 -0.1849
 3123W        W20647   0.858   5.485   1.591 -0.1231 -0.3205 -0.1482
 3124W        W20648  15.008  18.140   4.141 -0.1289 -0.2529  0.1254
 3125W        W20649  16.013  13.017  15.847 -0.1201  0.2074 -0.2192
 3126W        W20650  15.722   9.367   2.782 -0.1843 -0.2359 -0.2504
 3127W        W20651  10.234   9.889  14.089 -0.1401 -0.0003 -0.1481
 3128W        W20652   7.661  11.888  14.772  0.3062  0.1567 -0.0215
 3129W        W20653   4.231   7.437   4.959 -0.3282  0.2099  0.0308
 3130W        W20654  16.325  18.090  10.758  0.0713  0.1240  0.0386
 3131W        W20655   9.299   9.028   1.670 -0.0146  0.1351  0.0399
 3132W        W20656  11.612  15.610   2.399  0.2110 -0.3086 -0.2491
 3133W        W20657   7.433   3.159   4.269  0.1485 -0.2222 -0.2487
 3134W        W20658   1.946  12.418   0.871 -0.1567  0.1162 -0.2276
 3135W        W20659   6.243  18.048  12.781 -0.0242 -0.1757  0.2205
 3136W        W20660   9.892   3.361   1.201  0.2183 -0.1979  0.2654
 3137W        W20661   9.837   8.887   0.595  0.2102  0.2270  0.0928
 3138W        W20662  11.231  12.185   3.424 -0.1617 -0.1883 -0.1736
 3139W        W20663   9.483  10.308   4.921  0.2027  0.0658  0.0894
 3140W        W20664  18.125   9.352   3.585  0.0626  0.1316  0.1846
 3141W        W20665   5.655   4.069   3.136  0.1492 -0.2739  0.4509
 3142W        W20666  15.365  10.433  15.985 -0.0344 -0.0986 -0.0804
 3143W        W20667  13.247   8.899  13.741 -0.1081 -0.0640  0.0092
 3144W        W20668  10.037   6.527  12.669 -0.1171  0.1972 -0.0977
 3145W        W20669  17.566  10.436  12.117 -0.1533 -0.5506  0.0251
 3146W        W20670  10.724   2.800   3.782 -0.1572 -0.5790 -0.3956
 3147W        W20671   9.782   2.014   1.694 -0.0877 -0.1801 -0.1191
 3148W        W20672   3.613  18.020  11.828  0.0509  0.2191 -0.1115
 3149W        W20673   0.932  11.853   3.758  0.1499 -0.0062 -0.1143
 3150W        W20674   6.309  12.288   4.742  0.1294  0.2837 -0.1436
 3151W        W20675   2.479   4.341  13.629 -0.1873  0.2069 -0.0881
 3152W        W20676   3.095   0.192   0.199  0.0656  0.3795 -0.0581
 3153W        W20677  12.879   2.719   3.297  0.2098 -0.3002  0.1801
 3154W        W20678   9.821   9.126   1.485 -0.0534 -0.0831 -0.2257
 3155W        W20679   4.739   9.240   4.975  0.1237 -0.2963  0.0173
 3156W        W20680   7.535   3.798  14.480  0.0152 -0.2577 -0.0494
 3157W        W20681   6.164   4.682   2.512 -0.0119  0.2291 -0.4230
 3158W        W20682   9.204   4.549   1.971  0.0039 -0.3186  0.2037
 3159W        W20683   5.428  12.955   3.058 -0.4130 -0.3648  0.1707
 3160W        W20684   7.097   3.732  14.809  0.2601 -0.0319 -0.0348
 3161W        W20685   0.548  10.143  13.067  0.0699 -0.1046 -0.1477
 3162W        W20686  12.169   0.928  16.022  0.0537  0.1337 -0.1530
 3163W        W20687  14.119   6.676   2.668 -0.0990 -0.1008 -0.3124
 3164W        W20688   2.920   6.038   0.016 -0.0285 -0.2364  0.2567
 3165W        W20689   9.635   8.029  12.947  0.0885 -0.1744 -0.4426
 3166W        W20690  17.962   8.415  14.502  0.2224  0.2061  0.4671
 3167W        W20691  18.139   9.871   3.641  0.1373  0.0883 -0.0229
 3168W        W20692  13.468   3.116  15.937  0.0264 -0.0272  0.0675
 3169W        W20693  15.240   6.223   2.029  0.1907 -0.2667  0.0631
 3170W        W20694  15.906  14.090   2.727  0.1594  0.0740  0.3269
 3171W        W20695   3.181  14.730   2.747  0.7130 -0.0873 -0.0159
 3172W        W20696  16.723   4.647   1.214 -0.0437 -0.1552 -0.2182
 3173W        W20697  17.646   2.410   4.322 -0.0806  0.2148 -0.2698
 3174W        W20698   3.020  11.158   4.548 -0.0029 -0.0627  0.0333
 3175W        W20699   8.547   6.042  14.460  0.2250  0.0757 -0.4325
 3176W        W20700   3.505   6.875   5.120  0.0918 -0.0681  0.0707
 3177W        W20701   9.518   3.171   2.442 -0.0646  0.0871  0.1389
 3178W        W20702   6.694  10.830  11.728 -0.0973  0.2157  0.1328
 3179W        W20703  16.676   6.807  15.967 -0.0760  0.0243  0.0166
 3180W        W20704   0.198  11.549  10.856 -0.1639  0.0204  0.3125
 3181W        W20705   7.068  11.400  15.877  0.1027  0.0369 -0.1494
 3182W        W20706   7.508  16.293  12.566  0.0520  0.0238  0.0604
 3183W        W20707  11.537   5.756  11.390  0.1826  0.1031 -0.0564
 3184W        W20708  12.149   6.439  12.492 -0.1300  0.2741  0.2525
 3185W        W20709   9.786  14.967   0.670 -0.1705 -0.1902  0.0975
 3186W        W20710  18.021  16.359   2.448 -0.0472  0.3668 -0.2323
 3187W        W20711   6.876   9.162  13.614  0.1886  0.1794  0.2927
 3188W        W20712  12.453  16.160  14.264 -0.0284 -0.1485  0.0387
 3189W        W20713   3.586  10.519   1.875 -0.3802 -0.0292 -0.1677
 3190W        W20714  11.409   0.190   3.708 -0.0162  0.0675  0.2338
 3191W        W20715   7.681   6.808  15.649 -0.1017 -0.1643 -0.1747
 3192W        W20716  14.536   8.116   0.365 -0.0893 -0.3656  0.3598
 3193W        W20717   4.693   2.787   1.818 -0.1129  0.0347  0.2587
 3194W        W20718  13.116   4.690   2.139  0.0961 -0.0078  0.1521
 3195W        W20719  16.341   8.530  15.230  0.0936 -0.1659  0.1755
 3196W        W20720   3.145   3.108   3.776  0.0677  0.0421  0.0394
 3197W        W20721  16.264   0.924  14.344 -0.1084 -0.0715 -0.3918
 3198W        W20722   7.391   1.662  11.458 -0.0497 -0.1403 -0.2341
 3199W        W20723  17.050   8.212   4.964 -0.1403 -0.1206  0.1184
 3200W        W20724   8.917   0.625   1.343 -0.0320  0.2080  0.4767
 3201W        W20725  12.118  18.123   2.030 -0.1441 -0.1067  0.1271
 3202W        W20726  12.034   9.371  14.076 -0.0977 -0.1648 -0.0829
 3203W        W20727   2.775  13.383  15.019 -0.1103 -0.1765 -0.1111
 3204W        W20728  18.008  10.909  11.597  0.0721 -0.0648  0.0977
 3205W        W20729  15.678   5.870  12.477  0.3978  0.0543  0.2665
 3206W        W20730   7.010   2.091   0.316 -0.0283 -0.1015 -0.0055
 3207W        W20731  12.192   4.726  11.815  0.0162 -0.0270 -0.1180
 3208W        W20732  14.903   7.944  12.061 -0.0491  0.2642 -0.1726
 3209W        W20733  13.263   3.535  12.318  0.0089 -0.0875 -0.0685
 3210W        W20734   2.741   5.727   4.940 -0.3185  0.4119 -0.3791
 3211W        W20735  17.325  16.447   4.171  0.1489 -0.5237 -0.0033
 3212W        W20736   3.541  14.166  12.725  0.1319 -0.2771 -0.1609
 3213W        W20737   6.898   6.164  14.209  0.1594 -0.0475  0.0885
 3214W        W20738  12.442  15.441   0.282 -0.1782  0.1509  0.3636
 3215W        W20739   5.577  14.598   0.075 -0.3113  0.0440 -0.2367
 3216W        W20740   5.338   3.183  14.857 -0.2958  0.0701  0.0827
 3217W        W20741  15.861   3.502   0.766  0.1525 -0.1188 -0.3321
 3218W        W20742   3.029   1.891  15.351 -0.0395  0.0374 -0.4450
 3219W        W20743   7.725   6.532  14.985 -0.3642  0.1212 -0.1579
 3220W        W20744  11.869  15.335   3.237  0.1781  0.2299  0.4870
 3221W        W20745  12.115  16.456  14.548  0.1314  0.0697  0.3280
 3222W        W20746  12.007   2.510  15.259  0.1440  0.0123 -0.1033
 3223W        W20747   6.650  16.095  15.766 -0.2012  0.0024 -0.2209
 3224W        W20748  12.016  13.889   2.706  0.1538 -0.2444  0.2555
 3225W        W20749   3.908  13.387   0.321  0.4692  0.1166 -0.2029
 3226W        W20750  16.648  10.672  15.329 -0.0755  0.1145  0.0305
 3227W        W20751  17.098  15.566  14.027 -0.0181  0.2190  0.0680
 3228W        W20752   6.427  11.348  15.532  0.1027 -0.2949  0.0522
 3229W        W20753  17.276   3.410  14.816  0.1022 -0.0365 -0.1877
 3230W        W20754  11.124   7.035  15.852 -0.1432 -0.1208  0.0675
 3231W        W20755  16.825   2.110  13.940  0.0359  0.1464  0.2299
 3232W        W20756  15.008   6.215   2.854  0.1346  0.2175  0.0002
 3233W        W20757   3.389  18.130   1.475  0.0558 -0.1441 -0.2600
 3234W        W20758  11.707  16.614  11.106 -0.1585  0.1974  0.0256
 3235W        W20759  12.205   4.858   3.332  0.1902 -0.0473  0.4055
 3236W        W20760  15.389   2.345  13.322 -0.1784 -0.0654 -0.0362
 3237W        W20761   5.395  12.307  11.897 -0.0688 -0.0110  0.0675
 3238W        W20762   9.926  14.040   3.862  0.0736  0.0334  0.0401
 3239W        W20763   0.109   5.325   3.132 -0.0443 -0.0222 -0.1452
 3240W        W20764   5.577   8.163  15.217  0.1717  0.1311 -0.3019
 3241W        W20765   1.271  13.999  13.053 -0.1441 -0.3931 -0.0496
 3242W        W20766  13.621  12.144   9.952 -0.1204 -0.0795  0.3432
 3243W        W20767   7.026  16.859   2.533  0.0598  0.0199  0.0455
 3244W        W20768  11.571   2.917   2.136 -0.1840  0.2243 -0.0216
 3245W        W20769  15.211   3.159  15.409 -0.1500 -0.1650  0.0151
 3246W        W20770  15.616  17.936  12.247 -0.2473 -0.1570 -0.0650
 3247W        W20771   2.900   7.219  11.961  0.4271 -0.0529  0.0979
 3248W        W20772  15.670  17.208   3.253  0.1370  0.0944  0.1412
 3249W        W20773   1.462  15.149   4.913  0.2596  0.2505 -0.1083
 3250W        W20774  16.456   0.483  13.549 -0.2075 -0.1605 -0.0161
 3251W        W20775  12.550   0.520   0.659 -0.1471 -0.0469 -0.1948
 3252W        W20776   9.254   1.183  11.397 -0.1003 -0.0596 -0.0936
 3253W        W20777   8.238  11.164  15.014  0.0781 -0.0766  0.2587
 3254W        W20778   4.151  13.825  15.577 -0.1050 -0.2695 -0.1508
 3255W        W20779  15.601   9.542  13.603  0.0427  0.1165 -0.1928
 3256W        W20780   8.611   6.694  12.442  0.1625  0.0555  0.3085
 3257W        W20781  14.972  11.558   3.626 -0.0106  0.0102  0.2013
 3258W        W20782  15.238   3.056   2.691 -0.1542  0.4363  0.0088
 3259W        W20783  15.336   5.628   4.968 -0.0937  0.1753  0.2691
 3260W        W20784   0.044   7.350   4.354  0.0238  0.1138  0.1674
 3261W        W20785  16.002  13.385   0.983 -0.1114 -0.0293  0.1343
 3262W        W20786  10.780  11.061  13.748 -0.0722 -0.0923  0.1958
 3263W        W20787   7.029   2.450   3.406  0.0159 -0.4222  0.1284
 3264W        W20788   7.396   8.806  13.740 -0.1010  0.0974 -0.3078
 3265W        W20789  16.915  10.770   3.974  0.1988 -0.0326 -0.1363
 3266W        W20790   9.754   8.403  10.804  0.0157 -0.0452 -0.0465
 3267W        W20791   1.402   8.342  10.998  0.0483 -0.2972  0.0227
 3268W        W20792  10.248  13.603  14.062 -0.0196  0.0767 -0.0788
 3269W        W20793   7.276   5.285   5.631  0.2768  0.1933  0.0770
 3270W        W20794  11.781   5.680   4.480 -0.0071 -0.1579 -0.1803
 3271W        W20795  15.347   9.659   3.668 -0.3101 -0.0283  0.0698
 3272W        W20796   3.558  15.654   0.562  0.2916  0.1454 -0.1255
 3273W        W20797   3.778   5.393   0.916  0.0309  0.0932  0.0096
 3274W        W20798  13.411  17.492   3.146 -0.1473 -0.2110 -0.0529
 3275W        W20799  15.887  15.168   3.297  0.2814 -0.0042  0.0477
 3276W        W20800   2.310   5.469   4.934  0.0232  0.3015  0.0136
 3277W        W20801  12.227   5.735  15.099  0.0769 -0.0116  0.3213
 3278W        W20802  12.287   3.610  11.531 -0.0396 -0.1436 -0.0135
 3279W        W20803  16.848  11.670  14.022 -0.2143 -0.0696  0.2889
 3280W        W20804  13.426   6.293   1.227  0.0062  0.0125  0.0640
 3281W        W20805   4.444   5.895   3.519  0.3037 -0.0665  0.0835
 3282W        W20806  17.725   0.158  14.725 -0.1233 -0.4823  0.3109
 3283W        W20807  13.262  12.722  10.715 -0.0485  0.0776 -0.1552
 3284W        W20808  15.283  16.103   3.404 -0.3443 -0.2482 -0.0681
 3285W        W20809   4.193   2.550  11.569  0.0435  0.0913  0.0646
 3286W        W20810   8.883  11.578  11.408 -0.4680 -0.1544 -0.1264
 3287W        W20811   3.066   5.315  13.320  0.1043  0.0277  0.2157
 3288W        W20812  17.645   9.109  15.392  0.0117 -0.3991 -0.2003
 3289W        W20813   0.931   0.997  15.242 -0.1229 -0.0273  0.0309
 3290W        W20814  12.017   4.493   2.850 -0.0237  0.3618 -0.4160
 3291W        W20815  14.555  17.529  14.298  0.2646 -0.2513 -0.0225
 3292W        W20816   1.027  16.544  12.936 -0.0336  0.0311 -0.1248
 3293W        W20817  11.796  11.512   4.813 -0.1798 -0.4831  0.0166
 3294W        W20818   5.384   7.713   2.818  0.0304  0.1742 -0.1446
 3295W        W20819   7.047  14.848   2.047  0.0108 -0.3585 -0.0897
 3296W        W20820  17.437   1.922   4.479  0.2414  0.1136  0.1151
 3297W        W20821  12.982   6.975   0.855 -0.0128  0.1645  0.0784
 3298W        W20822   3.617   5.322  14.575 -0.3425  0.3086  0.0813
 3299W        W20823  10.292   7.138   5.838  0.1142 -0.2902  0.0698
 3300W        W20824   5.790   8.267  14.387  0.4694 -0.2713  0.2388
 3301W        W20825   4.510   5.989  11.447  0.0622  0.0632  0.1583
 3302W        W20826   8.546   7.531  15.273  0.1194  0.1822 -0.0289
 3303W        W20827  15.389   0.086  14.318 -0.0593  0.0237  0.0347
 3304W        W20828   7.623  17.656  14.428 -0.2414 -0.2609  0.0763
 3305W        W20829   6.578   7.802   4.234  0.3683  0.1570  0.0951
 3306W        W20830   0.479  11.781  12.391 -0.0703 -0.0856  0.0542
 3307W        W20831   5.984  17.709  11.764  0.0641  0.0465  0.0682
 3308W        W20832   7.020   5.088  13.973  0.0991 -0.0208  0.1338
 3309W        W20833  12.744  15.860   0.681 -0.1591 -0.0020  0.2748
 3310W        W20834  10.692   2.290  13.807  0.1047 -0.0930  0.3096
 3311W        W20835   3.288  15.887   2.270  0.0099 -0.0883 -0.0416
 3312W        W20836  14.494  17.548  12.512  0.1747  0.3521  0.0202
 3313W        W20837   2.198   3.283   3.676  0.0859  0.0437 -0.2173
 3314W        W20838  15.710   1.531   4.882  0.0126 -0.1469  0.1024
 3315W        W20839   4.252   6.285  15.394  0.0050 -0.2024  0.1703
 3316W        W20840   6.444  12.769  15.680 -0.0147 -0.1660  0.0901
 3317W        W20841  11.247  12.443  11.025  0.0333  0.2220 -0.0083
 3318W        W20842   7.245  15.097   2.621  0.2170  0.1182  0.0509
 3319W        W20843   9.220   8.549   2.967 -0.0049 -0.0951 -0.0058
 3320W        W20844   9.089  16.087   0.892  0.1927 -0.1843 -0.0209
 3321W        W20845   3.883   1.126  12.180 -0.0295  0.0355 -0.0749
 3322W        W20846  10.978   6.361   2.122 -0.0975  0.2620  0.0175
 3323W        W20847   1.970  18.087  11.407  0.1184 -0.0981  0.1662
 3324W        W20848   0.185   2.549   3.613  0.3214 -0.2563  0.0506
 3325W        W20849  12.540  17.802   4.068 -0.3987 -0.0292  0.0117
 3326W        W20850   1.932   8.623  15.236 -0.1753 -0.2052  0.0267
 3327W        W20851  15.995  14.312  12.100 -0.1835  0.3907  0.0555
 3328W        W20852   0.666   6.774  15.166 -0.2171 -0.0163  0.2314
 3329W        W20853  17.147   0.721   4.262 -0.1471  0.1153 -0.0436
 3330W        W20854  10.410   0.916  15.478  0.0407 -0.0991 -0.1271
 3331W        W20855   3.361   5.083   9.923 -0.1972 -0.0524  0.1308
 3332W        W20856  10.035   7.050  12.845 -0.2524  0.2706 -0.3028
 3333W        W20857   5.444   1.830   3.559  0.1761  0.0073  0.1596
 3334W        W20858   0.159  18.057   1.542 -0.1513 -0.2628 -0.1019
 3335W        W20859  14.747   9.203   2.649 -0.0667  0.3044 -0.1840
 3336W        W20860  15.776   5.938   3.785 -0.2001 -0.0494 -0.0241
 3337W        W20861   3.900  17.159  13.668  0.2125  0.0435  0.0751
 3338W        W20862   8.168   2.020  15.322 -0.1589 -0.0589  0.0984
 3339W        W20863  17.336   3.934   2.358  0.1282 -0.0562  0.0007
 3340W        W20864   0.396  12.197   0.698  0.5167  0.1822 -0.0146
 3341W        W20865   1.512   8.344   2.927 -0.0231  0.1676 -0.3347
 3342W        W20866   6.229   6.190  12.140  0.0431  0.1294 -0.1366
 3343W        W20867  14.137  10.284   0.368  0.4701 -0.1231  0.2966
 3344W        W20868  16.844  12.184  12.303  0.3936 -0.1981  0.0343
 3345W        W20869   4.523   8.413   2.032 -0.2129  0.2175 -0.0250
 3346W        W20870   2.581  14.701   4.477  0.1219 -0.0351  0.0645
 3347W        W20871  11.459  12.919  11.285  0.0303  0.0390 -0.0422
 3348W        W20872   9.266  17.650   3.896  0.1213 -0.3280  0.0411
 3349W        W20873   8.919   5.585  14.420 -0.4164 -0.0955  0.3036
 3350W        W20874   5.244  17.268   1.345  0.2500 -0.2015 -0.0970
 3351W        W20875   8.178  14.746  15.415 -0.1220 -0.0730  0.1897
 3352W        W20876   6.137  16.538   3.964  0.1737  0.3441 -0.1571
 3353W        W20877   1.845   0.924   0.355  0.1239 -0.1624  0.3711
 3354W        W20878   6.215   3.810  12.694 -0.0648  0.0607 -0.0062
 3355W        W20879  16.714   3.919   5.230 -0.1987  0.0172 -0.0204
 3356W        W20880   7.706   7.508   3.598 -0.0514  0.1792 -0.0445
 3357W        W20881   2.997   1.925   4.408  0.2287 -0.2710  0.0126
 3358W        W20882   3.157  17.720   3.131 -0.1237  0.1875 -0.1157
 3359W        W20883  11.828   1.171   3.488 -0.1760 -0.1494  0.1771
 3360W        W20884   9.475   8.873   2.559 -0.0092  0.0320 -0.0362
 3361W        W20885   7.422  11.879  12.974  0.0980 -0.0982  0.1535
 3362W        W20886  16.343   5.488   2.536 -0.0306 -0.1368 -0.2571
 3363W        W20887   8.613   8.242   3.617  0.3587 -0.3280  0.0229
 3364W        W20888  12.916   6.240   3.055  0.2814 -0.0288 -0.2705
 3365W        W20889  17.405   1.232   4.893  0.1453  0.0423 -0.0269
 3366W        W20890   2.213   5.248  13.061 -0.1938  0.1670  0.2906
 3367W        W20891  14.122  14.868   4.198  0.0214 -0.2135  0.0444
 3368W        W20892   2.189   5.076   5.213  0.1906  0.0151  0.1742
 3369W        W20893   5.876  11.017   2.185  0.2144  0.0626  0.2287
 3370W        W20894   6.856  15.998   0.218  0.1744  0.0273  0.0508
 3371W        W20895   0.688  15.725  11.353  0.0214  0.0540  0.1274
 3372W        W20896   3.090  17.918  12.699  0.0800 -0.3792 -0.1472
 3373W        W20897  11.451   2.777   0.763 -0.0209  0.1347 -0.3508
 3374W        W20898   2.328   6.216  12.935 -0.1913  0.0204  0.0000
 3375W        W20899   1.498  17.486   2.200 -0.1290  0.2398  0.1664
 3376W        W20900  12.136  11.809   2.203 -0.0920 -0.5045 -0.2710
 3377W        W20901  10.627  17.738   3.815 -0.0920 -0.2473  0.3803
 3378W        W20902   9.267   2.496   4.419  0.1646  0.2498 -0.0464
 3379W        W20903  17.277   7.895   6.027  0.1088  0.0695 -0.0595
 3380W        W20904  17.255   0.077  11.174 -0.1099  0.0659 -0.1851
 3381W        W20905  10.043   2.650   0.664  0.2430  0.0544  0.2910
 3382W        W20906  10.133   8.287   3.445  0.0591 -0.0644  0.2286
 3383W        W20907   8.209   7.721   4.774  0.1233 -0.2151  0.0397
 3384W        W20908  11.971   8.335  11.587 -0.1528  0.0319  0.0560
 3385W        W20909   4.095   2.222   0.145  0.3104  0.4314 -0.1178
 3386W        W20910   6.144  17.433   3.890  0.2212  0.0528  0.0148
 3387W        W20911  12.952  16.043  14.052  0.1485  0.1426 -0.0584
 3388W        W20912  16.331   6.620   2.497 -0.2859 -0.1302  0.0149
 3389W        W20913  11.045  15.427  15.271 -0.2260  0.2086  0.0150
 3390W        W20914   3.357   0.668  12.889 -0.1890  0.1497  0.3141
 3391W        W20915   9.526  12.868  15.940 -0.2103 -0.0538 -0.0768
 3392W        W20916  12.487  13.495   3.974  0.0613 -0.0992 -0.1857
 3393W        W20917  18.132   9.747   2.658 -0.0411 -0.3033  0.0947
 3394W        W20918   7.291  17.992  13.046  0.2935  0.6483 -0.2310
 3395W        W20919   0.630   0.347  12.779 -0.0024 -0.0048 -0.0439
 3396W        W20920  15.423   8.609  13.770 -0.2132  0.1345  0.0181
 3397W        W20921   4.773  12.134  11.299  0.0416  0.0948 -0.0124
 3398W        W20922  10.760  10.622   3.849 -0.0022 -0.0699 -0.0362
 3399W        W20923   8.400   2.470  10.104 -0.0606 -0.2396  0.1347
 3400W        W20924  17.734   2.151  11.048  0.2006  0.0986 -0.0767
 3401W        W20925   8.217  10.461  10.980 -0.0372  0.0594 -0.2072
 3402W        W20926   4.173   6.337   3.518  0.4947  0.1711 -0.3918
 3403W        W20927   9.441   1.907  10.462  0.1356 -0.1075  0.3721
 3404W        W20928   3.163   5.093  13.887  0.0035 -0.0350 -0.1294
 3405W        W20929  13.641  12.125  15.517 -0.2276 -0.1707 -0.0831
 3406W        W20930   1.674   3.198  15.392  0.0626 -0.1255 -0.0774
 3407W        W20931   1.513  12.332  15.672  0.0702 -0.0705 -0.1229
 3408W        W20932  13.416   3.572   0.155  0.1533 -0.1801 -0.0294
 3409W        W20933   8.448  11.368   2.049 -0.0429 -0.2447 -0.4321
 3410W        W20934   6.285  10.305  13.073  0.1090  0.1033 -0.3634
 3411W        W20935   7.337   5.476  14.765 -0.0622 -0.2266  0.1662
 3412W        W20936   3.222   1.054   3.182  0.0546 -0.0285  0.1627
 3413W        W20937   2.592  13.246  13.513  0.1067 -0.0331 -0.1033
 3414W        W20938  17.437  12.723   1.401  0.1763 -0.1631  0.1412
 3415W        W20939  12.348  11.172   0.948  0.0789 -0.3695  0.0805
 3416W        W20940  15.225   9.552  15.973  0.1911 -0.2496 -0.1003
 3417W        W20941   1.067  15.435   2.345  0.3488 -0.0387  0.2260
 3418W        W20942  14.688  13.841   1.336  0.1622  0.0620 -0.0593
 3419W        W20943  12.599   6.789   2.043  0.0066  0.0090 -0.3322
 3420W        W20944   7.259   4.322   1.119  0.0931 -0.0719 -0.0430
 3421W        W20945   2.269   2.101   3.899  0.5212  0.1732  0.0097
 3422W        W20946   2.985   3.000  10.977  0.2823  0.0660 -0.2107
 3423W        W20947  16.940  13.900   5.409 -0.3812  0.1722 -0.1637
 3424W        W20948   0.867  15.813  13.095 -0.2873  0.0189  0.1006
 3425W        W20949  14.696  16.825   2.807  0.1335 -0.1996  0.2281
 3426W        W20950   1.224   4.761   0.896 -0.0764 -0.1020 -0.0072
 3427W        W20951  17.314  18.186   1.303 -0.1249 -0.2885  0.1509
 3428W        W20952  12.981  11.276  15.477 -0.0738 -0.1274  0.1129
 3429W        W20953   9.701  14.781   2.857 -0.0897  0.0630  0.2552
 3430W        W20954  12.717   3.761  13.636 -0.1381 -0.1112  0.0024
 3431W        W20955   0.999   5.361   4.353 -0.0318 -0.2216 -0.1233
 3432W        W20956   9.132  16.589   0.689  0.0554  0.0210  0.0605
 3433W        W20957   7.722   5.921  16.011 -0.1342 -0.2657  0.1077
 3434W        W20958  13.286   1.215   0.244 -0.0337  0.0835  0.0082
 3435W        W20959  10.885   2.032  13.403  0.1292  0.1299 -0.2382
 3436W        W20960  17.027   3.383  13.064 -0.2765  0.2293 -0.4966
 3437W        W20961  15.364  15.195  15.873 -0.0765 -0.1323  0.0372
 3438W        W20962  14.846   9.809  11.633  0.2222 -0.0273  0.4489
 3439W        W20963   7.034  17.304  13.876  0.0960 -0.3755 -0.1338
 3440W        W20964   8.442  13.796  11.952  0.0070 -0.0280 -0.0216
 3441W        W20965  11.792   8.417  14.977 -0.3852  0.0382 -0.2128
 3442W        W20966  12.168   1.241   1.701  0.0832  0.0086  0.1274
 3443W        W20967  11.181  16.940   4.967 -0.1726 -0.0680 -0.3404
 3444W        W20968  14.390   7.757   4.508  0.2237 -0.0680 -0.2227
 3445W        W20969   9.605  12.460   1.871 -0.1100 -0.3242 -0.0005
 3446W        W20970  11.267  14.194  13.284 -0.0100 -0.2969 -0.0909
 3447W        W20971  13.222   3.728   4.686  0.0524  0.1004  0.2834
 3448W        W20972  10.855  15.370   2.434  0.2160  0.1521  0.3832
 3449W        W20973   0.491  16.395  15.085 -0.0051  0.2882 -0.1556
 3450W        W20974  16.660  13.309   3.677 -0.1362  0.3368 -0.0194
 3451W        W20975   4.322  16.119  13.208  0.2395 -0.0909  0.0104
 3452W        W20976  13.864   8.206  11.110 -0.0758 -0.0790  0.1471
 3453W        W20977   6.539   1.745   2.498  0.3130 -0.2908 -0.1555
 3454W        W20978   4.083   0.809   1.738 -0.4010  0.2233 -0.4304
 3455W        W20979  18.023  17.527   4.159 -0.3076 -0.2103  0.0169
 3456W        W20980  18.022  14.023   0.278 -0.1879 -0.3434 -0.0353
 3457W        W20981  14.221   3.684  14.307 -0.3957 -0.1522 -0.0935
 3458W        W20982   9.292   9.623  15.019  0.1327 -0.1372  0.0749
 3459W        W20983   5.506  14.665  12.304  0.2515  0.0421  0.3629
 3460W        W20984  15.063   5.987  13.856 -0.1679  0.2140  0.0423
 3461W        W20985   6.598  15.679   4.367  0.4056  0.1143  0.1293
 3462W        W20986  12.005  15.691   0.629 -0.0487 -0.2131  0.0336
 3463W        W20987   2.159   6.843   4.985  0.0532 -0.1886 -0.0178
 3464W        W20988  17.756   2.337   0.323 -0.0223 -0.0206 -0.3661
 3465W        W20989  12.094   6.680   2.101  0.1984  0.2542  0.0996
 3466W        W20990  15.698  17.511   3.864  0.1084 -0.3168 -0.3071
 3467W        W20991  13.763  11.167   0.780  0.1333  0.1231  0.1120
 3468W        W20992   3.293   2.555   4.893  0.1965  0.3839 -0.2749
 3469W        W20993  15.295  16.244  13.883  0.0705  0.1650 -0.1851
 3470W        W20994  13.616  13.128  12.425  0.1390  0.0102 -0.0482
 3471W        W20995  10.897  13.028  12.275 -0.1457  0.1066 -0.2987
 3472W        W20996  11.668  17.693  14.068  0.0694  0.2114 -0.4945
 3473W        W20997   4.643   4.775  13.624  0.0261 -0.2380 -0.2212
 3474W        W20998   4.077  13.679  12.157 -0.0399  0.2424  0.4456
 3475W        W20999   7.640  17.396  14.030 -0.0884  0.2001  0.1897
 3476W        W21000   6.896   5.593  11.586 -0.2819  0.1663 -0.0565
 3477W        W21001  13.644   7.058  14.491 -0.1168  0.1280 -0.1603
 3478W        W21002   6.559   0.134   1.582  0.1158  0.1094  0.1019
 3479W        W21003  12.545  11.795  11.948 -0.0708 -0.1286 -0.1461
 3480W        W21004   5.356   8.435  11.400  0.2975  0.2061 -0.1501
 3481W        W21005  16.663   6.107   3.165  0.4147 -0.0474 -0.1791
 3482W        W21006  13.779   3.464  13.714 -0.0321  0.1649  0.0627
 3483W        W21007   4.952  15.567  11.674 -0.0689 -0.0726 -0.1033
 3484W        W21008  15.636   3.760   2.273  0.0142  0.0988 -0.1047
 3485W        W21009   3.208   5.514   2.298  0.2344  0.0032  0.2772
 3486W        W21010   9.752  11.611  15.945  0.1144 -0.1668 -0.3319
 3487W        W21011  14.778  13.691   1.858 -0.0840 -0.0298  0.1193
 3488W        W21012  15.480  13.757  12.411 -0.1542 -0.0268 -0.2005
 3489W        W21013  12.251   6.337   4.352 -0.1119  0.2590  0.0409
 3490W        W21014   9.995   4.743  14.908 -0.1519 -0.3515 -0.2202
 3491W        W21015   2.606   0.590   1.645 -0.0533  0.2848 -0.0554
 3492W        W21016   4.195  11.187   0.179 -0.2394  0.0740 -0.2572
 3493W        W21017   9.123  14.108  11.245 -0.1031  0.2056 -0.2443
 3494W        W21018  12.978   7.510  12.152 -0.1357 -0.0250  0.2138
 3495W        W21019   9.764  11.085  12.155  0.1348  0.1064 -0.0652
 3496W        W21020   5.573  16.182  11.664  0.0325  0.1833 -0.2656
 3497W        W21021   3.135  16.748  15.311 -0.0939 -0.0083  0.0636
 3498W        W21022   1.243   3.768   0.159  0.1779 -0.1216  0.1312
 3499W        W21023   2.052  14.696   0.511 -0.3591  0.1294  0.0578
 3500W        W21024  12.299   6.964  12.124  0.0561  0.1776 -0.1837
 3501W        W21025   2.732  11.978  13.487 -0.2474  0.0433 -0.0848
 3502W        W21026   3.305   0.671  14.947  0.0429 -0.0234 -0.1097
 3503W        W21027  17.229  17.175  12.748  0.3996 -0.1594 -0.3397
 3504W        W21028   0.472   0.124  12.315  0.0256 -0.1591  0.2206
 3505W        W21029   2.453  11.739   4.874  0.0619 -0.0042 -0.1617
 3506W        W21030  11.461   7.180  12.467 -0.1885  0.2005  0.0432
 3507W        W21031   8.883  16.566  12.354  0.2544 -0.1590 -0.0288
 3508W        W21032  10.046   2.487   4.318 -0.0049  0.1128 -0.0100
 3509W        W21033  13.986   0.963  15.876 -0.0247 -0.2025  0.2263
 3510W        W21034  14.822  14.607   2.501  0.0066  0.0325  0.2838
 3511W        W21035  12.761   7.033  14.699 -0.1021  0.0826 -0.2909
 3512W        W21036   3.039  12.161  13.896 -0.2429  0.0922 -0.2908
 3513W        W21037   7.315  18.192   2.228 -0.1144 -0.0610 -0.0859
 3514W        W21038  14.360   4.338   2.094 -0.0909 -0.2224 -0.2945
 3515W        W21039   8.786  12.709  14.970  0.0423  0.0304  0.0783
 3516W        W21040  11.679  11.927  15.779 -0.4052 -0.0326  0.1891
 3517W        W21041   7.533   5.172  13.077 -0.0172  0.2432  0.1049
 3518W        W21042   9.373  11.217   3.824  0.4539 -0.0872  0.0539
 3519W        W21043  16.384  11.963  15.095  0.2919 -0.2766 -0.3410
 3520W        W21044  17.357   8.692  14.633 -0.1304  0.2312  0.2649
 3521W        W21045   1.024  15.758  14.222  0.3737  0.0410  0.0623
 3522W        W21046  13.894  11.397  11.247 -0.1815 -0.1506  0.1201
 3523W        W21047  14.033   3.273   0.749 -0.3057 -0.0962  0.0079
 3524W        W21048   2.450  12.322   3.714  0.0002 -0.3219 -0.0902
 3525W        W21049   8.787  10.873  12.482 -0.2536 -0.1055  0.1068
 3526W        W21050  11.607   0.420  13.054 -0.1202  0.0117 -0.1399
 3527W        W21051   0.686   2.497   6.173 -0.0288  0.0877 -0.1204
 3528W        W21052   8.369   9.095  10.896  0.2722  0.1748  0.1150
 3529W        W21053  10.332   6.521  12.176 -0.4881 -0.3219 -0.2667
 3530W        W21054   8.766  15.604   0.928 -0.3091 -0.1188 -0.1811
 3531W        W21055   4.655  12.006  15.055 -0.0268 -0.3647 -0.0597
 3532W        W21056  15.264  10.027   2.399  0.0520 -0.0319 -0.0613
 3533W        W21057   9.480   2.399  10.743 -0.1967  0.2219 -0.1293
 3534W        W21058   6.009   5.083   2.195  0.0302  0.0140 -0.0474
 3535W        W21059  15.218  11.583   0.930 -0.2750 -0.5220 -0.0179
 3536W        W21060   0.036  10.898  14.856 -0.2170  0.0493  0.0193
 3537W        W21061  18.101  11.520  14.110  0.0297  0.0478  0.0346
 3538W        W21062   7.864  18.092  10.429 -0.1165 -0.1408  0.3127
 3539W        W21063   4.857   3.761   2.550  0.3469  0.0099  0.0346
 3540W        W21064   2.753  10.634   2.877  0.1686 -0.0258  0.4805
 3541W        W21065   0.157   7.764   4.064  0.0160  0.0881 -0.2875
 3542W        W21066   0.498   0.198   2.260 -0.1157  0.0498 -0.1759
 3543W        W21067   8.732   9.760  12.032 -0.1102  0.0393  0.3918
 3544W        W21068   5.420   3.051  13.641  0.0644 -0.1254 -0.0001
 3545W        W21069  13.183  15.761  15.151  0.0271 -0.2371  0.0602
 3546W        W21070   8.474   6.993   0.830  0.1279  0.1151  0.0289
 3547W        W21071  15.268  11.389   1.364  0.5176 -0.2406 -0.1111
 3548W        W21072   5.761   4.034   3.611 -0.0110 -0.1378  0.0726
 3549W        W21073  11.242  12.389   1.360  0.2751 -0.0285  0.3473
 3550W        W21074   1.873  11.357   4.620  0.0394  0.1326 -0.1792
 3551W        W21075   4.429  10.275  13.539 -0.0704 -0.0760 -0.0224
 3552W        W21076  14.740   2.512  13.380  0.0438 -0.2718  0.0252
 3553W        W21077  14.053  11.320   2.732  0.2135 -0.0979  0.2374
 3554W        W21078  15.464   6.017   0.186  0.0062  0.1261  0.0685
 3555W        W21079  11.945   3.414  15.499 -0.1504 -0.0728 -0.0215
 3556W        W21080  13.739  18.121   4.871 -0.1197  0.0054  0.2882
 3557W        W21081  13.421   9.660   4.823  0.0306  0.1218 -0.2396
 3558W        W21082   7.675   2.591  15.936  0.2873 -0.1423  0.1439
 3559W        W21083   1.023   4.085   1.888 -0.0316  0.0279 -0.1007
 3560W        W21084  11.459  11.412  13.775 -0.1828  0.0231  0.1363
 3561W        W21085  17.305  15.154  16.040 -0.1002  0.0278  0.2020
 3562W        W21086  10.546   6.337   3.126  0.1209 -0.1716 -0.0208
 3563W        W21087   8.174  17.914   0.039  0.1836  0.3413 -0.2915
 3564W        W21088   2.801  18.042   3.300  0.1260 -0.0942 -0.0358
 3565W        W21089   9.951  11.860   1.759 -0.1711  0.1333  0.0920
 3566W        W21090  16.671  15.042  11.919 -0.2241 -0.0624  0.0024
 3567W        W21091  11.946   1.076  12.354 -0.2613 -0.0161  0.1457
 3568W        W21092   6.273   7.802   3.239  0.2438 -0.0613  0.0586
 3569W        W21093  10.863  12.203   4.104 -0.2988  0.2576  0.0783
 3570W        W21094   0.195  17.849   0.094  0.1543  0.1557 -0.0777
 3571W        W21095  10.239   0.401  12.372 -0.1750  0.1038  0.1410
 3572W        W21096   7.000   2.547   3.918 -0.0989  0.1376  0.1987
 3573W        W21097   1.578   2.035  11.157  0.1558  0.2308  0.0588
 3574W        W21098  17.317  17.636  13.624  0.2045 -0.1541  0.0573
 3575W        W21099  13.148  11.811   1.149  0.2052 -0.0370  0.0442
 3576W        W21100  13.830  12.596   1.921 -0.1399 -0.3115 -0.0729
 3577W        W21101   2.322   0.751  15.252  0.0846  0.1349  0.1572
 3578W        W21102  16.144   2.837   1.652  0.1121  0.0767 -0.0619
 3579W        W21103   7.894   8.735  15.020 -0.2164  0.4466 -0.0821
 3580W        W21104   0.870  13.512   4.988  0.0084 -0.1847 -0.2132
 3581W        W21105   3.001   0.672   0.474 -0.2902  0.1116 -0.2031
 3582W        W21106   3.253  11.260   4.137 -0.2079  0.1462  0.4128
 3583W        W21107   1.114   0.777  11.554 -0.1422 -0.2484  0.1317
 3584W        W21108  16.950  10.730  12.030 -0.1843 -0.1106  0.0649
 3585W        W21109   5.735   4.676   5.073  0.0999 -0.1717 -0.0957
 3586W        W21110  15.976   9.075   4.918 -0.1601 -0.1309  0.0415
 3587W        W21111   7.643   8.161   2.500  0.0759  0.1427 -0.1778
 3588W        W21112  16.282   4.272   2.780 -0.0522  0.0579  0.0843
 3589W        W21113   4.676  11.036  11.659  0.3202  0.2072 -0.3653
 3590W        W21114   1.075   9.310  14.431 -0.0527  0.0378 -0.0007
 3591W        W21115  12.619  13.034   2.867 -0.1347 -0.0222  0.3750
 3592W        W21116  13.536   8.208   4.957 -0.1114  0.1934 -0.3756
 3593W        W21117  15.683  10.351  14.900 -0.2359  0.0494 -0.1351
 3594W        W21118   9.825   4.418  12.624 -0.2577  0.0353 -0.0963
 3595W        W21119   9.174   3.578  13.900 -0.1216 -0.1363 -0.1560
 3596W        W21120  14.944  14.625  11.184  0.2043 -0.0231 -0.0481
 3597W        W21121  12.349   3.835  14.310 -0.0687 -0.2657  0.1057
 3598W        W21122   5.357  15.170   0.720 -0.1559 -0.1416  0.1167
 3599W        W21123  10.898   6.296  12.902 -0.2158 -0.0727  0.1209
 3600W        W21124  16.357   0.164  13.108  0.4867  0.0134  0.0514
 3601W        W21125  11.203   0.986  14.964  0.1920 -0.1512 -0.1134
 3602W        W21126  14.733   1.688   1.971  0.0660 -0.1530  0.3396
 3603W        W21127   1.980   8.132  16.007  0.0676  0.2291  0.1979
 3604W        W21128   8.361  16.987   1.878  0.2666  0.1984 -0.2293
 3605W        W21129   5.595   4.875  15.950  0.1977 -0.0027 -0.0559
 3606W        W21130  13.733  16.104   2.875 -0.1212 -0.1166  0.3072
 3607W        W21131   5.472   7.585  15.408 -0.1407  0.0553  0.2936
 3608W        W21132  13.344   3.474   2.896  0.0512  0.0414  0.2600
 3609W        W21133  12.287   1.367  15.726 -0.3757 -0.1160  0.1709
 3610W        W21134   3.642  10.383   4.982  0.1060 -0.0204  0.1774
 3611W        W21135  15.163   9.158  13.883 -0.1356  0.0582  0.0752
 3612W        W21136   1.063   0.046   4.670 -0.1819 -0.0989 -0.1973
 3613W        W21137   5.563  14.354   3.578 -0.0279  0.1656 -0.1081
 3614W        W21138  13.823   9.662   5.163  0.2305 -0.2123  0.0919
 3615W        W21139  15.996  15.832  12.550  0.1855 -0.0187  0.0401
 3616W        W21140   8.073  13.012  11.126  0.0539  0.0355  0.5320
 3617W        W21141  18.041  14.861   1.173 -0.1416 -0.0987 -0.2642
 3618W        W21142  13.296   0.752   1.195  0.0443  0.1015 -0.0395
 3619W        W21143   7.782   4.704  11.972  0.2350  0.0812  0.0984
 3620W        W21144  11.171  11.096  12.135  0.1868  0.2377  0.2035
 3621W        W21145   6.050  17.018   2.965 -0.1260  0.2337 -0.1832
 3622W        W21146  10.063   1.938   2.856 -0.4076  0.0059 -0.1057
 3623W        W21147   9.775  11.954  14.977  0.1216 -0.2237  0.1513
 3624W        W21148   4.282   9.078  10.176 -0.1670 -0.2175 -0.0492
 3625W        W21149  14.460  14.955   1.077 -0.0789  0.2474 -0.0841
 3626W        W21150   2.833   6.733  11.878  0.0774  0.3288 -0.1841
 3627W        W21151  15.410  10.084  12.685  0.1752  0.0066 -0.2755
 3628W        W21152  12.220   9.733  13.130 -0.0910 -0.1008 -0.2411
 3629W        W21153   8.119   8.392   3.286 -0.0396 -0.3030 -0.2162
 3630W        W21154   7.220   2.571  12.483 -0.0002 -0.0670 -0.1641
 3631W        W21155  12.012   0.970  15.565 -0.1012 -0.3051 -0.2242
 3632W        W21156  12.419   4.024  12.495 -0.1449  0.1519 -0.2323
 3633W        W21157  11.751  14.268   4.300  0.2526 -0.0389  0.0430
 3634W        W21158  16.424   9.070  12.444  0.0450  0.2350 -0.2564
 3635W        W21159   2.218   3.308  11.381  0.0869  0.2203 -0.0945
 3636W        W21160  16.203   8.363   4.429  0.2365 -0.1553  0.0260
 3637W        W21161   2.551   7.500  12.143 -0.0761  0.1232  0.2331
 3638W        W21162   1.751  16.398  13.385 -0.0985 -0.1456 -0.0709
 3639W        W21163   9.777  10.661  12.948 -0.0795 -0.0249  0.1041
 3640W        W21164  13.525  11.088  14.396  0.2556  0.1753 -0.3376
 3641W        W21165   7.436   4.302   4.131  0.2031  0.2557  0.0926
 3642W        W21166   3.705   7.209   1.659 -0.0086 -0.1453 -0.5315
 3643W        W21167   4.141   6.374   2.188 -0.1816 -0.0007  0.2514
 3644W        W21168  11.925   6.337   3.112 -0.2401  0.0330 -0.0261
 3645W        W21169   1.748  17.040  11.572 -0.0176 -0.3188  0.1442
 3646W        W21170  15.893  15.495   1.567 -0.1111  0.0555 -0.0651
 3647W        W21171   3.022  14.908  15.227 -0.0472  0.0772  0.0350
 3648W        W21172   9.846   3.255  15.924  0.2246  0.0453  0.0937
 3649W        W21173   4.331  16.560  12.742 -0.0348 -0.0062  0.2182
 3650W        W21174   8.892   9.836  13.170 -0.1151  0.0502 -0.1143
 3651W        W21175   0.462  10.971  14.547  0.1911  0.1678  0.0123
 3652W        W21176   9.921  11.807  11.405  0.2512  0.0364  0.1592
 3653W        W21177  16.919   8.423  15.474  0.2814 -0.2524 -0.1608
 3654W        W21178   4.731   9.592  15.729 -0.1649  0.1990  0.2603
 3655W        W21179   9.448  15.374   0.764 -0.0114  0.2062  0.0730
 3656W        W21180   9.077  15.372   4.136 -0.1398 -0.2396 -0.1331
 3657W        W21181  11.220   7.680  14.849 -0.1120 -0.0688 -0.1790
 3658W        W21182   6.670   5.911  12.067  0.0575  0.0862 -0.0139
 3659W        W21183  13.540   6.551  15.634  0.1483 -0.1642 -0.1515
 3660W        W21184   0.002  12.989   1.091  0.0631 -0.0337  0.0419
 3661W        W21185   6.068   0.364   2.291 -0.2266  0.0061 -0.0650
 3662W        W21186   9.062  10.802  12.911  0.0072  0.1538 -0.1593
 3663W        W21187   4.665   4.920  12.207  0.0502  0.1022  0.3238
 3664W        W21188  16.276  17.433  15.779 -0.1316  0.1389  0.0811
 3665W        W21189   9.558   2.260  15.809  0.1978  0.1313 -0.4158
 3666W        W21190  11.064  14.650  13.552  0.0971  0.4451 -0.1360
 3667W        W21191  12.371   4.446  15.560 -0.0162 -0.0878 -0.0921
 3668W        W21192  10.016   1.482  11.001  0.2474 -0.0988  0.1768
 3669W        W21193   9.840   9.757  13.252  0.2185  0.0620  0.0330
 3670W        W21194   4.306   1.382  14.491 -0.0940  0.1879 -0.1177
 3671W        W21195  10.619   2.503   2.031 -0.4500  0.0768  0.0752
 3672W        W21196  10.999   1.918  15.833  0.0492  0.1008 -0.5596
 3673W        W21197  15.425   1.248  15.674  0.0618  0.2694  0.2665
 3674W        W21198   9.462   3.528   0.614  0.0558 -0.0722  0.0313
 3675W        W21199  12.690  12.326  12.311  0.2052 -0.1886 -0.2423
 3676W        W21200  11.771   1.621  12.171  0.1852 -0.1375 -0.2181
 3677W        W21201   8.236   3.374  12.621 -0.1244  0.2665 -0.0021
 3678W        W21202   8.360  10.324   2.396  0.3443  0.0786  0.0449
 3679W        W21203   4.414  11.271  13.579  0.2079  0.0963  0.2632
 3680W        W21204   4.752   0.037   4.833  0.0980  0.0688 -0.0003
 3681W        W21205   9.009   3.901   4.554 -0.0666 -0.1846 -0.3583
 3682W        W21206  14.050   2.198   5.032 -0.1533  0.2748  0.1287
 3683W        W21207   0.408  15.474  13.084 -0.0068  0.1334 -0.1891
 3684W        W21208   5.806   7.876  10.954  0.1956  0.4663 -0.0083
 3685W        W21209  17.464  12.777  13.906  0.1075 -0.2708  0.1583
 3686W        W21210  14.913   6.851  15.348 -0.2446 -0.2803 -0.0171
 3687W        W21211  10.703   1.993   4.646 -0.0046 -0.2120 -0.0287
 3688W        W21212   4.468  13.626   1.228 -0.4177  0.5029 -0.3552
 3689W        W21213  11.827   0.380   4.498 -0.0219  0.1462  0.2954
 3690W        W21214   1.041   1.273   4.409 -0.0692 -0.0652 -0.2047
 3691W        W21215   9.918  16.393   3.569 -0.2023 -0.2919 -0.1660
 3692W        W21216   7.973  17.507   3.584 -0.0921 -0.2801  0.4196
 3693W        W21217   6.090   3.405  11.201  0.0990  0.0566  0.3123
 3694W        W21218  15.405   9.292   3.231 -0.0750  0.1126 -0.3209
 3695W        W21219   7.028   7.859   2.847 -0.3595 -0.0218  0.2649
 3696W        W21220  12.708  12.656  14.621 -0.0991 -0.3155  0.0094
 3697W        W21221   7.235   2.462  13.763 -0.0671  0.1423 -0.2249
 3698W        W21222   4.561   1.216  12.519 -0.1937 -0.1120  0.0900
 3699W        W21223   3.363   3.421   3.445  0.1485  0.2709  0.2575
 3700W        W21224  13.016  10.605   2.478 -0.0415 -0.1718  0.0660
 3701W        W21225   1.904   9.590  12.598 -0.0336 -0.3029 -0.1623
 3702W        W21226   5.675  15.256  15.115  0.1851  0.2199  0.1698
 3703W        W21227   7.241   1.874   0.704 -0.0794  0.0153  0.0015
 3704W        W21228  15.791   4.478  14.894  0.2395  0.1245  0.0101
 3705W        W21229  11.494   1.956  11.295 -0.3518 -0.0011  0.1369
 3706W        W21230   9.074  15.779  13.309 -0.1834 -0.1013  0.0648
 3707W        W21231  15.718  11.431   0.982 -0.2303  0.3129  0.1830
 3708W        W21232   1.609   8.023   3.812  0.2670 -0.0128 -0.0924
 3709W        W21233  10.313   7.978  14.618 -0.4527  0.0414  0.2649
 3710W        W21234   6.989  13.196   2.919 -0.1075  0.2080 -0.1099
 3711W        W21235   5.076  14.589   3.106  0.2088  0.2698 -0.1121
 3712W        W21236   2.939  11.029  15.746  0.0297 -0.0026  0.1536
 3713W        W21237   2.061  10.146   4.118 -0.0847  0.0112 -0.0974
 3714W        W21238  12.606  13.103  14.969 -0.0151  0.2818  0.1894
 3715W        W21239   9.334   9.846  12.808 -0.5351  0.1767  0.2503
 3716W        W21240  14.139   5.720   0.482 -0.4644  0.3468  0.1414
 3717W        W21241  11.806   0.751   2.179 -0.0083 -0.0372 -0.0884
 3718W        W21242  17.842   7.885  11.967  0.4994  0.1806  0.1229
 3719W        W21243   7.796   5.498   0.769 -0.1121  0.1943 -0.1247
 3720W        W21244   5.393   7.324   4.257  0.0741 -0.0734 -0.0869
 3721W        W21245   7.496   5.239  10.609  0.2758 -0.0344  0.1016
 3722W        W21246  15.708  12.787  14.455  0.1406  0.0612  0.2802
 3723W        W21247  16.437   7.315  15.889 -0.0184 -0.1895  0.0176
 3724W        W21248  14.761   9.147  13.531 -0.0049 -0.0991 -0.0766
 3725W        W21249   4.303   5.437  10.626  0.1854  0.0095  0.1370
 3726W        W21250   2.386  18.175  11.668  0.1917  0.1914  0.1504
 3727W        W21251   9.846  17.375  12.234 -0.0453  0.0051  0.0952
 3728W        W21252   9.089   4.824   4.148 -0.1089  0.1486  0.0854
 3729W        W21253  10.775   8.188   0.176 -0.0033  0.1319 -0.1144
 3730W        W21254   0.011   1.787   2.726  0.0351 -0.1729  0.2402
 3731W        W21255  16.862   8.969  12.243 -0.1714  0.0264  0.2673
 3732W        W21256  17.734  10.721   0.131  0.0384 -0.0515  0.0291
 3733W        W21257   3.982   3.702  11.434  0.0442  0.4345 -0.5015
 3734W        W21258  15.931   2.629  15.981  0.1959 -0.1148  0.0226
 3735W        W21259  14.778  15.015   3.926  0.1128  0.0967  0.1184
 3736W        W21260   2.201  15.708  12.733  0.1262 -0.2767 -0.0753
 3737W        W21261   5.084   4.606   3.681 -0.1910 -0.3382 -0.0631
 3738W        W21262  13.388  12.480   2.853 -0.0759 -0.0309 -0.3053
 3739W        W21263   9.134   6.250  10.689  0.0948 -0.0951  0.0698
 3740W        W21264   0.601   1.024   1.560  0.2391 -0.0081  0.2049
 3741W        W21265  14.043  17.535  11.282  0.0172  0.0906 -0.0134
 3742W        W21266   2.928   2.753   4.333  0.3326  0.0433  0.1158
 3743W        W21267   6.690   9.406   2.881  0.0581 -0.1473  0.2381
 3744W        W21268  14.786   7.011  12.170  0.3255  0.0093 -0.2554
 3745W        W21269   6.037   0.727  11.026  0.1956  0.0300 -0.2071
 3746W        W21270   6.538   2.698   4.553  0.0748  0.1005 -0.1170
 3747W        W21271   4.745   6.011  11.003 -0.3622 -0.1260  0.1457
 3748W        W21272  12.395   5.646   3.825  0.1713 -0.2609 -0.1574
 3749W        W21273  12.628   9.540  14.689  0.4041 -0.1567 -0.1164
 3750W        W21274  15.378   3.151  11.958 -0.3795 -0.1121  0.1507
 3751W        W21275  17.811   4.617   2.242 -0.0643  0.0012  0.0285
 3752W        W21276  11.608  14.184  12.876  0.0039 -0.0045  0.0576
 3753W        W21277   4.163  12.969   1.853 -0.5897  0.0150  0.0594
 3754W        W21278  10.294  17.891   2.623 -0.1127  0.1156  0.0467
 3755W        W21279  12.554   2.205   0.451  0.0230 -0.1789  0.3971
 3756W        W21280  13.281  15.705   3.596  0.2213 -0.1958  0.1393
 3757W        W21281   2.207  15.248  15.043 -0.0656  0.2137  0.0659
 3758W        W21282   3.547  17.041  11.643 -0.0927  0.0265 -0.0201
 3759W        W21283   5.924  13.919   3.192 -0.0610 -0.1897  0.2717
 3760W        W21284   0.607   9.232  11.819  0.1477  0.3952  0.1465
 3761W        W21285  15.041  15.820  11.858  0.0305  0.0377  0.2769
 3762W        W21286   4.006  16.217  11.524 -0.1249 -0.4109  0.2138
 3763W        W21287  16.410   4.790   1.913  0.0822  0.1055  0.0898
 3764W        W21288   1.551  14.622  13.409  0.1383 -0.0677 -0.0235
 3765W        W21289  13.815  14.941  11.753  0.0048  0.2224  0.0867
 3766W        W21290   9.122   5.653   4.086 -0.1129  0.4509 -0.0283
 3767W        W21291   5.469   2.290  13.051 -0.0195 -0.2130 -0.2425
 3768W        W21292   7.551   5.167  13.731 -0.0852  0.3184  0.1295
 3769W        W21293   9.095   3.634  11.025  0.2978  0.1602  0.1747
 3770W        W21294   0.328  11.918   5.291  0.2792 -0.1803 -0.0404
 3771W        W21295   6.540  13.135   2.708 -0.0080  0.2818  0.0718
 3772W        W21296   5.701   1.028  15.431  0.0741 -0.1727 -0.0702
 3773W        W21297   4.041  14.089   1.945 -0.2450  0.1559 -0.1055
 3774W        W21298  15.200   7.329   4.278  0.0073  0.1583 -0.0923
 3775W        W21299  10.331   6.582   1.726  0.1038  0.1497  0.1630
 3776W        W21300   1.251   6.995  13.403  0.0221  0.2007 -0.0451
 3777W        W21301   9.879  14.640   3.319 -0.0592  0.2297  0.3445
 3778W        W21302  15.892  13.065  15.340  0.0710  0.2008 -0.3206
 3779W        W21303  14.781  14.211  13.944 -0.1407 -0.0553 -0.1377
 3780W        W21304   1.023  17.953  11.718  0.1185 -0.0862 -0.2952
 3781W        W21305   0.501   2.396   1.263 -0.0364 -0.0475  0.2440
 3782W        W21306  10.420   0.566  13.229 -0.1751  0.0348 -0.1596
 3783W        W21307   2.923   9.351   3.681  0.1873 -0.3174 -0.0863
 3784W        W21308  10.640  15.187  12.418  0.2436  0.0477 -0.0257
 3785W        W21309   6.462  11.270  11.963 -0.1164  0.1423  0.1351
 3786W        W21310  11.583   5.007  13.544 -0.0424 -0.1882  0.0558
 3787W        W21311   7.304   0.978  12.223 -0.1344  0.0934  0.2892
 3788W        W21312   9.234   8.597  12.142 -0.0946  0.1974  0.2310
 3789W        W21313   0.787   5.436  14.188 -0.0002  0.3525 -0.1007
 3790W        W21314   9.407  12.075   3.882  0.0725  0.2047 -0.4616
 3791W        W21315   3.855  13.738  12.588  0.0014  0.3077 -0.3237
 3792W        W21316  12.664   8.159   0.989 -0.1749 -0.1855  0.0569
 3793W        W21317  11.292  11.324   1.525 -0.2155  0.0999  0.0741
 3794W        W21318   1.746  12.519  12.132 -0.0793 -0.0829 -0.1335
 3795W        W21319   0.858  14.505  10.501  0.1201  0.0750  0.0544
 3796W        W21320  16.946  15.330  10.524  0.3277 -0.0858 -0.0477
 3797W        W21321   0.756   3.628   0.415 -0.4271  0.0909 -0.1174
 3798W        W21322   7.951  16.971  13.033 -0.0039  0.4710 -0.2945
 3799W        W21323   7.178  10.057   2.372  0.1070 -0.0661  0.3186
 3800W        W21324   3.572   1.828   0.597  0.3142  0.0366  0.2532
 3801W        W21325  12.152   6.435   0.445 -0.3030  0.0277  0.0326
 3802W        W21326   0.205  15.258  11.799 -0.0698  0.1283 -0.1809
 3803W        W21327  14.887   5.470   4.746 -0.2289  0.3835 -0.1319
 3804W        W21328   0.937  17.956   2.039  0.0561  0.0174  0.0430
 3805W        W21329  11.582  10.830  12.206  0.1780 -0.0127 -0.0876
 3806W        W21330   8.757   2.280   0.050  0.0499  0.0382 -0.1472
 3807W        W21331  14.619   0.502   1.268 -0.0029 -0.2241  0.1748
 3808W        W21332   1.206  13.355  13.797 -0.2732  0.2024 -0.2831
 3809W        W21333   0.031   1.890  14.469 -0.1867 -0.0043  0.3346
 3810W        W21334   8.481   8.625   2.798 -0.1707 -0.2962 -0.3213
 3811W        W21335   9.988  10.854  12.521 -0.1106 -0.0660  0.1541
 3812W        W21336  16.392   1.511  14.966  0.3145  0.1524 -0.0338
 3813W        W21337   2.341   6.165   0.371  0.3187  0.1323  0.2495
 3814W        W21338  11.868   8.920  11.985  0.0504  0.3804  0.0172
 3815W        W21339  12.746   5.841  15.103 -0.2188 -0.0689 -0.3695
 3816W        W21340   5.511  14.444   1.237  0.1169 -0.2412 -0.1725
 3817W        W21341   7.700   0.388  13.348 -0.1471 -0.2592  0.1256
 3818W        W21342  17.839   0.815  12.688  0.2304  0.1194 -0.1887
 3819W        W21343   7.879  10.475  12.539  0.1502  0.1078  0.0109
 3820W        W21344  14.047   8.051   4.190  0.1743 -0.0580  0.4617
 3821W        W21345   0.724  10.716   2.927 -0.1021  0.0443 -0.0186
 3822W        W21346  11.141   7.681   1.173  0.0193  0.0557  0.2005
 3823W        W21347  16.411   7.145  12.193 -0.1182  0.2519 -0.0442
 3824W        W21348   5.881   5.037  11.320  0.3626  0.0651  0.3032
 3825W        W21349   4.719  10.696  15.318 -0.3061  0.0860 -0.0451
 3826W        W21350  12.206   9.908  14.903 -0.0802 -0.0034 -0.1922
 3827W        W21351  15.516  16.483  14.668 -0.1148  0.0578  0.0948
 3828W        W21352   8.476  10.799   3.914  0.0170  0.1758 -0.3940
 3829W        W21353  15.568  17.896  11.460 -0.1001  0.0363 -0.1881
 3830W        W21354  12.822  12.164  11.820  0.3254 -0.0011  0.0770
 3831W        W21355  13.607  16.488   3.245  0.1155 -0.0285 -0.2921
 3832W        W21356  16.687  18.028  14.165 -0.0533 -0.0045  0.2561
 3833W        W21357   5.073  13.169   0.865  0.0672 -0.4337  0.1688
 3834W        W21358  17.392  15.121   1.206 -0.2269 -0.1905 -0.1007
 3835W        W21359   3.598  17.081   2.370  0.0367  0.0404 -0.0186
 3836W        W21360  10.554   8.281  15.163 -0.1192 -0.0462  0.2801
 3837W        W21361   2.699   3.888   9.987  0.1514 -0.2467  0.0604
 3838W        W21362   9.853   1.060  10.762  0.0158  0.0499  0.2817
 3839W        W21363  10.212  10.946   1.632 -0.0235  0.0550  0.0266
 3840W        W21364   2.768  10.442  12.117  0.0353  0.1627  0.0033
 3841W        W21365   9.712   6.570  15.540 -0.3957  0.0064  0.0754
 3842W        W21366   6.558   2.331   1.475  0.0512 -0.2132  0.1275
 3843W        W21367  15.239   8.468  12.135 -0.3969 -0.1557 -0.3900
 3844W        W21368  18.021   3.998   0.238 -0.4352 -0.2227  0.3547
 3845W        W21369  14.767  14.277  16.094  0.2070 -0.2176 -0.1133
 3846W        W21370  17.469  13.724  16.055 -0.0493 -0.2931  0.1274
 3847W        W21371   1.815   9.318  11.643 -0.1128 -0.2826 -0.1490
 3848W        W21372   4.319   0.228   0.237 -0.3504  0.1667  0.0116
 3849W        W21373   8.736   3.116  13.909  0.2994  0.0511 -0.2505
 3850W        W21374  15.230  14.089  12.675 -0.0997 -0.0848 -0.2284
 3851W        W21375   3.992  17.705  11.952 -0.3308 -0.0431  0.1127
 3852W        W21376   5.167   8.333   1.127 -0.0198 -0.0285  0.0486
 3853W        W21377   8.801   9.596   3.900 -0.1550  0.1547  0.0414
 3854W        W21378  11.238  10.825   4.901 -0.0507  0.1469 -0.0292
 3855W        W21379   6.898   7.953   0.416  0.0167  0.0154  0.1433
 3856W        W21380  16.352   2.071  12.046  0.2305  0.0769 -0.1394
 3857W        W21381   6.425   5.353   2.898  0.1828  0.0573  0.3165
 3858W        W21382   9.463   1.643   1.618  0.2204 -0.1303  0.0444
 3859W        W21383  11.314  11.710   4.639 -0.2755  0.0279 -0.0486
 3860W        W21384  13.427  13.003  11.901  0.2004  0.0301  0.1144
 3861W        W21385  10.680   5.418   4.263 -0.0411 -0.1578 -0.0963
 3862W        W21386  13.959  17.278  14.773 -0.1870 -0.2488  0.0195
 3863W        W21387   3.450  12.593  11.701 -0.3469 -0.0146 -0.0498
 3864W        W21388   2.316   6.236   1.683 -0.0208 -0.1820 -0.2407
 3865W        W21389   4.612  11.854  13.632 -0.2353  0.1366 -0.4823
 3866W        W21390  15.245   8.204   3.417 -0.2128 -0.1276  0.1562
 3867W        W21391  14.471   1.619  11.889 -0.0194  0.2441  0.2226
 3868W        W21392   2.453   3.302  11.891 -0.2984 -0.1348  0.1070
 3869W        W21393   9.711  15.383  15.312  0.2321 -0.3562 -0.0483
 3870W        W21394  15.406   0.418   2.639  0.3713 -0.0179  0.0812
 3871W        W21395   0.218   6.688   0.643 -0.1229  0.1485 -0.2000
 3872W        W21396   4.484   8.483  13.861 -0.0809  0.0438 -0.0847
 3873W        W21397  17.047  11.945  13.614 -0.1431  0.0901  0.2453
 3874W        W21398  12.643   5.242   5.502 -0.2369  0.1512  0.0502
 3875W        W21399  15.465   1.396   1.405  0.2451 -0.1011 -0.0393
 3876W        W21400  12.965  15.699  12.538 -0.0082  0.1154  0.0382
 3877W        W21401  10.683   3.131   1.758 -0.2498 -0.1354  0.2146
 3878W        W21402   6.263  17.686  14.905 -0.0027 -0.1592 -0.2598
 3879W        W21403   4.761   9.536   0.096  0.2858  0.2835  0.1158
 3880W        W21404  11.643   1.472  11.107  0.0893 -0.2646 -0.0237
 3881W        W21405  11.476  12.616   3.261  0.1126 -0.0207 -0.3381
 3882W        W21406   6.879   7.307  13.672 -0.2737  0.2497  0.2673
 3883W        W21407   4.595  12.590  12.335  0.1781  0.0218  0.0387
 3884W        W21408   7.125   0.489  13.493 -0.2110 -0.2368 -0.4531
 3885W        W21409  11.115  16.102  12.418  0.0323 -0.3361 -0.0542
 3886W        W21410   7.993   4.113   4.022  0.0472  0.0461  0.0886
 3887W        W21411  12.814  10.547  11.617  0.1748  0.1806  0.3104
 3888W        W21412  16.618   5.869   2.677 -0.1031  0.0589 -0.1034
 3889W        W21413   8.176   5.372   0.519  0.1233  0.2543  0.2265
 3890W        W21414  14.985   4.635  14.190 -0.4131 -0.0840 -0.0058
 3891W        W21415   1.131   9.087  13.324 -0.0348 -0.2197 -0.1436
 3892W        W21416   7.207   0.620   2.282 -0.0577  0.0098 -0.1208
 3893W        W21417  13.673   7.987  15.990 -0.0618 -0.0463  0.3327
 3894W        W21418   1.336  16.372   5.241  0.1005  0.1020 -0.1729
 3895W        W21419  12.702   7.752  10.662 -0.0895 -0.2902  0.4478
 3896W        W21420  11.860   3.331  13.489 -0.0698  0.2326  0.3000
 3897W        W21421   1.465   6.891   0.608  0.1381  0.1393 -0.1538
 3898W        W21422   7.739  10.228   4.106 -0.0757  0.1701 -0.1427
 3899W        W21423   5.369   5.783  15.066  0.0528  0.3202  0.3795
 3900W        W21424   9.074   3.340   3.232 -0.2505 -0.0509 -0.3208
 3901W        W21425   4.228   5.152  12.466  0.1694  0.1820 -0.0541
 3902W        W21426  14.228  15.231  13.686 -0.0824 -0.0259 -0.1994
 3903W        W21427  16.437  11.420   2.314 -0.5012  0.3433 -0.1522
 3904W        W21428  15.793   7.449   3.515 -0.1689 -0.0520 -0.2287
 3905W        W21429   8.222   5.648  12.148  0.1311 -0.3075 -0.0471
 3906W        W21430  16.066   7.988   4.856 -0.1031  0.3388  0.0952
 3907W        W21431   6.670  14.528  10.426 -0.2670 -0.0841  0.0020
 3908W        W21432  14.775   5.934   4.711  0.2148  0.1379  0.2365
 3909W        W21433   6.068  12.599   5.371  0.3426  0.0206 -0.3113
 3910W        W21434  14.947   6.454  14.117 -0.3564 -0.1217  0.1584
 3911W        W21435  18.070  12.398  11.782  0.0547 -0.0684  0.0703
 3912W        W21436   2.203  18.028   1.111 -0.1568 -0.1840  0.0259
 3913W        W21437  15.688   6.668  13.826 -0.1164  0.0006 -0.0021
 3914W        W21438  11.724   6.093   2.646  0.0987  0.0839  0.0386
 3915W        W21439  13.485   1.148  15.009  0.2353 -0.0306  0.1148
 3916W        W21440   0.602  11.647   1.967  0.2406 -0.1137 -0.1593
 3917W        W21441   3.575   2.328   0.382  0.0543  0.0709  0.1810
 3918W        W21442  12.911  17.053   1.512 -0.1856 -0.0197 -0.1774
 3919W        W21443  10.939   4.718  14.236  0.1581  0.1423 -0.0490
 3920W        W21444  14.845  15.163   0.848  0.0781 -0.0245  0.2704
 3921W        W21445  14.126   6.919  15.329  0.0822 -0.1500  0.1024
 3922W        W21446  13.484   6.671   3.340 -0.1499  0.3092 -0.0629
 3923W        W21447   2.811  11.036   3.621 -0.1803 -0.2178  0.3082
 3924W        W21448   8.695   7.626   5.022 -0.2029  0.0186  0.0816
 3925W        W21449   5.711  12.470  12.281  0.3673 -0.2953  0.0945
 3926W        W21450  14.270  17.455   0.489  0.0385  0.0093  0.0158
 3927W        W21451   6.568  10.084   0.445 -0.2574  0.0583  0.2614
 3928W        W21452  13.006   4.769   1.126 -0.1587 -0.1125 -0.1050
 3929W        W21453   1.075   8.871   1.176 -0.1496 -0.3070  0.0457
 3930W        W21454   7.053   3.701   5.868  0.0602  0.1521 -0.2289
 3931W        W21455   8.431  15.193  14.721 -0.2789 -0.1758  0.2305
 3932W        W21456  12.021  10.198   4.756  0.5996 -0.1131  0.0380
 3933W        W21457  17.252   0.258  13.473 -0.2922 -0.1128 -0.0822
 3934W        W21458  14.583   3.827   3.809 -0.0922 -0.0046  0.0780
 3935W        W21459   2.822  16.883   0.746 -0.1887 -0.1549  0.0660
 3936W        W21460  17.389  17.364  12.221 -0.0076  0.3559  0.0824
 3937W        W21461   4.390   4.291   3.954 -0.0628  0.1473 -0.3344
 3938W        W21462  14.742   1.406  14.631  0.0096 -0.1660  0.0631
 3939W        W21463  12.478   2.888  12.393 -0.0629  0.0014 -0.2109
 3940W        W21464   5.377   5.969   4.657 -0.1401 -0.0865  0.0485
 3941W        W21465   4.439   6.492   1.761 -0.1644 -0.0685 -0.1725
 3942W        W21466  12.422  17.187   0.830  0.0337  0.2400 -0.2445
 3943W        W21467   2.100   5.870   0.013 -0.1323 -0.1207  0.1329
 3944W        W21468  11.209  16.507   3.374  0.0676  0.1342 -0.2178
 3945W        W21469   6.359   9.556  12.024 -0.0940 -0.0276 -0.1752
 3946W        W21470  15.236  17.860   2.023 -0.1420 -0.0853 -0.0197
 3947W        W21471  16.855   9.539   3.285  0.2913  0.1153 -0.1425
 3948W        W21472   9.868   5.238   0.119  0.4444  0.1082 -0.4379
 3949W        W21473  13.638  10.703  12.128 -0.0116  0.1079  0.1237
 3950W        W21474  15.622   6.901   1.559 -0.1474  0.1471 -0.0026
 3951W        W21475  14.356   4.462   3.032 -0.3376  0.3791 -0.1181
 3952W        W21476  16.053   6.591   3.278 -0.0855 -0.0069 -0.2065
 3953W        W21477   7.424  11.150   2.316 -0.0771 -0.0743 -0.0644
 3954W        W21478   0.270   1.040  13.738  0.1356 -0.4891 -0.0577
 3955W        W21479   3.935   2.650  14.389 -0.0200 -0.1250 -0.0488
 3956W        W21480   1.923  11.167  15.132  0.1126 -0.1208  0.0764
 3957W        W21481  13.463  14.123   2.751 -0.4445 -0.0114 -0.0234
 3958W        W21482  11.663   9.994  11.768 -0.0814 -0.1335  0.0143
 3959W        W21483  10.453   5.765  12.378 -0.0946 -0.1033  0.1233
 3960W        W21484   9.283   7.146   2.450 -0.0993  0.0822 -0.1178
 3961W        W21485   0.642  10.214   2.775 -0.1027  0.1193  0.0412
 3962W        W21486  12.412  17.047  13.154  0.0559  0.1972  0.2433
 3963W        W21487  10.501  12.973   1.969 -0.0534  0.0233 -0.1268
 3964W        W21488   4.944   2.344  13.263  0.0796 -0.1224 -0.2234
 3965W        W21489  11.621   5.996   3.666  0.0404  0.0788 -0.1243
 3966W        W21490   5.704   9.844   4.596  0.0748 -0.2544  0.0982
 3967W        W21491   8.793   9.147   1.640 -0.1465  0.1489 -0.1922
 3968W        W21492   9.276   2.894  12.644 -0.1559 -0.0221 -0.0823
 3969W        W21493  11.652   0.928  15.221 -0.2142 -0.2392 -0.0158
 3970W        W21494   1.673  16.499   3.401  0.0367  0.0431  0.0432
 3971W        W21495  14.122   2.507   1.304 -0.3283  0.1318  0.1358
 3972W        W21496  16.346   0.034   4.033 -0.0723 -0.3070 -0.0198
 3973W        W21497   0.194  10.482  14.554  0.2438  0.0370 -0.1247
 3974W        W21498   9.990  17.844  12.382  0.1604 -0.2465 -0.2605
 3975W        W21499  10.817  17.168   0.388  0.0841 -0.1290  0.2118
 3976W        W21500   5.729   1.801   0.295  0.1068  0.0689 -0.0660
 3977W        W21501  13.275  11.227   4.342 -0.2026  0.3846 -0.2485
 3978W        W21502  16.252   4.867   3.482  0.2540 -0.1051 -0.1152
 3979W        W21503  12.802  16.464  15.832 -0.1412 -0.0051 -0.0558
 3980W        W21504   8.484   5.655   1.511  0.2392 -0.3930  0.0921
 3981W        W21505   7.304  15.699   0.014 -0.2599  0.3621  0.0022
 3982W        W21506  13.557   6.576  14.204  0.3197 -0.2446  0.2243
 3983W        W21507   3.598   2.894   2.700  0.2561  0.1448 -0.2872
 3984W        W21508   9.811  14.432   4.161  0.1597 -0.0836  0.0982
 3985W        W21509   5.950   7.729   0.583 -0.1608  0.2204 -0.0139
 3986W        W21510  15.066  15.696  14.592  0.4827 -0.2167 -0.1811
 3987W        W21511  11.552   4.244   4.392 -0.0782  0.1649 -0.0432
 3988W        W21512   9.745  16.034  15.521  0.2604  0.1516  0.0526
 3989W        W21513   2.654   1.790  12.899  0.2891 -0.1253 -0.4626
 3990W        W21514  17.257   5.894   4.401 -0.1192  0.0259  0.1772
 3991W        W21515  13.553  14.856   3.502  0.0437  0.1175 -0.2213
 3992W        W21516  17.046  11.368   2.311  0.2620  0.4133  0.0722
 3993W        W21517   6.868  13.572   5.442  0.0957 -0.0452 -0.0607
 3994W        W21518   5.576  11.674   2.420  0.1761 -0.1394  0.0376
 3995W        W21519   7.414  13.961  11.994 -0.5068 -0.1358 -0.4748
 3996W        W21520  12.633   6.055   4.058  0.0190  0.1673  0.0951
 3997W        W21521   1.948  17.408   2.055 -0.1679 -0.3717 -0.3375
 3998W        W21522  17.590  13.052   1.737 -0.3103  0.0929 -0.2810
 3999W        W21523  10.217  12.769  14.683 -0.1671  0.1960 -0.0458
 4000W        W21524   6.234   5.759  13.394 -0.1204 -0.0581  0.2852
 4001W        W21525   4.393   8.517   4.485 -0.0307  0.1491  0.4041
 4002W        W21526   8.594  16.753   0.985  0.0634  0.1098  0.1482
 4003W        W21527  16.137   4.888  15.019  0.0120 -0.1911 -0.2005
 4004W        W21528   4.170   6.142   0.660  0.0138 -0.1883 -0.0471
 4005W        W21529   6.379  16.257  14.612 -0.0193 -0.0051  0.1829
 4006W        W21530  10.870   3.521  10.992 -0.2029  0.1799  0.0739
 4007W        W21531  17.835  10.556  13.621 -0.0809  0.0099  0.0581
 4008W        W21532   6.931   7.074  12.670  0.0808  0.1059 -0.2058
 4009W        W21533   4.736   1.123  15.190 -0.0009  0.2023 -0.4274
 4010W        W21534  12.856  15.697  13.020  0.1786 -0.0367 -0.3692
 4011W        W21535   2.286   7.348   5.049 -0.1898  0.1085  0.0521
 4012W        W21536   9.397   2.340  14.167 -0.2791 -0.1201 -0.0427
 4013W        W21537   6.021   9.058   3.395  0.2464 -0.2480  0.1792
 4014W        W21538   4.429   6.716  13.532  0.0854  0.1671  0.0172
 4015W        W21539   8.276   7.117  12.336  0.0356  0.1566 -0.1088
 4016W        W21540  13.442  17.690   5.428 -0.2570  0.0218  0.0374
 4017W        W21541   9.022  10.754  11.480 -0.0434  0.0196 -0.3809
 4018W        W21542  12.987  16.085  15.586  0.0007  0.2006 -0.0973
 4019W        W21543   9.812   1.348  15.891  0.0854  0.1040 -0.3042
 4020W        W21544  13.410   8.478   4.360  0.2943  0.1740 -0.0595
 4021W        W21545  12.197   2.073  12.329  0.1013  0.1508 -0.0360
 4022W        W21546   1.301   4.206  14.042  0.3340  0.2929  0.0444
 4023W        W21547  11.218  15.585   2.684  0.2051  0.1052  0.0577
 4024W        W21548   8.666   8.389   2.282 -0.0404  0.1826 -0.2029
 4025W        W21549  17.351   7.135  14.063  0.1359 -0.3117 -0.2931
 4026W        W21550   0.067   2.177   1.815  0.3434  0.1006 -0.2687
 4027W        W21551   0.236  12.946  13.750 -0.2570  0.2185 -0.0101
 4028W        W21552   3.636   7.401  10.786 -0.0444 -0.0138 -0.1109
 4029W        W21553  13.463   6.775   4.461 -0.2659 -0.3280  0.0481
 4030W        W21554   3.701   6.739  15.505  0.1018 -0.2597 -0.1091
 4031W        W21555  14.600  13.244   0.325  0.2725  0.1062  0.1629
 4032W        W21556  15.252   0.417  12.951 -0.4853  0.3612  0.2263
 4033W        W21557   0.052  17.380   1.613 -0.0437 -0.1294 -0.1049
 4034W        W21558   4.646   4.339   4.536  0.3425 -0.2661  0.1284
 4035W        W21559  16.255  16.062  14.604 -0.1263 -0.1932 -0.0341
 4036W        W21560  10.863   1.895   1.641 -0.1781  0.0953  0.1071
 4037W        W21561  17.605   4.341  13.756 -0.2668  0.0371  0.1926
 4038W        W21562   8.631   7.646  12.650  0.0460 -0.0711  0.1895
 4039W        W21563   0.963   7.911  12.304 -0.1482 -0.1173  0.3572
 4040W        W21564   2.553   2.093   2.102  0.2976 -0.1936 -0.0519
 4041W        W21565   4.278   9.529  15.525 -0.0076 -0.1565  0.0639
 4042W        W21566   2.750  17.770  11.921  0.1030  0.2889  0.1572
 4043W        W21567   4.724  16.506  13.544  0.0296 -0.0929 -0.2172
 4044W        W21568  10.867   4.658   2.583  0.1541  0.1969  0.0313
 4045W        W21569   3.114   2.288   0.089  0.5067 -0.3562 -0.1162
 4046W        W21570  14.536   0.825   4.627 -0.1245  0.2000 -0.2097
 4047W        W21571  13.499  13.919  11.905  0.0931 -0.1960  0.1711
 4048W        W21572  14.546  17.321   2.604 -0.0249  0.2315 -0.2427
 4049W        W21573   5.537   7.215  14.386  0.1931  0.0811  0.2688
 4050W        W21574   3.317  15.715  12.734 -0.0504 -0.0571  0.2446
 4051W        W21575   8.667  12.345   4.493  0.3232  0.2295  0.0588
 4052W        W21576  12.398  13.881  14.121 -0.2841 -0.1311 -0.0950
 4053W        W21577  14.572  13.541   4.966 -0.1349 -0.0163 -0.0506
 4054W        W21578   4.387  11.977   0.723  0.0093  0.0639 -0.0775
 4055W        W21579  10.108  12.962   5.600 -0.4249 -0.0311  0.1120
 4056W        W21580  17.233   0.895  14.496 -0.0921 -0.1462  0.0214
 4057W        W21581   8.858   3.229   2.757 -0.0850 -0.0750  0.1265
 4058W        W21582   3.193  12.296  14.423 -0.1807 -0.4621  0.1513
 4059W        W21583   5.604   2.581   2.409 -0.0016 -0.5418  0.1361
 4060W        W21584   1.245   0.550  15.283  0.1191  0.0860 -0.1362
 4061W        W21585  10.923  16.914   0.796 -0.2951  0.3361 -0.3228
 4062W        W21586  18.039   8.325   4.667 -0.1930 -0.3079 -0.3070
 4063W        W21587  14.088   5.696  15.749 -0.1393  0.0984 -0.0921
 4064W        W21588  16.321   8.682  13.208  0.2106 -0.0596  0.2185
 4065W        W21589  13.719   2.322  14.263  0.1758  0.1165  0.1150
 4066W        W21590  13.587   5.925  12.843  0.1506  0.0000 -0.1218
 4067W        W21591   6.991   2.804   4.329  0.1721  0.2997  0.0551
 4068W        W21592  17.337  14.150  11.620 -0.0520 -0.0021 -0.1084
 4069W        W21593  14.840   8.386   1.115  0.1671 -0.1957  0.0509
 4070W        W21594  15.961  11.471   3.392  0.0573 -0.1096 -0.0142
 4071W        W21595   5.035   9.040  13.405 -0.1899 -0.1512 -0.4210
 4072W        W21596   2.484  17.993  15.077  0.1371  0.3395  0.4636
 4073W        W21597  11.842  14.651   2.155 -0.0023  0.0584 -0.2155
 4074W        W21598  17.525   9.848   2.834 -0.1060  0.0325 -0.1734
 4075W        W21599  17.682   2.688  15.341 -0.0895  0.0567  0.4404
 4076W        W21600   6.305  15.136   3.037 -0.1361 -0.0998  0.0236
 4077W        W21601   1.368   2.937   3.021 -0.3844 -0.0460 -0.1088
 4078W        W21602   1.049   9.393   0.279  0.0132  0.0056  0.3980
 4079W        W21603   5.051  11.740   2.136  0.0686  0.1531 -0.0561
 4080W        W21604   0.023  15.495  13.437 -0.0645 -0.2915 -0.0826
 4081W        W21605   3.804   3.155  12.249  0.2316  0.0696  0.1644
 4082W        W21606   4.841   7.852  14.089 -0.0997  0.1225 -0.1381
 4083W        W21607   6.350   2.835  12.369  0.3130 -0.3021  0.3662
 4084W        W21608  11.559  10.888  11.739 -0.0262  0.0890  0.0842
 4085W        W21609   3.238   9.513   5.081 -0.0138  0.2337  0.1214
 4086W        W21610  15.202   5.304  13.093  0.0842  0.0961 -0.0521
 4087W        W21611   1.637   1.067  14.837 -0.0810  0.2697  0.4420
 4088W        W21612  17.632  13.618   2.459 -0.0132 -0.0298 -0.2138
 4089W        W21613   4.474   0.394   5.021  0.1127 -0.0961  0.0169
 4090W        W21614   6.664  11.934  16.044 -0.0498  0.4297  0.2928
 4091W        W21615  10.576   2.145   1.291  0.2084 -0.1896  0.0175
 4092W        W21616   1.334   7.379   1.358 -0.0443 -0.2858  0.0500
 4093W        W21617   0.731  10.194   1.788  0.0516  0.0949 -0.0739
 4094W        W21618   1.557   2.160   4.819  0.0830  0.1208  0.0583
 4095W        W21619  11.792   5.045  14.578 -0.0698  0.1173 -0.0196
 4096W        W21620   9.364  11.567  15.482 -0.0454 -0.0536 -0.0444
 4097W        W21621  12.990  14.726  15.823  0.0404 -0.2429  0.1341
 4098W        W21622   3.782  15.765  11.003 -0.0869  0.2466  0.0315
 4099W        W21623   1.793   0.373  11.267  0.0459 -0.0840 -0.3574
 4100W        W21624   7.102  13.617   4.426 -0.0204 -0.2114  0.2457
 4101W        W21625  17.928   1.984   1.505 -0.3359 -0.1184  0.0149
 4102W        W21626   5.192  12.244   4.813  0.2069  0.0169 -0.0819
 4103W        W21627  17.954   9.848   1.341  0.2483  0.0057  0.2435
 4104W        W21628  17.350   0.429   1.024  0.0872 -0.0212  0.3513
 4105W        W21629   7.396   3.886  10.955  0.1384  0.2022  0.0099
 4106W        W21630   4.596   2.695  11.887 -0.1810  0.3665  0.0367
 4107W        W21631  13.236  10.403  13.795  0.1207 -0.2428  0.0165
 4108W        W21632   2.732  17.509   3.986  0.1633  0.0766 -0.1619
 4109W        W21633   5.134  18.169   1.533 -0.3546  0.0635  0.0343
 4110W        W21634   0.880   1.649  15.880  0.1301 -0.3351 -0.0655
 4111W        W21635   1.313  14.934  13.040 -0.2838 -0.0948 -0.0145
 4112W        W21636   9.034   3.723  14.705  0.2333 -0.0043  0.2779
 4113W        W21637  18.021   3.062  13.051 -0.0888 -0.3180  0.2121
 4114W        W21638   7.330   6.758   3.961 -0.2019  0.1850  0.1092
 4115W        W21639  17.668   9.865  10.239  0.0895 -0.1436 -0.0698
 4116W        W21640  15.928   5.172   1.035 -0.0001 -0.0896 -0.1602
 4117W        W21641   8.716  11.254  15.099 -0.0506  0.1572 -0.2159
 4118W        W21642   6.504   6.894   4.537  0.0155 -0.2645  0.0057
 4119W        W21643  13.867   4.805  16.026 -0.1082 -0.0951  0.1731
 4120W        W21644  15.079   8.039   2.375  0.0082 -0.0960  0.2327
 4121W        W21645  12.068   1.940   0.272 -0.1101 -0.2329 -0.0566
 4122W        W21646  10.127  17.963  11.330  0.1753  0.2492  0.2044
 4123W        W21647   5.164   0.613  12.157  0.2291  0.1854 -0.0302
 4124W        W21648  16.141  14.054   2.141  0.0068  0.0364 -0.0967
 4125W        W21649   3.485   9.406  14.395 -0.0358  0.1869  0.4929
 4126W        W21650  14.513  17.632  11.668  0.2231  0.0118 -0.2546
 4127W        W21651   9.613  12.600  12.666 -0.0065  0.0035 -0.2961
 4128W        W21652  12.989  11.892  14.798 -0.2293  0.4054  0.2855
 4129W        W21653  12.341   1.498  11.524  0.2139 -0.0466  0.2464
 4130W        W21654   8.795  14.140  12.534 -0.2229  0.0355  0.0078
 4131W        W21655   9.562  15.542   4.752  0.2594 -0.0431  0.1321
 4132W        W21656  10.151  14.681  13.112 -0.0472 -0.2021 -0.0610
 4133W        W21657   2.002   1.939   4.806  0.0054  0.0904 -0.1579
 4134W        W21658  15.548  12.743  15.624  0.0457  0.1005 -0.0794
 4135W        W21659  12.187   0.157  14.306 -0.1313  0.0642  0.0313
 4136W        W21660   0.589   5.341   6.026  0.0768  0.0232  0.1985
 4137W        W21661   2.225  11.686  13.865 -0.2089  0.0935 -0.0409
 4138W        W21662   6.120   5.591  14.596 -0.0593 -0.0409  0.1860
 4139W        W21663  15.801   8.342  14.541 -0.1095  0.2060  0.3438
 4140W        W21664   5.559   9.841   2.769 -0.2177  0.0077 -0.3094
 4141W        W21665   5.977   1.863  10.820  0.1045  0.0990  0.2116
 4142W        W21666   8.888   5.089  11.302 -0.0982 -0.0971 -0.0108
 4143W        W21667  13.299   1.583  11.284  0.1116  0.2170 -0.0030
 4144W        W21668   1.048   3.942   5.146  0.1527 -0.1757  0.1134
 4145W        W21669  12.233   8.499   2.567 -0.1474  0.1106 -0.0623
 4146W        W21670   0.238   8.099   3.330 -0.3234  0.2571 -0.2096
 4147W        W21671   6.611   8.837  11.994  0.0222 -0.2234 -0.0397
 4148W        W21672  17.197   6.374  13.433 -0.0363 -0.0869  0.2912
 4149W        W21673   4.106   8.117   2.552 -0.2986  0.2917  0.2147
 4150W        W21674   0.267   7.101   1.504 -0.2645 -0.2809  0.4182
 4151W        W21675   8.920  15.538   1.574 -0.0331  0.0363  0.1137
 4152W        W21676   5.080   0.568   1.185 -0.1048  0.1469 -0.3839
 4153W        W21677   5.936   2.027   3.744 -0.2936 -0.1864 -0.1989
 4154W        W21678  15.200  16.469  11.106 -0.1824  0.0303  0.0218
 4155W        W21679   2.048  17.165   4.691 -0.1999 -0.0491  0.1012
 4156W        W21680   4.639  17.563   4.299  0.2358 -0.0620 -0.1077
 4157W        W21681  11.798  12.819  15.679  0.2508 -0.3455 -0.1798
 4158W        W21682  16.697   8.642   1.362  0.0698  0.0348 -0.1709
 4159W        W21683   8.195  17.147   4.837 -0.2498 -0.2546 -0.3460
 4160W        W21684   7.513  17.097  12.983  0.1471 -0.3926 -0.0378
 4161W        W21685   5.556  11.253  12.555 -0.2699  0.1427  0.0586
 4162W        W21686   4.193  13.688   4.432 -0.0187  0.0202  0.2688
 4163W        W21687   1.698  13.482  12.559  0.0821 -0.1109 -0.0682
 4164W        W21688   7.106   6.592   1.116  0.0218  0.2663 -0.1203
 4165W        W21689   0.781   4.510  15.351 -0.2024 -0.0333 -0.2521
 4166W        W21690  12.682   4.237   4.306  0.2475 -0.1461  0.5367
 4167W        W21691  14.010   2.991  13.735  0.2077 -0.2676  0.4094
 4168W        W21692   2.900  15.382  10.457  0.1879  0.0316  0.0221
 4169W        W21693   4.751  10.065  13.205 -0.1194 -0.3739 -0.0962
 4170W        W21694  12.560  17.337  13.624  0.0518 -0.0206 -0.1630
 4171W        W21695  15.189   3.600   3.945 -0.1060 -0.0925  0.3107
 4172W        W21696   6.792   4.810   1.323  0.2256 -0.0733 -0.3377
 4173W        W21697   2.261   7.912   5.086 -0.0867  0.1435 -0.2171
 4174W        W21698   2.009  13.422  12.170  0.0254 -0.1905  0.1620
 4175W        W21699   9.296  12.812  15.177  0.0686 -0.0498 -0.3175
 4176W        W21700   1.415   5.941   5.235  0.2704  0.4512  0.3093
 4177W        W21701  17.373  14.373   0.659 -0.0280  0.0205  0.0922
 4178W        W21702   8.481  12.841   3.747  0.0457  0.0711  0.2927
 4179W        W21703   3.086   8.071   0.635 -0.0554 -0.1836 -0.1706
 4180W        W21704   1.135  11.786   1.281  0.1117  0.2709 -0.0728
 4181W        W21705  15.245   9.258  13.358  0.1244 -0.1890 -0.0974
 4182W        W21706  12.876  13.722   3.448  0.2822  0.1345 -0.0846
 4183W        W21707  14.625  15.491  13.331  0.1110  0.1180  0.3193
 4184W        W21708  16.032   5.117   0.311 -0.0970 -0.0850  0.2828
 4185W        W21709   3.055  15.408  13.986  0.3141 -0.0039  0.0630
 4186W        W21710  17.166  17.118  13.385 -0.2312  0.2552  0.0211
 4187W        W21711   9.912   2.179  12.007  0.0370  0.2177 -0.0518
 4188W        W21712  10.022  10.764  11.318 -0.0498 -0.0341 -0.0086
 4189W        W21713   2.504   6.021  15.852 -0.1905  0.3413  0.1116
 4190W        W21714  12.504   4.825  14.036  0.0981 -0.0486  0.2457
 4191W        W21715  13.077   2.953   1.555  0.2673  0.0093 -0.0633
 4192W        W21716   2.733  17.745  14.676 -0.0742  0.1260 -0.2206
 4193W        W21717   4.267  14.275  14.130  0.1273 -0.0261 -0.1071
 4194W        W21718   1.095  15.240   0.457  0.0921  0.1815  0.1799
 4195W        W21719  16.975  13.931   4.187 -0.0420 -0.2109  0.1620
 4196W        W21720   3.423   1.318  12.977  0.2286  0.0140  0.1744
 4197W        W21721   7.244   7.439  14.823 -0.0838  0.1031 -0.0080
 4198W        W21722  12.053   5.197   1.252 -0.1463 -0.0837  0.2275
 4199W        W21723   6.932  11.904  15.123  0.0700  0.0480 -0.2663
 4200W        W21724  10.340  13.225   0.749 -0.1948 -0.3656  0.1179
 4201W        W21725   1.942   6.093  13.259 -0.2670  0.0215  0.1282
 4202W        W21726   0.737  16.345   3.828 -0.0304  0.1325 -0.0531
 4203W        W21727  11.423   1.349  12.450  0.2117 -0.0641 -0.1429
 4204W        W21728   9.888  14.876  15.346  0.1373 -0.0661 -0.1061
 4205W        W21729  16.926  12.016  15.402 -0.0479  0.0399  0.1471
 4206W        W21730   7.332  17.759  13.828 -0.2949  0.0176 -0.0709
 4207W        W21731   0.991  13.429   0.171  0.2730  0.0601  0.1783
 4208W        W21732  14.719  11.814  11.934 -0.0337  0.1966 -0.0635
 4209W        W21733   7.344  13.861  13.566 -0.1701  0.0617 -0.2234
 4210W        W21734   0.572   8.745  12.094  0.0924  0.0157 -0.0337
 4211W        W21735  17.844  14.065  14.411 -0.0789  0.0191  0.2359
 4212W        W21736  11.705  17.502  12.030  0.3516  0.1816 -0.0136
 4213W        W21737  12.143  14.421  13.451  0.0317 -0.1766 -0.1208
 4214W        W21738   9.028   6.665   2.402  0.0738 -0.0445 -0.2819
 4215W        W21739   4.993   8.033  15.577  0.0438  0.0290 -0.3027
 4216W        W21740   4.591   4.715   3.731  0.1132  0.2830  0.0340
 4217W        W21741  13.960   7.970   4.769  0.0146 -0.0433 -0.1432
 4218W        W21742  17.247   6.889  15.930 -0.0634 -0.2678 -0.2553
 4219W        W21743   0.668  13.156  12.321 -0.0892  0.0096  0.2385
 4220W        W21744  18.114  12.684  14.503  0.1137 -0.3105  0.0913
 4221W        W21745   9.091   7.240   1.610 -0.0025  0.2381  0.0042
 4222W        W21746  10.813   2.080  11.491 -0.4058  0.0695  0.1583
 4223W        W21747   9.375   6.614   0.718 -0.3951 -0.0398 -0.2429
 4224W        W21748  17.504  10.632   4.784 -0.0798 -0.1306 -0.1880
 4225W        W21749   2.412   6.757   3.423 -0.1235 -0.0725  0.2141
 4226W        W21750  11.047   6.171  12.445  0.0481  0.0396  0.2280
 4227W        W21751  16.462   3.888   3.256  0.0559  0.1246  0.3613
 4228W        W21752   7.708   6.040   1.770 -0.0024  0.0758 -0.0760
 4229W        W21753  14.948   6.149   1.648  0.0636 -0.0105 -0.0534
 4230W        W21754   8.515   7.158   5.089  0.3481  0.0534 -0.1381
 4231W        W21755  16.028  13.853  12.428 -0.1637 -0.0132 -0.1349
 4232W        W21756   7.864  17.869  14.061 -0.1430  0.3892 -0.3567
 4233W        W21757  14.320   2.763  14.042 -0.1271  0.0993  0.0998
 4234W        W21758   8.894  15.157   1.227  0.1748  0.1652  0.0292
 4235W        W21759   0.915   2.096   4.393 -0.4158  0.1573  0.0456
 4236W        W21760   1.973   3.751  14.236  0.0930 -0.0132 -0.4792
 4237W        W21761   3.577   2.355   2.679 -0.0112 -0.0808  0.1338
 4238W        W21762  10.895   0.997   3.945  0.1652 -0.0454 -0.0164
 4239W        W21763  11.971  10.648  13.265 -0.1252 -0.3811  0.0325
 4240W        W21764  11.468   5.493   4.883  0.1160 -0.1871  0.0965
 4241W        W21765  11.352   4.472  13.299 -0.0759  0.0022 -0.2081
 4242W        W21766  11.273  13.121   0.929 -0.0015 -0.1915 -0.0085
 4243W        W21767  13.905   2.894   2.207  0.1591  0.3957  0.1022
 4244W        W21768   5.317   4.302   0.114  0.0936  0.1640 -0.1464
 4245W        W21769  11.262   6.959   2.140 -0.5319 -0.3571 -0.0471
 4246W        W21770   2.343  17.979   4.985 -0.1631 -0.0554  0.0201
 4247W        W21771  12.955   5.698   3.796 -0.1798 -0.0466 -0.0705
 4248W        W21772  10.902   0.162  12.277  0.0230  0.0799 -0.0892
 4249W        W21773  14.558   6.464   1.506  0.0791 -0.1153  0.1295
 4250W        W21774   9.894   3.321  12.225 -0.1047  0.1377 -0.1091
 4251W        W21775  17.232   2.508  15.244 -0.0677  0.1190 -0.0446
 4252W        W21776  12.030   3.249   2.456  0.0030  0.1331  0.1649
 4253W        W21777   0.939  14.612  11.209  0.1531 -0.0075  0.0023
 4254W        W21778   2.553   3.124  14.345  0.1158 -0.3491  0.1447
 4255W        W21779  17.660  17.266   2.389  0.0149 -0.4601 -0.2925
 4256W        W21780  10.085  14.601   1.511  0.0989 -0.0859 -0.2028
 4257W        W21781  14.084  10.744   1.625  0.0038 -0.1877  0.2430
 4258W        W21782   3.886  14.184   3.436  0.1842  0.0252 -0.0089
 4259W        W21783   5.698  16.160   0.838 -0.4047 -0.4137 -0.2581
 4260W        W21784  15.884   6.768  15.074  0.2996  0.1388 -0.0019
 4261W        W21785   7.144  16.345   0.527  0.2393  0.2849 -0.0268
 4262W        W21786  11.580  16.060  10.366 -0.0754  0.0959 -0.1987
 4263W        W21787   8.480   3.144   0.733 -0.0183 -0.1047 -0.0826
 4264W        W21788  16.174  16.214   2.829  0.1384 -0.0955 -0.0287
 4265W        W21789  16.173   0.625  10.456  0.0062 -0.0260  0.2925
 4266W        W21790   6.102  11.357  14.234  0.0036  0.2158  0.1957
 4267W        W21791   3.592  11.227   4.468  0.0256 -0.1236  0.1395
 4268W        W21792  14.486  15.562   0.254 -0.4048  0.0304 -0.1548
 4269W        W21793   0.425  17.926   2.029  0.0080  0.3192  0.1458
 4270W        W21794   2.200  14.440   1.401 -0.0681  0.0213 -0.1367
 4271W        W21795   7.499   9.749   0.839  0.1110  0.2764 -0.2896
 4272W        W21796   3.733   5.606  13.604  0.0068  0.0393 -0.2649
 4273W        W21797   6.147   4.856   0.005  0.1657  0.2476 -0.4138
 4274W        W21798   3.037   5.183   0.644  0.2722 -0.3141 -0.4834
 4275W        W21799  14.014   9.182  13.135  0.0255  0.0542 -0.1696
 4276W        W21800  15.597   3.326  13.357  0.2408 -0.1907  0.0318
 4277W        W21801   6.947   7.026   3.101 -0.2679  0.4074  0.0894
 4278W        W21802  14.134   0.304  13.343  0.1109 -0.2059 -0.1805
 4279W        W21803  10.830   9.639  13.221  0.0504 -0.1645  0.4623
 4280W        W21804  11.997   8.927   5.447  0.1782 -0.3307  0.0737
 4281W        W21805  11.085   4.128  13.103  0.3537 -0.0479 -0.1068
 4282W        W21806   3.468  11.745   3.490  0.0118  0.1250  0.2033
 4283W        W21807  13.388   9.761  12.621 -0.1323  0.0969 -0.0159
 4284W        W21808  16.980   7.843  11.558  0.1801  0.1605 -0.0727
 4285W        W21809  11.475   2.730  15.922 -0.1226  0.0724 -0.0234
 4286W        W21810  14.358  17.118   1.421  0.0379  0.1637 -0.3356
 4287W        W21811   2.144   4.366   2.873  0.2409 -0.0684  0.0824
 4288W        W21812   4.335  13.076  14.393 -0.3263 -0.1166 -0.0800
 4289W        W21813   4.069   6.558  15.778  0.0909  0.0633 -0.1417
 4290W        W21814   2.674   1.759   3.066 -0.1135  0.1940 -0.2125
 4291W        W21815   8.541   0.820   2.064  0.1122  0.0185 -0.0899
 4292W        W21816  17.836   9.288   5.402  0.2131 -0.2880  0.3101
 4293W        W21817   3.515   7.012   0.710 -0.0870  0.0164  0.2045
 4294W        W21818  15.797   1.468  15.484 -0.0443  0.0288 -0.0850
 4295W        W21819   4.516   2.071  10.380 -0.0409  0.1025  0.0090
 4296W        W21820   9.580   2.256   4.102  0.0606 -0.1068 -0.1723
 4297W        W21821  12.012  14.948   1.062 -0.0040  0.0719  0.1944
 4298W        W21822   4.905  17.156   4.131 -0.4154 -0.0019 -0.4181
 4299W        W21823   6.324   5.942   1.924  0.3358 -0.0687  0.1118
 4300W        W21824   2.871  10.279   4.477  0.3603  0.0910 -0.0464
 4301W        W21825  12.913  10.341  15.683  0.0892 -0.0147  0.2667
 4302W        W21826  13.105  13.130  12.503  0.1633 -0.0079 -0.0229
 4303W        W21827   9.080   5.197  13.532  0.2040  0.3478  0.1916
 4304W        W21828  17.559   8.593  13.634  0.0536 -0.0429 -0.1920
 4305W        W21829  10.121   0.001  12.680  0.0478 -0.3189 -0.2561
 4306W        W21830   2.287   0.284  15.113 -0.2513 -0.1521  0.1430
 4307W        W21831  15.776  14.078   1.698  0.2197 -0.1865  0.1166
 4308W        W21832  10.102   1.205  15.098 -0.1021 -0.1184 -0.0303
 4309W        W21833   6.277   1.027   0.533  0.4988 -0.1206 -0.1970
 4310W        W21834   4.262  14.091  10.082 -0.1830 -0.1583 -0.1536
 4311W        W21835   0.500  14.426  12.973  0.1066  0.0722 -0.2798
 4312W        W21836   8.505   8.193  14.050  0.1117 -0.2933 -0.2897
 4313W        W21837   1.322   1.032  12.603  0.1545 -0.1096 -0.0004
 4314W        W21838   8.923  17.907   1.650 -0.3706 -0.3511 -0.3718
 4315W        W21839   1.502  14.647  11.438  0.3057 -0.0210  0.1826
 4316W        W21840  13.449  12.335   5.041  0.1404 -0.1916 -0.1772
 4317W        W21841  10.790  16.301  11.024 -0.0016  0.1074 -0.2762
 4318W        W21842   3.175  11.816  11.361  0.0053 -0.0446 -0.1642
 4319W        W21843   9.651  13.873  11.864  0.4053 -0.2185 -0.2120
 4320W        W21844   6.179   2.955   3.726 -0.1313  0.1886  0.2041
 4321W        W21845   7.870  14.980   2.229  0.3609 -0.2240  0.0701
 4322W        W21846   6.078  13.778  13.548  0.1139 -0.2322 -0.0517
 4323W        W21847  11.958   0.188  15.369 -0.0138  0.0305 -0.0222
 4324W        W21848  11.594  12.342  12.693 -0.3150  0.1119  0.1529
 4325W        W21849  13.549   2.282   0.234  0.0993  0.1785  0.0934
 4326W        W21850  13.455   1.518  12.317  0.0468 -0.1792  0.0801
 4327W        W21851  15.013  17.171   2.577  0.1363  0.0412  0.3011
 4328W        W21852   5.664  16.353   2.212 -0.1320  0.0360  0.1595
 4329W        W21853   7.009   9.460   1.647  0.2350 -0.0472 -0.0271
 4330W        W21854  16.339   3.521   0.876 -0.0028 -0.1306 -0.3786
 4331W        W21855   1.032  12.171   0.914 -0.2130 -0.0380  0.1536
 4332W        W21856  16.583   0.838   3.747 -0.2602 -0.0156 -0.2616
 4333W        W21857  12.070   5.578  12.158  0.1120 -0.3031 -0.1600
 4334W        W21858  14.278  17.125  11.539  0.2682  0.0109  0.2105
 4335W        W21859   8.226   3.586   0.749  0.0978 -0.2526 -0.0262
 4336W        W21860   2.990  16.487  12.964  0.1793  0.1085  0.0178
 4337W        W21861   2.520  15.886   3.481 -0.2939 -0.1375  0.0363
 4338W        W21862  10.635   1.797   3.317  0.0389 -0.1299 -0.1792
 4339W        W21863   2.226  17.255  13.038 -0.0660  0.0549  0.1956
 4340W        W21864   6.744   9.561  12.959  0.0028 -0.0913  0.1575
 4341W        W21865   3.118   1.626  12.132  0.0902  0.0426  0.0573
 4342W        W21866   1.201   6.905   1.473 -0.3068  0.0757 -0.0722
 4343W        W21867   1.349  15.308  12.608 -0.1922 -0.2468 -0.1259
 4344W        W21868  12.060   1.730  13.138 -0.0635 -0.1166 -0.1152
 4345W        W21869   7.552  10.178  14.567 -0.3175  0.1407 -0.1603
 4346W        W21870   9.503  17.305  15.843  0.0367  0.2924  0.0950
 4347W        W21871  12.596   5.278   4.499  0.0698  0.2280  0.0316
 4348W        W21872  10.756   3.709   0.136 -0.1638  0.3138 -0.0722
 4349W        W21873  12.003   3.085  15.903 -0.2658 -0.3202  0.0686
 4350W        W21874  10.483  12.001   4.374  0.0736 -0.0255  0.0825
 4351W        W21875  14.534   7.994   2.390  0.0476  0.2037 -0.0988
 4352W        W21876  17.258  18.161  10.653  0.0567  0.0049 -0.2775
 4353W        W21877   6.367   8.814  14.550  0.2599 -0.3203  0.0497
 4354W        W21878   4.585   7.063  14.472 -0.4043  0.1833  0.0546
 4355W        W21879   8.401  16.743   2.306  0.1219  0.2580 -0.1195
 4356W        W21880   2.397   0.173   2.407  0.0139  0.3215 -0.1358
 4357W        W21881  11.292  18.054  12.297  0.1103 -0.0845  0.0906
 4358W        W21882   8.976   2.094  13.165  0.1033  0.0031  0.1497
 4359W        W21883   8.517  14.749  15.998 -0.1803 -0.1169 -0.0697
 4360W        W21884   1.007  14.241  14.703 -0.3648 -0.0575 -0.2514
 4361W        W21885   5.352  15.953   3.588  0.2393  0.1369 -0.0854
 4362W        W21886   5.764   2.263  14.650  0.3852 -0.1021  0.1382
 4363W        W21887   0.757  12.552  14.599 -0.0219  0.0270 -0.0838
 4364W        W21888  11.933   4.805   0.958 -0.1186 -0.1260 -0.1078
 4365W        W21889   5.636  13.978  13.420  0.2623 -0.1913  0.0981
 4366W        W21890  13.959   0.764   4.044 -0.0923 -0.2368  0.1231
 4367W        W21891  10.009  16.349  13.118  0.0063 -0.0287 -0.1676
 4368W        W21892   0.971  10.830  12.348  0.0313  0.1976 -0.2543
 4369W        W21893  11.529  15.015   2.331  0.0596  0.3712  0.0406
 4370W        W21894   5.548  10.060   9.424 -0.1667  0.2085  0.0457
 4371W        W21895   5.468   9.451  14.055  0.0797  0.1195  0.0944
 4372W        W21896  14.371  10.059  12.700 -0.2553  0.0417  0.1753
 4373W        W21897   9.025   5.519  13.142 -0.0037 -0.1866  0.2109
 4374W        W21898  14.077   9.200   1.558  0.1337 -0.0854 -0.2209
 4375W        W21899  12.704   8.815  15.413  0.0478  0.2141 -0.0790
 4376W        W21900   0.856  16.635   2.604  0.1991 -0.0048  0.0634
 4377W        W21901   1.561   9.368   5.530 -0.2552 -0.1234 -0.1320
 4378W        W21902  13.226  16.130   4.496  0.2867 -0.0121 -0.3365
 4379W        W21903   4.083   7.792   1.654 -0.1070  0.0753 -0.0866
 4380W        W21904  18.037  13.717  16.021  0.2608  0.3057 -0.1118
 4381W        W21905  11.362   5.151  14.907  0.1075 -0.0540  0.1665
 4382W        W21906  10.206   4.658   4.205  0.1464  0.2072 -0.0321
 4383W        W21907  11.649  13.465  10.657  0.1182 -0.0724 -0.1834
 4384W        W21908   7.962   7.901  12.702 -0.1410  0.3717  0.1506
 4385W        W21909   0.444  11.157  15.906  0.0038 -0.1040  0.0816
 4386W        W21910  10.527  15.816  11.658 -0.1825 -0.2482 -0.1951
 4387W        W21911   3.532   9.919   1.646  0.0199 -0.0067  0.2086
 4388W        W21912  15.775  17.900  14.438  0.0888 -0.3533  0.2421
 4389W        W21913  15.254  14.854  14.845 -0.3805  0.0050 -0.0465
 4390W        W21914  12.359   3.778  12.045 -0.0234  0.1422 -0.1939
 4391W        W21915   2.929   9.987   0.314  0.1500 -0.2071 -0.0693
 4392W        W21916  12.799   5.124   2.125 -0.2320  0.0236  0.1094
 4393W        W21917   1.523   4.407   6.319  0.2983  0.1597  0.1708
 4394W        W21918  13.151   0.551  12.827  0.0351  0.0067  0.0352
 4395W        W21919  16.252   2.560  11.957  0.1067  0.2615  0.2483
 4396W        W21920  16.865   4.009   6.140 -0.0297 -0.0518 -0.0532
 4397W        W21921  17.176   9.195   3.450 -0.0601  0.0816 -0.1202
 4398W        W21922   9.982  12.673   3.606  0.0785 -0.4700 -0.0938
 4399W        W21923   2.431   3.596  14.127 -0.0338  0.0455 -0.0046
 4400W        W21924   6.258   2.139   1.123 -0.0068 -0.1307 -0.3055
 4401W        W21925  15.354  13.011  14.104  0.1258 -0.1993 -0.1092
 4402W        W21926  11.509   9.638   4.323 -0.3672  0.2355 -0.0705
 4403W        W21927   8.473  15.033   2.930  0.1971  0.2728 -0.3791
 4404W        W21928  14.608  13.802   0.782  0.2007  0.0299  0.0100
 4405W        W21929  11.279   3.704  13.019  0.2256  0.2039  0.2260
 4406W        W21930   3.167  14.521   1.835 -0.2595 -0.2297  0.2837
 4407W        W21931  11.313  16.499  14.916 -0.0287 -0.0876  0.1492
 4408W        W21932  17.049  16.725  13.761  0.0156 -0.1267  0.2150
 4409W        W21933   0.447  14.596  10.661 -0.1938  0.2348  0.2808
 4410W        W21934  10.756   0.168   5.301 -0.1853 -0.1017  0.2177
 4411W        W21935   7.221   4.991  14.433  0.2630  0.0074  0.2373
 4412W        W21936  11.438  15.808  15.486 -0.2983  0.1950  0.0303
 4413W        W21937   0.335   8.584   3.391 -0.0571  0.2830  0.0660
 4414W        W21938   7.701   8.596  15.442  0.2373 -0.1007  0.2560
 4415W        W21939   4.936   3.698  13.858 -0.2897 -0.2158 -0.0320
 4416W        W21940   0.171  14.290  14.322  0.0458 -0.2966 -0.3489
 4417W        W21941   6.913  13.497  13.290  0.0055 -0.2456 -0.2462
 4418W        W21942  14.134  10.676   4.380  0.0778  0.0208  0.0163
 4419W        W21943  10.255  17.105   1.348  0.0450 -0.1507  0.1289
 4420W        W21944   9.017   0.940   4.238 -0.0406  0.2381 -0.0294
 4421W        W21945  10.897  15.159   5.154 -0.1013 -0.3411  0.0762
 4422W        W21946   0.325  11.741  13.849  0.0795 -0.3303 -0.0301
 4423W        W21947   0.341  11.114  11.642  0.1505 -0.1694  0.0089
 4424W        W21948   5.913   5.473   2.664  0.1858 -0.3327  0.4256
 4425W        W21949   3.454   9.939   3.168  0.0234 -0.2896 -0.0952
 4426W        W21950  13.892  16.133   1.239 -0.0568  0.0419  0.1057
 4427W        W21951   5.568   7.562  12.385 -0.1121 -0.1037 -0.0360
 4428W        W21952   0.439   1.287  12.666  0.3709  0.1423 -0.1579
 4429W        W21953   1.511   3.331   2.415 -0.2529 -0.0925 -0.0569
 4430W        W21954   0.362   5.091   1.853  0.2800 -0.0025  0.1710
 4431W        W21955  15.479   8.632  15.802 -0.0415 -0.1741 -0.0638
 4432W        W21956   0.623  12.423   2.557  0.0910  0.2698 -0.1724
 4433W        W21957   9.632   1.289   4.732 -0.0301 -0.0082 -0.0232
 4434W        W21958   3.312   2.431   1.378  0.3167 -0.3508  0.0649
 4435W        W21959   2.293  17.366  11.272  0.2495  0.0356  0.2273
 4436W        W21960   1.532   3.493  14.545 -0.1131 -0.4847 -0.2359
 4437W        W21961   3.569   8.362   4.269 -0.0273  0.0892  0.3402
 4438W        W21962   6.486  18.100   0.474  0.0878  0.1208  0.2878
 4439W        W21963   8.427  17.187  11.558 -0.0013  0.2784 -0.1833
 4440W        W21964   5.379   4.128  15.728  0.1708  0.2402  0.3001
 4441W        W21965  12.352   1.203  12.692  0.2594  0.0545  0.1524
 4442W        W21966   6.597   6.948  11.706 -0.0124 -0.1754 -0.1423
 4443W        W21967   8.325  12.430   2.950 -0.0144 -0.1398  0.1389
 4444W        W21968   7.365  10.719   0.795  0.0055  0.4044  0.1667
 4445W        W21969   7.909   6.822   1.375 -0.2785  0.0920  0.1130
 4446W        W21970  15.540   1.917  11.989 -0.0707 -0.0595  0.6016
 4447W        W21971   2.033  17.188   0.990 -0.2813  0.3606  0.3776
 4448W        W21972   6.612  10.619   0.484  0.2826 -0.0909  0.1470
 4449W        W21973   9.564  16.086  16.010 -0.1547 -0.0273  0.0667
 4450W        W21974   4.465  13.320  11.109  0.1225 -0.2770  0.1944
 4451W        W21975  16.444   1.824   0.101 -0.1232  0.2154 -0.4071
 4452W        W21976   7.217   7.899  15.092 -0.3401  0.1943  0.3125
 4453W        W21977   2.738  12.462  14.586 -0.0401  0.2253  0.0713
 4454W        W21978   4.735   6.092  12.915  0.1639 -0.1126  0.1188
 4455W        W21979   1.739  14.343   0.650 -0.1726  0.0338 -0.3123
 4456W        W21980  18.030   0.198   5.613 -0.1076  0.3164 -0.3098
 4457W        W21981  17.493  13.215   3.791  0.0310 -0.1756  0.3260
 4458W        W21982  12.752  13.876  12.336  0.0245  0.0390 -0.0451
 4459W        W21983   5.594   6.845   3.625  0.1266  0.1104  0.1403
 4460W        W21984   3.220  13.965   4.572 -0.0642  0.2726  0.1500
 4461W        W21985   8.042   6.955   3.044 -0.0692  0.2739  0.2956
 4462W        W21986   5.480  13.607  11.965  0.1271  0.2089  0.1874
 4463W        W21987   8.896  16.136   0.398 -0.1011 -0.2025 -0.1955
 4464W        W21988  11.609  17.638  10.996 -0.0297  0.0017 -0.1840
 4465W        W21989   0.692  14.951  14.593 -0.0927 -0.2222  0.0553
 4466W        W21990  16.401   6.932  13.398 -0.0009  0.0203  0.2038
 4467W        W21991   0.184   6.627   0.045 -0.3614 -0.1880  0.1348
 4468W        W21992   6.541  11.744   3.125  0.0501  0.1479 -0.1598
 4469W        W21993   3.962   3.172   5.964 -0.0695 -0.1748 -0.0732
 4470W        W21994  18.050   7.685  15.096  0.2894 -0.2749  0.0617
 4471W        W21995   4.641  13.033  13.406  0.1230  0.3269  0.1701
 4472W        W21996  10.719  10.527  12.823  0.1028  0.1806  0.0060
 4473W        W21997  17.942   6.556  15.895  0.1372  0.1319  0.0574
 4474W        W21998  17.774  12.933   2.900  0.0019  0.0228  0.1649
 4475W        W21999  15.311  12.194   0.347  0.0428  0.2761  0.0680
 4476W        W22000   2.101  15.958  14.777  0.2915  0.1551  0.0836
 4477W        W22001   5.471   0.201   0.310  0.0392  0.0421 -0.1905
 4478W        W22002   2.554   4.021  12.509  0.3478 -0.2633  0.3304
 4479W        W22003   5.936   2.156   0.010 -0.0336 -0.2902 -0.0418
 4480W        W22004   0.599  11.803  15.093 -0.1218 -0.1349  0.2481
 4481W        W22005  11.934  17.215  13.416 -0.0554  0.0891 -0.2400
 4482W        W22006  16.878   2.561   3.885 -0.0939 -0.2481  0.1503
 4483W        W22007  14.606  13.545  11.395  0.0591 -0.3009 -0.0574
 4484W        W22008  10.130   5.348   0.866 -0.0422 -0.2075  0.2276
 4485W        W22009  17.628   2.435   3.840  0.0212 -0.3411 -0.0112
 4486W        W22010   9.757   5.599   4.283 -0.2188 -0.0962 -0.0916
 4487W        W22011  11.268  14.424  15.667 -0.2893  0.0145  0.0931
 4488W        W22012  17.159   2.427   4.592 -0.0651  0.3113  0.0084
 4489W        W22013  17.929  15.647  13.012  0.1647 -0.1016 -0.0780
 4490W        W22014  17.302   0.976  14.984 -0.1383 -0.1138  0.0210
 4491W        W22015   4.087  13.106  13.385  0.1460 -0.2483 -0.2710
 4492W        W22016   4.906  16.958  11.678  0.1640 -0.0076 -0.1044
 4493W        W22017  16.561  15.230   2.266 -0.0360  0.0169  0.1031
 4494W        W22018  11.264  14.855   4.989 -0.2093 -0.1124 -0.0729
 4495W        W22019  15.990   3.686  15.895 -0.2641  0.1678  0.2736
 4496W        W22020  12.885   3.216   4.101  0.3669  0.0692 -0.0465
 4497W        W22021  12.971   7.589   0.775  0.0709 -0.0096  0.0985
 4498W        W22022  17.351   4.742   6.497 -0.0342  0.0703  0.0742
 4499W        W22023  18.136  11.665   5.545  0.1050  0.1021  0.3683
 4500W        W22024  13.192   3.795  13.872 -0.0937  0.0762 -0.1939
 4501W        W22025   3.076   3.461  13.640 -0.1028  0.1291 -0.0567
 4502W        W22026   3.446   5.320   3.272  0.0244 -0.1950  0.1037
 4503W        W22027   2.108   0.193   2.836  0.1782 -0.0294 -0.0870
 4504W        W22028  11.949  15.248   2.162  0.1340  0.2704 -0.2718
 4505W        W22029  11.237  12.326   2.139  0.0222  0.3784 -0.0315
 4506W        W22030   6.206   5.513   1.618 -0.2465 -0.0736 -0.0715
 4507W        W22031  14.951   2.822   5.624  0.1279 -0.2405  0.1781
 4508W        W22032   2.797  12.231  12.013 -0.0385  0.2708 -0.1903
 4509W        W22033  17.231  15.906   2.063 -0.1421 -0.2883 -0.2196
 4510W        W22034   2.085   6.958  15.284 -0.0238 -0.3853 -0.4341
 4511W        W22035   3.303  12.536   3.150 -0.1496 -0.4099  0.2798
 4512W        W22036  18.121   2.146   0.009 -0.0877  0.1068 -0.0421
 4513W        W22037  12.022  16.726   1.465  0.0414 -0.1660  0.0313
 4514W        W22038  18.035   4.733   1.288 -0.0601  0.1604 -0.0130
 4515W        W22039  15.557   3.990   3.814  0.0209 -0.1328  0.1291
 4516W        W22040   0.614  14.733  11.586  0.1179  0.0546  0.3426
 4517W        W22041   4.916  17.762  15.212  0.2140 -0.0648 -0.2036
 4518W        W22042   0.438   6.035  11.293 -0.0862 -0.1643 -0.0196
 4519W        W22043   1.631   4.935  14.667 -0.0277  0.0165 -0.0911
 4520W        W22044   9.732   8.808  13.627  0.0287 -0.2733  0.0345
 4521W        W22045  15.376   3.808   5.365  0.2262 -0.1497 -0.2373
 4522W        W22046  15.947   0.140   0.901 -0.2369  0.1525  0.0634
 4523W        W22047   5.778  12.671   1.336 -0.0492  0.2258  0.0170
 4524W        W22048  13.775   5.948   4.828 -0.0624 -0.2266 -0.1467
 4525W        W22049  15.119  11.304  10.558 -0.0665  0.0382  0.1784
 4526W        W22050   0.544   6.006   5.305  0.0079  0.0979 -0.2055
 4527W        W22051   9.860  17.110  13.543  0.1843  0.3787  0.0013
 4528W        W22052  15.758   0.885  15.491  0.0141 -0.1780  0.3494
 4529W        W22053   6.398   9.169   2.277 -0.2157  0.1584 -0.1327
 4530W        W22054  12.259   6.701   2.993 -0.1825  0.1269 -0.0693
 4531W        W22055  15.370   1.196  12.204  0.5070 -0.0219 -0.2202
 4532W        W22056   9.668  17.510  13.741  0.0493  0.0439  0.0149
 4533W        W22057  13.773   9.096  13.843  0.3377  0.4114  0.3080
 4534W        W22058   4.425   9.498  11.565  0.1474 -0.1230  0.1337
 4535W        W22059  13.120   7.541  14.135  0.0840 -0.0563 -0.3892
 4536W        W22060   2.031   2.501  12.253  0.2177 -0.3416 -0.0484
 4537W        W22061   6.962  12.702  13.919  0.2362  0.2571 -0.0670
 4538W        W22062  13.245  11.684   4.091  0.3526  0.2149 -0.4666
 4539W        W22063  14.454   4.816   4.191 -0.2575 -0.2160  0.2564
 4540W        W22064   5.522   3.725  14.105 -0.1389 -0.0215 -0.1815
 4541W        W22065  17.185  14.525   0.002  0.0213  0.0635  0.0641
 4542W        W22066  18.109  16.453  14.856 -0.0660  0.1058 -0.0834
 4543W        W22067  12.906  14.364  12.778  0.0385 -0.0435  0.1515
 4544W        W22068   9.797   0.938  15.369 -0.0833  0.1878  0.0083
 4545W        W22069   2.540   5.476  10.263 -0.1032 -0.2657  0.0222
 4546W        W22070   4.517  16.478   1.891 -0.2806  0.5101  0.0112
 4547W        W22071   9.445   8.753  15.702  0.2402 -0.0187 -0.0888
 4548W        W22072   6.834  12.190  13.810  0.1169  0.4936 -0.1289
 4549W        W22073  14.394   2.561   2.330 -0.0563 -0.3349 -0.4403
 4550W        W22074  15.981  18.060  13.913 -0.2538 -0.0888  0.2186
 4551W        W22075   9.683   0.211   2.052  0.0657 -0.0240 -0.2509
 4552W        W22076  16.247   0.325  16.085  0.1933  0.2123 -0.0486
 4553W        W22077  13.513  17.877   4.162 -0.1618  0.0214 -0.1475
 4554W        W22078  14.411  17.297  12.008 -0.2473  0.0451 -0.0749
 4555W        W22079  17.350   4.687  13.498  0.2664 -0.2437 -0.0452
 4556W        W22080  15.899  11.708  14.052  0.0124 -0.2711  0.2145
 4557W        W22081   8.094  11.474   2.701  0.0998  0.1679  0.1608
 4558W        W22082  12.140  12.346   2.299 -0.0174 -0.1819 -0.2422
 4559W        W22083  15.165   3.752  15.908  0.0692  0.0659  0.0648
 4560W        W22084   7.238   4.446   3.670 -0.1989 -0.4383  0.0850
 4561W        W22085   0.971  17.071   2.889 -0.1849 -0.3216  0.0129
 4562W        W22086   2.733   7.709  15.844  0.1975 -0.1109 -0.3180
 4563W        W22087   5.405   9.808  11.463  0.2505 -0.0842 -0.0056
 4564W        W22088   2.331  14.173  12.149 -0.0408  0.0387 -0.1222
 4565W        W22089   9.978   4.625   3.369 -0.0410 -0.0738  0.3927
 4566W        W22090   0.867   7.943  11.428  0.2982 -0.0526 -0.0609
 4567W        W22091   3.283   6.519   1.864  0.4747  0.2142 -0.1840
 4568W        W22092  13.745   9.380   4.082  0.2196 -0.0201 -0.1729
 4569W        W22093  14.924   2.780   2.423 -0.1657  0.0511 -0.1959
 4570W        W22094   0.537   1.060  10.827  0.0196  0.0277 -0.1704
 4571W        W22095   9.696  15.097   3.368  0.1631  0.0725 -0.1090
 4572W        W22096   3.051  15.116  11.457  0.0351 -0.2026 -0.0389
 4573W        W22097   1.816  12.953   3.501 -0.2379  0.1520 -0.0762
 4574W        W22098   5.375   0.441  13.525  0.3302 -0.1408  0.1048
 4575W        W22099  11.139  16.422   2.831 -0.0374 -0.0720 -0.1185
 4576W        W22100  16.500   8.479   0.551  0.2486 -0.1885  0.1567
 4577W        W22101   6.645   9.357   1.296  0.3464  0.2676  0.1156
 4578W        W22102   3.705   6.235   2.067 -0.0073  0.1089  0.3146
 4579W        W22103  18.128  18.119   2.496 -0.2119  0.3154  0.2849
 4580W        W22104   9.939   4.904   2.004  0.0027 -0.0170 -0.0407
 4581W        W22105   5.238  13.509  13.381  0.1949  0.1204 -0.3007
 4582W        W22106  17.764   3.594   0.264 -0.1027 -0.1326 -0.1011
 4583W        W22107  15.324  14.675  13.416 -0.0091 -0.2160  0.4984
 4584W        W22108   6.983   3.455   4.444 -0.0960  0.1135  0.4603
 4585W        W22109   8.737   1.438  15.585 -0.1045 -0.0740 -0.1954
 4586W        W22110  13.443   5.901   3.983  0.2935  0.0654 -0.0300
 4587W        W22111  15.287   3.326   0.839 -0.1785  0.1268 -0.2771
 4588W        W22112   7.854   9.008   0.256  0.1951 -0.1502 -0.2481
 4589W        W22113  16.658   0.699   2.522  0.1893  0.1627 -0.6608
 4590W        W22114   5.574   8.639  10.610 -0.1391  0.1423 -0.0736
 4591W        W22115   4.581  15.643  15.966 -0.3376 -0.0983 -0.1233
 4592W        W22116  15.975   0.228   1.417 -0.0017 -0.2065 -0.1599
 4593W        W22117   0.819   2.152  13.087  0.2951 -0.3007 -0.2209
 4594W        W22118   3.081   6.698   3.901  0.3689  0.2164 -0.2863
 4595W        W22119   3.887   9.670  13.310  0.2852  0.2775 -0.1092
 4596W        W22120  10.714   5.255   1.418 -0.0354  0.3618 -0.0411
 4597W        W22121  11.387  16.884  13.543  0.0714  0.0769  0.4396
 4598W        W22122  12.611  17.224  14.625  0.2491 -0.0636 -0.1809
 4599W        W22123   0.823  14.568  14.338  0.0642 -0.1331 -0.2279
 4600W        W22124   8.027   3.013   5.262 -0.1673  0.1469  0.4679
 4601W        W22125   4.736  11.394   0.043  0.2231 -0.0161  0.0614
 4602W        W22126   0.627  10.418   3.966 -0.1495 -0.1873  0.1125
 4603W        W22127   6.787  10.001   1.952 -0.0916 -0.1224 -0.1332
 4604W        W22128  17.766   0.286   4.334 -0.0308  0.0315  0.1145
 4605W        W22129   3.924  17.235  14.519  0.1497 -0.2368  0.4829
 4606W        W22130   6.432  14.134  15.888  0.0153  0.0820 -0.0883
 4607W        W22131   6.665   1.160   3.314  0.3817 -0.0063  0.0560
 4608W        W22132  13.869  14.363  13.196 -0.4335  0.0077  0.0284
 4609W        W22133   1.483  14.370   4.718 -0.0175 -0.1739 -0.0764
 4610W        W22134   6.064  12.048  15.063 -0.2081  0.0131 -0.1597
 4611W        W22135  12.710   9.733   1.581  0.3734 -0.0490 -0.0614
 4612W        W22136  12.048   1.792  11.265  0.3514 -0.2766  0.3091
 4613W        W22137  15.344   0.738  12.395  0.0038 -0.0252 -0.0131
 4614W        W22138   6.480  14.638   0.122  0.2803  0.0114  0.0129
 4615W        W22139   9.599   2.869  12.198  0.0314 -0.0181  0.1667
 4616W        W22140  14.781   4.296  12.470 -0.2350 -0.0591  0.0019
 4617W        W22141  18.094   0.094  13.291  0.1602  0.0950  0.2007
 4618W        W22142  11.824   6.848  12.188 -0.0826 -0.0030  0.2332
 4619W        W22143  14.924   6.977  13.998  0.0620  0.2192  0.4430
 4620W        W22144   2.897   6.076   3.134 -0.0752  0.1646  0.0783
 4621W        W22145  14.156   0.089   3.486  0.1789  0.3116 -0.3159
 4622W        W22146   0.147   4.681   3.581 -0.0318 -0.0653  0.0828
 4623W        W22147   1.304  12.436  13.053 -0.3344  0.1369 -0.0332
 4624W        W22148  11.549  15.624   1.683  0.0220 -0.0899 -0.0463
 4625W        W22149   3.535   4.526  12.953 -0.0943 -0.2131  0.0318
 4626W        W22150   0.118   9.094   4.252  0.0983 -0.0724  0.0695
 4627W        W22151   5.163  11.003  15.196  0.1411  0.0735  0.0136
 4628W        W22152   7.327  14.312   0.542 -0.0838 -0.1057 -0.1465
 4629W        W22153   0.274  14.922  15.507  0.0785 -0.0728  0.0092
 4630W        W22154  10.664  17.882  14.966  0.1306  0.2154 -0.2584
 4631W        W22155   6.523   0.744  14.918  0.1376  0.2913 -0.1079
 4632W        W22156  15.398   4.938   1.617 -0.0897  0.1657  0.2109
 4633W        W22157   2.812  14.181   4.417  0.2211 -0.2634  0.4344
 4634W        W22158   4.731  17.114  16.062  0.2662 -0.1341 -0.2192
 4635W        W22159   3.837   3.753  10.936  0.2846  0.0019  0.2239
 4636W        W22160   3.414  10.718  15.011  0.1564  0.3068  0.1526
 4637W        W22161  12.536   7.131   2.865  0.0867 -0.0397 -0.1646
 4638W        W22162   2.402   1.021   4.748  0.1574 -0.0482 -0.1665
 4639W        W22163  16.775  15.393   5.168 -0.0680 -0.0707 -0.4728
 4640W        W22164  15.933   9.232  14.194 -0.1943 -0.1344  0.3535
 4641W        W22165  17.619   0.077   0.446  0.2468  0.0081 -0.0662
 4642W        W22166  16.397  11.649   3.658 -0.0629  0.3573  0.0464
 4643W        W22167   4.444  14.844  15.549  0.1639  0.0122 -0.1433
 4644W        W22168  14.183   8.944  14.175  0.1687  0.1269  0.2856
 4645W        W22169   3.312   7.944  12.408 -0.0443 -0.0612 -0.1147
 4646W        W22170   2.705  15.028  12.397 -0.1570 -0.1057 -0.1562
 4647W        W22171  11.853  14.558  11.821  0.2215  0.0530  0.1804
 4648W        W22172   8.002   3.381  15.585  0.2759  0.0346  0.2074
 4649W        W22173   6.074  14.286   3.564  0.0685 -0.3994 -0.3426
 4650W        W22174   5.336   9.354  11.233  0.1337 -0.1101 -0.1047
 4651W        W22175   4.041  17.227  15.260 -0.1670  0.1682 -0.2151
 4652W        W22176  18.132   6.735   3.733 -0.3407  0.1336 -0.3002
 4653W        W22177  17.953   5.978   4.815  0.3750  0.2370 -0.2131
 4654W        W22178  14.678  15.583   4.085 -0.5437  0.1276  0.2238
 4655W        W22179   0.453   7.345  11.248  0.0698 -0.0314  0.0250
 4656W        W22180   8.118   2.398   1.974  0.0629 -0.1825 -0.1034
 4657W        W22181   2.217   4.293  12.752 -0.2506 -0.2032 -0.1074
 4658W        W22182  10.955   0.015  14.698 -0.0418 -0.0411 -0.1273
 4659W        W22183  17.526  13.237  15.662 -0.2033 -0.2209 -0.2024
 4660W        W22184   3.819   3.129   3.815 -0.0682  0.2175 -0.0646
 4661W        W22185  13.988   2.055  11.639  0.0189 -0.4643 -0.2588
 4662W        W22186   9.819  17.955   2.435 -0.1770 -0.2247  0.0814
 4663W        W22187  14.756   8.826  14.554 -0.5174 -0.1466 -0.2235
 4664W        W22188   6.747   8.708   1.488  0.2739 -0.0040 -0.0071
 4665W        W22189  16.264   3.243  15.729 -0.0743  0.2402 -0.0848
 4666W        W22190   9.369   3.437  11.954 -0.1418  0.2955  0.0737
 4667W        W22191   9.432   5.559   3.625 -0.0043  0.1716  0.0936
 4668W        W22192   0.258  15.959  14.849 -0.0017 -0.0989  0.0855
 4669W        W22193  11.083  14.967  11.679  0.2298 -0.0707  0.2833
 4670W        W22194  17.374   4.748  16.053  0.0308  0.0350  0.1186
 4671W        W22195  16.408  16.787   4.147  0.0565  0.2079  0.1773
 4672W        W22196   8.423  11.127   0.798 -0.2684  0.1719  0.0738
 4673W        W22197   4.664   4.116   1.348  0.0220  0.2585 -0.2457
 4674W        W22198   3.913   5.498   3.090 -0.0519  0.4550  0.1805
 4675W        W22199  17.760  17.993   2.778 -0.0425  0.0376 -0.1804
 4676W        W22200  16.679  11.512  15.243  0.0796 -0.2185 -0.2101
 4677W        W22201  12.329  12.928   2.495  0.2713 -0.3163 -0.1006
 4678W        W22202  13.821  15.598   4.763 -0.0556 -0.3598 -0.2319
 4679W        W22203   3.937   1.335  15.083  0.1244  0.0934  0.1908
 4680W        W22204  13.061  17.840   4.686  0.1393  0.1791 -0.2908
 4681W        W22205  16.127  15.953  15.949 -0.1147 -0.0556 -0.2947
 4682W        W22206  17.733   0.005   3.357  0.3352  0.0277 -0.2159
 4683W        W22207   5.538   7.846   1.087  0.0811  0.0390  0.0603
 4684W        W22208   9.464   4.937  15.092  0.1285 -0.5367 -0.3015
 4685W        W22209   2.734   4.813  15.382  0.1288 -0.0025 -0.0230
 4686W        W22210   4.738  13.547   0.691 -0.1851  0.0467 -0.1089
 4687W        W22211  11.418  12.647  13.516  0.4134  0.0735  0.0504
 4688W        W22212   5.441  13.108   0.487  0.1781 -0.2181 -0.0170
 4689W        W22213   7.864   1.474   3.817 -0.0971  0.0748  0.3167
 4690W        W22214  17.486  17.315   0.345  0.2643  0.0061  0.0589
 4691W        W22215   0.431  14.379   4.579  0.4060 -0.2312  0.0462
 4692W        W22216  15.239   3.461   2.343  0.1990 -0.0161  0.2256
 4693W        W22217   9.417  17.236   0.587 -0.4167  0.1961 -0.1930
 4694W        W22218   1.477   8.005  16.081  0.0690  0.0921  0.1547
 4695W        W22219  14.279  12.943   1.689 -0.0649  0.1527  0.0682
 4696W        W22220   8.325   8.407   4.448 -0.0571 -0.0488  0.0087
 4697W        W22221  15.756   7.161   4.246 -0.2072 -0.0649  0.1548
 4698W        W22222  11.861   1.188   1.260  0.0125  0.2744 -0.0025
 4699W        W22223  10.566  13.012   1.422 -0.1952  0.0433  0.0624
 4700W        W22224  15.975   3.925   3.516  0.1912 -0.0390 -0.1757
 4701W        W22225  18.078   4.639  12.528  0.0097 -0.2600  0.2418
 4702W        W22226  12.699   1.070   4.946  0.1220 -0.1679  0.1245
 4703W        W22227  12.332   4.229   2.192  0.2925  0.2806 -0.0844
 4704W        W22228  14.831  10.325  15.229  0.0392  0.0912  0.0448
 4705W        W22229  14.529   2.676   1.513 -0.0277 -0.0681 -0.1552
 4706W        W22230   2.926  14.966   1.691  0.0458 -0.2740  0.0201
 4707W        W22231   7.243   6.456  12.043 -0.2451  0.0535  0.0190
 4708W        W22232   9.171  11.478   1.170  0.4068  0.1455 -0.2024
 4709W        W22233  11.067  12.304  15.478 -0.0708  0.1266 -0.2997
 4710W        W22234   8.636  14.639   2.595 -0.2094  0.0139  0.0061
 4711W        W22235   5.717  16.217   1.391  0.2669  0.2416 -0.0406
 4712W        W22236   6.833  16.095   4.477  0.0373 -0.3555 -0.1389
 4713W        W22237   2.677   6.655   5.001  0.1740  0.0173  0.0239
 4714W        W22238  14.594  12.166  12.263  0.0328 -0.0803 -0.0691
 4715W        W22239  13.478  17.223   5.623  0.1880 -0.1520 -0.0626
 4716W        W22240   3.058   6.955   2.051 -0.2194  0.0019 -0.0880
 4717W        W22241  11.983  16.237   3.326  0.1771 -0.1508 -0.0133
 4718W        W22242  11.829  10.456  11.888 -0.1125 -0.0379  0.0828
 4719W        W22243  12.824  16.674   2.761 -0.1723 -0.1179  0.0505
 4720W        W22244  15.021  12.016  14.415  0.2843 -0.0609  0.0660
 4721W        W22245  18.074  15.241   4.725  0.0186  0.0416  0.1358
 4722W        W22246   8.339   2.920  15.669  0.0808  0.0112  0.2270
 4723W        W22247  16.796   3.636   2.883  0.1524 -0.2637 -0.0928
 4724W        W22248   5.220   7.572  14.511  0.2317 -0.0054 -0.0063
 4725W        W22249   8.361  12.512  11.217 -0.1573 -0.1638  0.1797
 4726W        W22250  10.178  12.692   2.875  0.0590  0.2483 -0.0590
 4727W        W22251  14.854   5.647  14.652 -0.1401 -0.0078  0.0556
 4728W        W22252  10.004  15.021   1.158  0.3193  0.3655  0.0237
 4729W        W22253  10.341  11.228  13.863  0.2465  0.1104  0.0875
 4730W        W22254  17.274  16.229   2.878  0.0510 -0.1933  0.2005
 4731W        W22255   8.784   7.131   2.552 -0.0882  0.1622  0.3218
 4732W        W22256   2.493   1.590   2.577 -0.4485 -0.1368  0.0771
 4733W        W22257  12.748   6.832   1.594 -0.3447 -0.1168  0.2006
 4734W        W22258  11.325  16.325  16.011 -0.1812 -0.0820  0.1327
 4735W        W22259   3.934   2.961  15.252  0.0924 -0.2228 -0.1001
 4736W        W22260  11.460   2.149   2.283 -0.1178  0.1968  0.0702
 4737W        W22261  16.322   4.787   2.663  0.0631 -0.0561  0.2041
 4738W        W22262   3.752   5.412   3.870  0.2446  0.2125 -0.1172
 4739W        W22263   9.579   1.346   0.690 -0.1229  0.2706  0.1151
 4740W        W22264   3.430   9.299  11.343  0.1052 -0.3863  0.1825
 4741W        W22265   9.678  10.566   2.370 -0.2515  0.0148  0.0294
 4742W        W22266   4.380  14.814  11.309 -0.2694 -0.2718 -0.0346
 4743W        W22267  13.561  17.067  15.074 -0.1263  0.0642  0.0399
 4744W        W22268  11.336  11.837   1.968 -0.1556  0.1601 -0.6384
 4745W        W22269   9.270  17.921   3.473 -0.0143  0.0092 -0.0134
 4746W        W22270   4.455   0.076   2.434  0.0619  0.1198 -0.1889
 4747W        W22271  13.912   3.405   0.172  0.2532 -0.2956 -0.1011
 4748W        W22272   7.557  14.137   5.658  0.3153 -0.3575  0.0702
 4749W        W22273   5.470   5.782   1.214 -0.0835 -0.1421  0.1934
 4750W        W22274  11.834  13.686   1.459 -0.4374  0.1896 -0.2341
 4751W        W22275   7.905   7.285  15.682 -0.1865  0.0348 -0.2410
 4752W        W22276   3.128   0.784   3.658 -0.0344  0.1806  0.3814
 4753W        W22277  15.341  13.830  11.397 -0.1977 -0.1062  0.1853
 4754W        W22278  12.831   9.265   1.612 -0.4615  0.1189 -0.1283
 4755W        W22279   8.681   7.256   4.614  0.0442  0.0398  0.0945
 4756W        W22280  12.510  16.336   3.782 -0.0654 -0.2400 -0.1234
 4757W        W22281   4.084   2.287  13.700  0.3177  0.1311  0.1421
 4758W        W22282   7.320   6.328   4.242 -0.0536  0.2509  0.2935
 4759W        W22283   5.781   1.597  14.039  0.4521 -0.0758  0.0160
 4760W        W22284   8.478  12.862  14.478  0.0796  0.0981 -0.0937
 4761W        W22285  12.390   8.835  15.790  0.1275 -0.0463 -0.1149
 4762W        W22286   1.785  14.887  12.065 -0.0757  0.0799  0.1234
 4763W        W22287  10.130   5.662   3.368  0.4638  0.2648 -0.3360
 4764W        W22288   7.591  10.284  13.475 -0.0675  0.0184  0.0836
 4765W        W22289   2.175   0.724  13.748  0.1880  0.0305 -0.0571
 4766W        W22290   0.957  15.867  11.766 -0.2169 -0.0520 -0.3582
 4767W        W22291  10.466   2.487  12.192 -0.2573  0.2078 -0.3962
 4768W        W22292   2.949  17.365   1.566 -0.0702 -0.3698 -0.2056
 4769W        W22293   2.634  10.137  13.573  0.2031 -0.2461 -0.0492
 4770W        W22294   3.281   0.653  11.439  0.1089 -0.4466 -0.0192
 4771W        W22295   0.494   4.039  10.566 -0.1358 -0.2395 -0.5445
 4772W        W22296   1.938   1.877   2.644  0.1728  0.1925 -0.1192
 4773W        W22297  17.637  11.841   3.961  0.1836 -0.2104  0.0283
 4774W        W22298   8.887  12.293  15.256  0.0235  0.0209  0.0507
 4775W        W22299  18.132  15.790   3.847 -0.2049 -0.0158  0.0120
 4776W        W22300   7.724   4.268  10.992 -0.1096 -0.3305  0.1325
 4777W        W22301   4.994   7.726   4.830 -0.1830  0.2476 -0.0352
 4778W        W22302  12.077   2.570  12.464  0.0667 -0.3111  0.0683
 4779W        W22303   1.366   2.971  14.374 -0.1559  0.0625 -0.3571
 4780W        W22304  10.480  15.359  15.301 -0.0493  0.1792 -0.2306
 4781W        W22305   2.696  13.670   1.443 -0.2397  0.0292 -0.1882
 4782W        W22306  16.954   5.714  14.982  0.1135 -0.0546  0.1988
 4783W        W22307   0.750   4.918  14.171 -0.0564  0.1640  0.1163
 4784W        W22308   5.927  17.388   1.977  0.1211 -0.0510 -0.1418
 4785W        W22309   2.020  13.060   2.640 -0.0160 -0.0795  0.1077
 4786W        W22310  12.887  17.655   3.386  0.0764 -0.1175  0.5718
 4787W        W22311  11.530  16.082  14.631  0.1554  0.0468 -0.1001
 4788W        W22312  15.805   1.864  14.148 -0.5179  0.1555 -0.0170
 4789W        W22313  12.513  13.851   3.064 -0.0226 -0.3021  0.2450
 4790W        W22314  16.997  14.405   4.920 -0.1489  0.3158 -0.5886
 4791W        W22315   6.277   8.767  15.628 -0.0017 -0.2270 -0.0683
 4792W        W22316   7.664   2.748   0.410  0.1172  0.2951  0.1082
 4793W        W22317   1.760   0.681   0.807  0.1321 -0.2400 -0.2259
 4794W        W22318   3.589   9.076  12.448  0.1648 -0.1589 -0.2206
 4795W        W22319   4.390   4.507   4.972 -0.1155  0.0270 -0.1238
 4796W        W22320  15.041   4.097   4.071 -0.0214  0.1918  0.2159
 4797W        W22321   2.589   6.648   2.443 -0.0358  0.0498 -0.1520
 4798W        W22322  11.292  15.581  14.818  0.1076  0.1412 -0.4099
 4799W        W22323   6.533  13.973  12.458 -0.1932 -0.1454 -0.0111
 4800W        W22324   8.801   2.703  13.615  0.2420 -0.4018 -0.1707
 4801W        W22325  15.917  10.743  13.224  0.1570  0.1314 -0.1654
 4802W        W22326  10.822  17.224  15.439 -0.0533  0.1909  0.3436
 4803W        W22327  16.934   2.417  12.590  0.0656  0.0091  0.0632
 4804W        W22328   4.821   4.193   0.301  0.0808  0.1705 -0.0358
 4805W        W22329  15.248   0.936  14.325  0.3089 -0.1059 -0.1881
 4806W        W22330   5.358  12.349   0.897  0.0282  0.0162 -0.1734
 4807W        W22331   7.216  11.403  14.120 -0.2208 -0.2068 -0.1077
 4808W        W22332  10.637   1.651  15.700 -0.1348 -0.1175  0.2754
 4809W        W22333   1.087  16.557   0.832  0.1066  0.1298 -0.1358
 4810W        W22334  13.331  13.512   3.609 -0.0700  0.1934 -0.3380
 4811W        W22335   2.229  12.173  12.679 -0.2201  0.1412 -0.0197
 4812W        W22336   0.040  11.914  11.982 -0.0691 -0.1631  0.1754
 4813W        W22337   5.419   2.931   2.156  0.0950 -0.3476 -0.1252
 4814W        W22338   2.122   9.329   3.565  0.0429 -0.0171 -0.1346
 4815W        W22339   1.590  11.914   4.945  0.0819 -0.0788  0.0072
 4816W        W22340   3.189   8.560  13.902  0.2973  0.3452  0.0048
 4817W        W22341   5.222   1.727   3.052 -0.1348  0.3198 -0.0029
 4818W        W22342   0.092   9.834  11.240 -0.3002  0.1356 -0.1613
 4819W        W22343  13.141   1.970  12.127 -0.0284  0.0507  0.0224
 4820W        W22344  15.489   9.956  11.372  0.1532  0.4049 -0.1194
 4821W        W22345   5.142   3.976  14.340 -0.2345  0.0214 -0.0535
 4822W        W22346   3.966  10.830   3.216  0.0937 -0.0141  0.2908
 4823W        W22347   8.257   3.254   3.866 -0.0146  0.1373 -0.1218
 4824W        W22348   4.271   5.678   6.068  0.2956  0.0541  0.0304
 4825W        W22349  17.396   9.955   6.034 -0.0811 -0.0273 -0.1523
 4826W        W22350   4.809  14.299   4.021 -0.1465  0.0819  0.2110
 4827W        W22351   8.701  15.449   0.465  0.0999 -0.0638  0.2478
 4828W        W22352  12.341  11.669  13.565 -0.0763 -0.0594 -0.0859
 4829W        W22353   3.256   1.552  13.900 -0.0319 -0.0890 -0.2616
 4830W        W22354   6.579   2.082  11.044 -0.4548  0.1350 -0.2015
 4831W        W22355  17.747   0.106   3.827 -0.4640  0.0990 -0.2132
 4832W        W22356  14.970   3.344   4.629  0.0219  0.2162 -0.1385
 4833W        W22357   7.989  16.370   2.598  0.0279  0.2760 -0.0104
 4834W        W22358  14.413   6.246   5.839  0.2318 -0.0093  0.0746
 4835W        W22359  16.420   5.860   3.970  0.0568 -0.0384 -0.1545
 4836W        W22360  13.903  16.942   4.316 -0.3695  0.0145 -0.1990
 4837W        W22361   0.427   1.893  11.809  0.0344 -0.2698  0.3341
 4838W        W22362  16.235  11.351   1.713  0.1119 -0.1159  0.2490
 4839W        W22363   6.743   6.703   1.777  0.0067  0.0427  0.0747
 4840W        W22364   5.554   9.403  11.706  0.2233  0.2114  0.0351
 4841W        W22365   6.553  16.310  13.305 -0.2668  0.1917 -0.1922
 4842W        W22366   3.553   4.168   0.785  0.0073 -0.1255  0.1404
 4843W        W22367  11.837  17.909  15.579 -0.0757 -0.0699  0.1687
 4844W        W22368   2.674   8.906  14.567 -0.0821 -0.2107 -0.0622
 4845W        W22369   5.217  17.594  13.323 -0.0789 -0.0405 -0.0384
 4846W        W22370   0.106  11.648   2.238 -0.2948 -0.0036 -0.0149
 4847W        W22371   3.467   9.440   3.633  0.1915 -0.0711  0.0047
 4848W        W22372  10.382   2.860  13.601 -0.1101 -0.1861 -0.1783
 4849W        W22373  16.488   3.541  13.853  0.1706  0.1872  0.2773
 4850W        W22374   1.182   7.626  11.770  0.2056  0.2072  0.2423
 4851W        W22375   6.789  11.121  13.742  0.1695 -0.1768 -0.0701
 4852W        W22376   6.754   8.444  12.895  0.1045  0.2959 -0.1013
 4853W        W22377   4.579  11.061  15.778  0.0919  0.0283 -0.3074
 4854W        W22378   2.767   0.605   1.210 -0.1199  0.3365 -0.0538
 4855W        W22379   2.817   5.093   4.307 -0.0598  0.1363  0.2675
 4856W        W22380  14.466  17.582  15.711  0.2055 -0.0732  0.0203
 4857W        W22381  14.694  11.064   4.903 -0.0378  0.0317 -0.0994
 4858W        W22382  14.227   8.336   2.242  0.0449 -0.0176 -0.0153
 4859W        W22383   9.734   0.549  14.977  0.1110  0.3019 -0.4791
 4860W        W22384   2.932   4.640   2.496 -0.1026 -0.0420  0.1027
 4861W        W22385  10.569   8.450   3.140  0.1528  0.2169 -0.1318
 4862W        W22386   7.123   9.073   1.409 -0.1334 -0.0140 -0.3572
 4863W        W22387   7.087   0.131  10.869 -0.1809 -0.2942 -0.1503
 4864W        W22388   8.255   4.964   2.418  0.0550 -0.3266 -0.0052
 4865W        W22389   5.106  17.045   0.281 -0.0363  0.0531 -0.0908
 4866W        W22390  13.960   6.153  12.070 -0.1395 -0.2493  0.2641
 4867W        W22391   8.452  11.379  15.568 -0.0928 -0.0294 -0.0115
 4868W        W22392   7.099  14.874  12.706 -0.0382  0.2302 -0.0102
 4869W        W22393   9.503   9.012   6.144  0.0716 -0.0361  0.0629
 4870W        W22394   7.091   1.203   0.834 -0.0496 -0.0996  0.1265
 4871W        W22395   0.993   8.535   0.824  0.0880 -0.0741 -0.0259
 4872W        W22396   3.565   9.012   5.003  0.0637  0.2002  0.4070
 4873W        W22397   2.735   1.490  14.045 -0.0518  0.1201 -0.1192
 4874W        W22398  11.482  15.476   1.219  0.0983 -0.1377  0.1260
 4875W        W22399   3.084   7.383  10.890 -0.3643 -0.2664  0.0238
 4876W        W22400  13.772  15.206   3.170 -0.2306 -0.2532  0.0346
 4877W        W22401  14.171  12.805  12.281 -0.0669 -0.1143 -0.2125
 4878W        W22402   5.272  10.068  11.920 -0.0354  0.0434  0.0839
 4879W        W22403  17.322   1.900  15.318  0.0199  0.0158 -0.2005
 4880W        W22404  12.645  10.668   4.996  0.0141 -0.0221  0.2066
 4881W        W22405  11.653   7.375   3.302 -0.1011  0.1270 -0.2012
 4882W        W22406  17.881   5.785  14.973  0.0892  0.0881  0.2639
 4883W        W22407   0.232   5.158  15.706  0.0045 -0.0622 -0.0523
 4884W        W22408   2.572  16.425  12.561  0.1135 -0.1969  0.0789
 4885W        W22409  13.422   4.534  11.986 -0.2431 -0.0830  0.0637
 4886W        W22410   5.378   6.670   5.701  0.0830 -0.2928 -0.1025
 4887W        W22411  16.751  14.355   1.268 -0.0139  0.0082 -0.1040
 4888W        W22412   1.997   5.916   2.463  0.1544  0.2640 -0.2243
 4889W        W22413  17.026   6.192   1.605  0.1846 -0.1435 -0.1410
 4890W        W22414  14.907  17.357   4.190 -0.0191 -0.1541  0.2238
 4891W        W22415  17.172   2.724   1.679  0.3254 -0.1017 -0.2211
 4892W        W22416   4.318  16.013   3.612  0.0136 -0.1858 -0.4970
 4893W        W22417   1.079  16.182   2.984 -0.3464  0.2458 -0.2280
 4894W        W22418  14.921   3.129   5.113 -0.2185  0.0530 -0.1476
 4895W        W22419  13.934  12.479  11.746 -0.0506  0.1024  0.1777
 4896W        W22420  10.426  13.822   3.962  0.0560 -0.3975 -0.2182
 4897W        W22421  14.245   2.944   3.952 -0.1726 -0.2020  0.0115
 4898W        W22422   4.718   0.450  11.245  0.0157 -0.1550  0.2536
 4899W        W22423   3.414  15.162  14.892 -0.0534  0.0173  0.3295
 4900W        W22424   8.386  17.752  15.031 -0.0557 -0.0335  0.1229
 4901W        W22425   2.661   6.679   1.767 -0.1184  0.2446  0.0500
 4902W        W22426  16.191  10.038   2.516  0.2349 -0.1195  0.1945
 4903W        W22427   1.996   9.888  11.310 -0.4083  0.2924 -0.2847
 4904W        W22428   9.010  13.281   4.346  0.5246  0.0835 -0.1675
 4905W        W22429  15.715  12.669   2.076  0.0566  0.1385  0.0670
 4906W        W22430   0.234  15.927   3.185 -0.1992  0.3007  0.0764
 4907W        W22431  11.844   2.320  15.879 -0.0214  0.1931  0.1314
 4908W        W22432   6.214   4.513  12.113 -0.1511  0.1121 -0.3694
 4909W        W22433   5.466   7.761   3.584 -0.1507  0.0228 -0.0951
 4910W        W22434  16.091   9.014  12.863 -0.0354  0.0617 -0.2571
 4911W        W22435  16.186   1.155   3.476  0.1094  0.0709  0.3172
 4912W        W22436   8.563  17.174  13.961 -0.0905  0.3725  0.0945
 4913W        W22437   3.269  14.110   2.166 -0.1317 -0.0791  0.1683
 4914W        W22438   0.064  18.101  15.341 -0.1957 -0.2748  0.1155
 4915W        W22439   4.685   7.275  16.021  0.0839 -0.0374 -0.0733
 4916W        W22440   9.809   6.651   2.553  0.0255 -0.0970 -0.3424
 4917W        W22441   0.284  16.721  14.139  0.2119 -0.0177  0.3518
 4918W        W22442  16.669   5.347   4.659  0.3064  0.1635  0.1692
 4919W        W22443  17.271   5.419   3.642  0.1037 -0.0411 -0.2443
 4920W        W22444   4.976   9.284  13.828  0.0222 -0.2704  0.2407
 4921W        W22445   8.161  11.446   0.001 -0.3776 -0.4236  0.0495
 4922W        W22446   8.591   0.186   1.149 -0.0132 -0.0331  0.2580
 4923W        W22447   2.956   5.328  12.057  0.0949  0.2665  0.0160
 4924W        W22448  17.958  13.517   3.708  0.3736 -0.0402 -0.2515
 4925W        W22449   1.813   4.057  14.675 -0.1667  0.0810 -0.0485
 4926W        W22450   9.850  15.983   3.914  0.1090 -0.1758  0.3474
 4927W        W22451  12.778  11.861   2.712  0.2307 -0.2718  0.2062
 4928W        W22452   0.737   1.545  11.367 -0.0963 -0.0341 -0.0218
 4929W        W22453   3.250   8.315   1.138 -0.3529 -0.0515  0.0580
 4930W        W22454   6.419   6.196  15.646  0.1736  0.2523  0.0976
 4931W        W22455  15.774   4.439   3.510  0.1732 -0.2146 -0.0382
 4932W        W22456   6.288   7.601  13.697  0.1155 -0.0058  0.0444
 4933W        W22457  12.970   5.244   1.336  0.1123 -0.1232  0.0191
 4934W        W22458  15.129  16.839   1.623  0.3407 -0.4008  0.0335
 4935W        W22459  14.168  17.399  15.278  0.1225  0.0112 -0.0704
 4936W        W22460   0.895  13.407  11.936  0.1557  0.0029 -0.1627
 4937W        W22461  14.250  10.100   4.391  0.0928  0.2794 -0.2555
 4938W        W22462   8.810   5.052  14.461 -0.2310 -0.0271 -0.0299
 4939W        W22463   8.400  11.635  15.145  0.1455  0.2180  0.2529
 4940W        W22464   9.638   6.060  14.711 -0.0725 -0.2711 -0.4153
 4941W        W22465   6.905   7.431   2.171 -0.0149 -0.0025  0.3440
 4942W        W22466   4.613   0.100  15.929  0.0660 -0.1091  0.2874
 4943W        W22467  17.453  11.894  14.617 -0.2157  0.1114  0.2492
 4944W        W22468   3.895   8.516   4.683 -0.0593 -0.3078 -0.0545
 4945W        W22469  13.699   9.999   5.588  0.2291 -0.0944  0.1017
 4946W        W22470   6.429   7.399  15.812 -0.0593  0.2451 -0.1874
 4947W        W22471  18.131   7.293   3.850  0.2399  0.0448 -0.0923
 4948W        W22472  15.662  12.760  13.774 -0.0115  0.1174  0.0424
 4949W        W22473   2.281   9.722   3.899 -0.1863 -0.2510 -0.0242
 4950W        W22474  11.859  13.935  10.489 -0.1302 -0.2936 -0.0261
 4951W        W22475   0.858   0.193  14.061  0.2071 -0.3584 -0.0401
 4952W        W22476   2.434  14.568  13.552  0.1311  0.0090 -0.0544
 4953W        W22477  14.426  14.826   5.599  0.2658  0.5001  0.2674
 4954W        W22478   4.893   0.172   0.274 -0.0511  0.0309  0.0709
 4955W        W22479   7.218   5.946   3.997 -0.0980  0.1085 -0.0869
 4956W        W22480  14.385  16.057  11.532  0.1115  0.0857 -0.1135
 4957W        W22481  13.796   7.882   3.056  0.0678 -0.0044  0.1967
 4958W        W22482  15.300  10.671  14.591  0.5158 -0.1358  0.3851
 4959W        W22483  17.758   9.260  14.686 -0.2519 -0.1020  0.1126
 4960W        W22484  16.181   9.730  11.008 -0.1353 -0.0328  0.0682
 4961W        W22485   7.863   9.952  11.775 -0.2499  0.1859  0.2123
 4962W        W22486  17.721  18.000  16.082 -0.0554  0.2375 -0.0393
 4963W        W22487   2.761   4.847  12.032  0.0639  0.3046  0.0121
 4964W        W22488   5.528   5.160   2.172 -0.0442  0.0567 -0.2281
 4965W        W22489  11.283   2.442  12.464 -0.0961 -0.0948 -0.1212
 4966W        W22490   4.918   0.550   3.374  0.4079 -0.1310  0.1500
 4967W        W22491   5.791   8.879   1.419 -0.1031  0.2617 -0.0196
 4968W        W22492   7.133  12.752  14.924 -0.0128  0.2432 -0.2779
 4969W        W22493   7.156   6.954   1.924 -0.4775 -0.0932  0.1123
 4970W        W22494  13.194   2.448  11.049 -0.3034 -0.1833 -0.2495
 4971W        W22495  13.923  14.025  15.420  0.0746  0.2190  0.1611
 4972W        W22496  14.199   2.369  13.054 -0.2083  0.2432  0.2591
 4973W        W22497   5.790   7.922   5.380  0.1359 -0.2736  0.0825
 4974W        W22498   6.387  17.970  15.721  0.2182  0.0965  0.0112
 4975W        W22499  17.283  14.675   3.807 -0.0612  0.2324 -0.2253
 4976W        W22500   6.180   3.860   3.880 -0.2832 -0.1317 -0.1426
 4977W        W22501   8.970   9.679  12.468 -0.2197  0.1237  0.0814
 4978W        W22502   1.436   2.660   4.955  0.1366  0.3420  0.1036
 4979W        W22503   7.112   8.952   4.048  0.1140 -0.5189 -0.1562
 4980W        W22504  17.915   2.419  12.401 -0.0710 -0.1794 -0.1742
 4981W        W22505   4.795   0.858  15.613 -0.2782 -0.0228 -0.0005
 4982W        W22506   3.209  11.214  14.907  0.1419  0.2033 -0.2957
 4983W        W22507   5.356   6.431  11.173  0.3453  0.1005  0.0777
 4984W        W22508   0.579   7.916   3.711  0.0726 -0.0408  0.1500
 4985W        W22509   9.084   4.167  13.153  0.0252 -0.0984  0.0201
 4986W        W22510  14.467  12.279  14.567  0.1705 -0.1462  0.1026
 4987W        W22511  12.819   0.390   1.989 -0.1296 -0.0722  0.0438
 4988W        W22512   3.797   7.657  12.231  0.2111  0.1020  0.0517
 4989W        W22513  14.645   8.242   4.263  0.0606  0.0692  0.0379
 4990W        W22514  14.918   1.143   1.975 -0.1296  0.0627 -0.0230
 4991W        W22515   5.648   2.119  15.234  0.0068  0.0961  0.0532
 4992W        W22516   3.896  11.334  12.242  0.0682 -0.2551  0.2027
 4993W        W22517   0.950   4.209   2.395 -0.1776 -0.0443  0.0957
 4994W        W22518   6.257  17.239   0.259 -0.2684  0.0084 -0.0966
 4995W        W22519   7.628  15.237   3.064 -0.0964  0.0935 -0.0303
 4996W        W22520  12.534  17.930   4.764  0.1551 -0.1061 -0.0758
 4997W        W22521  16.401  14.384  12.523 -0.0512  0.0481 -0.1241
 4998W        W22522  11.700   4.574   0.441  0.0847  0.1616 -0.2201
 4999W        W22523   7.198   6.704   0.556 -0.1751  0.1327  0.1369
 5000W        W22524  13.826  17.256   0.541 -0.1190  0.0912  0.1627
 5001W        W22525  16.998   2.074   4.918  0.2676  0.1413  0.0687
 5002W        W22526   9.605  16.751   0.526  0.0099 -0.1390 -0.1403
 5003W        W22527   8.973   1.483  14.605 -0.0023 -0.0093  0.1272
 5004W        W22528  13.754   1.285  11.193 -0.0054 -0.2152  0.0598
 5005W        W22529   2.041   9.381  13.213  0.0701  0.1286  0.1035
 5006W        W22530   6.840  15.885  13.082 -0.1524 -0.0340  0.1809
 5007W        W22531  10.944   1.933  15.343 -0.1278 -0.0533  0.1866
 5008W        W22532  15.834  13.430  12.732 -0.4317  0.0406 -0.2599
 5009W        W22533   0.989  13.209  14.286  0.0790  0.4638  0.2990
 5010W        W22534   7.478  12.562   1.045 -0.1791 -0.0891 -0.0076
 5011W        W22535   4.367   0.839  12.806 -0.2188  0.0778 -0.0655
 5012W        W22536  15.176   8.600  15.444 -0.2137  0.1958  0.4544
 5013W        W22537   3.310   0.627   2.955 -0.0107 -0.1881 -0.0247
 5014W        W22538  16.821  14.183   0.365  0.1185 -0.2021  0.2730
 5015W        W22539   1.329   8.542   2.090 -0.0372  0.0222  0.0831
 5016W        W22540  10.694   2.780   0.070  0.2156  0.0011  0.0652
 5017W        W22541   7.150   8.889  11.907  0.1162 -0.0489  0.3159
 5018W        W22542  16.276  17.623   2.522  0.0170 -0.0389 -0.0329
 5019W        W22543   0.241   3.860  14.093  0.0112  0.0194 -0.0493
 5020W        W22544  11.280   9.696   3.138  0.2828 -0.1715  0.0899
 5021W        W22545   1.227  11.335   3.090  0.0449 -0.1469 -0.0691
 5022W        W22546   9.404  10.323  11.827 -0.0268  0.4139 -0.0178
 5023W        W22547   5.278  10.348  10.945  0.3439 -0.1424  0.3170
 5024W        W22548  13.084  12.381  13.711 -0.0410 -0.1670  0.0629
 5025W        W22549  18.072   1.599   0.675 -0.0765 -0.0109  0.3743
 5026W        W22550  10.932  12.697   3.883 -0.0739 -0.3489  0.1793
 5027W        W22551  13.002  12.784   3.024 -0.0493 -0.2224  0.1800
 5028W        W22552  13.120  17.625  15.199  0.0376 -0.1455 -0.1869
 5029W        W22553  13.823   2.812  12.221 -0.5558  0.0167 -0.1332
 5030W        W22554   1.693   5.540   0.891  0.1069 -0.1556 -0.2178
 5031W        W22555   5.792  16.761   4.312 -0.0848  0.1330  0.0831
 5032W        W22556   7.157  14.447  10.759  0.1794  0.0182  0.1085
 5033W        W22557   2.944   3.496  14.999 -0.0857 -0.0553 -0.0756
 5034W        W22558  10.068   5.667  15.989 -0.1210 -0.0747  0.5130
 5035W        W22559   0.924  14.561   3.891  0.0671 -0.2288  0.2407
 5036W        W22560   4.631   0.996   2.418 -0.0956  0.0251 -0.1577
 5037W        W22561   0.163   3.143   0.515  0.2995 -0.0292 -0.0519
 5038W        W22562   5.657   3.212  14.088  0.0896 -0.0483 -0.2539
 5039W        W22563   3.606   5.753   4.886 -0.3526  0.0585  0.3845
 5040W        W22564  16.806   3.744  14.307 -0.0553 -0.1694  0.1703
 5041W        W22565  14.058  12.410  15.402  0.3644  0.0911 -0.0582
 5042W        W22566   9.055   0.546   0.369  0.0239  0.1192 -0.1898
 5043W        W22567   2.518   1.431  11.401 -0.2141  0.0103  0.2089
 5044W        W22568   0.762   6.243   4.799 -0.2326  0.1264 -0.0183
 5045W        W22569  16.017  17.095   0.587  0.2571 -0.0321 -0.0623
 5046W        W22570   6.258   2.436   3.626  0.1318 -0.2753 -0.0235
 5047W        W22571  13.666   8.817  14.197 -0.2896  0.0586 -0.1063
 5048W        W22572   6.445   1.682   1.122 -0.2916  0.2364 -0.0609
 5049W        W22573  16.800   2.682   2.813  0.1779 -0.0874  0.1296
 5050W        W22574   4.736  17.625   0.317  0.2469  0.0142 -0.0055
 5051W        W22575   2.369   7.292   1.361  0.1435  0.0669  0.0721
 5052W        W22576   0.217  10.567   1.430  0.0023 -0.1832  0.1828
 5053W        W22577  16.279  13.376   4.521 -0.2580  0.1881 -0.1229
 5054W        W22578   7.488   1.065  13.908 -0.1343 -0.1604 -0.3128
 5055W        W22579  14.139   5.018   5.022  0.2294 -0.0400  0.1690
 5056W        W22580   1.055  11.395  15.780 -0.1252  0.0860  0.1053
 5057W        W22581  16.019  17.946   3.891 -0.1626 -0.1417 -0.1432
 5058W        W22582  11.489   3.493   1.647  0.0202 -0.0636  0.0901
 5059W        W22583  17.921  10.038   0.822 -0.4741  0.0323 -0.3565
 5060W        W22584   6.356  11.098   2.389  0.3359 -0.1260  0.0451
 5061W        W22585   3.881   4.347   1.824  0.0885  0.3031  0.2026
 5062W        W22586  12.343  14.124  14.764 -0.0564  0.0304  0.3423
 5063W        W22587  17.473   8.375   1.071  0.0454 -0.0756 -0.3926
 5064W        W22588  13.290  17.037   2.690  0.0461  0.1940  0.0499
 5065W        W22589  14.602  16.927   3.293  0.2496  0.1289  0.1606
 5066W        W22590   8.197   1.493  15.070  0.0449  0.0610 -0.1561
 5067W        W22591   5.336  10.967  14.423 -0.2129 -0.1091  0.1828
 5068W        W22592  11.143  10.891  13.426  0.1513 -0.0994 -0.0907
 5069W        W22593   8.076  12.160   1.083 -0.1681  0.4399  0.3424
 5070W        W22594   2.992   7.685  15.372  0.2282  0.3108 -0.3386
 5071W        W22595  13.993   5.602  14.816  0.0451 -0.5494  0.2249
 5072W        W22596   0.180   0.092   3.642  0.0373  0.0200  0.2405
 5073W        W22597   9.926   0.909  13.119  0.1987 -0.1162 -0.2475
 5074W        W22598   7.877   6.365  15.473  0.3105  0.0820 -0.0764
 5075W        W22599  10.835  10.146  14.055  0.2495 -0.1338 -0.1639
 5076W        W22600  10.679   4.139   3.942 -0.1434  0.1848  0.0509
 5077W        W22601   4.287   5.871   0.125 -0.1394 -0.2218 -0.0495
 5078W        W22602  18.153  11.742   3.856 -0.1832 -0.4057  0.0971
 5079W        W22603   4.223   8.677   2.819 -0.0055  0.0939  0.1235
 5080W        W22604  17.906   1.697  14.057 -0.1940 -0.2766 -0.0663
 5081W        W22605   2.727   2.047  13.920  0.3102  0.1460 -0.0436
 5082W        W22606  15.149   0.732   2.305  0.0528  0.2947  0.3151
 5083W        W22607  11.582  15.435   3.665  0.2303 -0.0067 -0.1484
 5084W        W22608   1.986   7.366  11.672 -0.2701  0.1650 -0.1427
 5085W        W22609   3.462  16.504  12.340 -0.1441 -0.3155 -0.2423
 5086W        W22610   6.296  14.336  13.477  0.1134 -0.1528  0.2403
 5087W        W22611   1.424  17.058   3.136 -0.0179  0.1372 -0.5126
 5088W        W22612  16.547   7.645  11.485 -0.1835 -0.1069 -0.1159
 5089W        W22613   9.712   8.217  11.781 -0.2238  0.0150 -0.0204
 5090W        W22614   1.802   4.199  14.028 -0.2246  0.1147  0.2589
 5091W        W22615   3.783  11.335  11.674  0.2736 -0.2122  0.2955
 5092W        W22616   0.026  12.363   1.623 -0.3453  0.0735 -0.1102
 5093W        W22617  15.073  15.877   1.274  0.1379  0.2187 -0.0702
 5094W        W22618  11.930   6.381   4.912 -0.0934 -0.1424  0.1522
 5095W        W22619  10.162  16.046   2.092 -0.2583 -0.0649 -0.2207
 5096W        W22620   9.773   5.299   2.839  0.0513 -0.1955  0.1949
 5097W        W22621   1.197  14.221  15.547 -0.1798  0.0855  0.1758
 5098W        W22622  14.450  12.230  15.052  0.1193 -0.1493  0.0735
 5099W        W22623  17.686  16.526   2.859  0.1998  0.1165 -0.2025
 5100W        W22624   9.818   0.726   3.988  0.0219 -0.1915 -0.0370
 5101W        W22625  17.846  14.146  13.424  0.1020  0.0195  0.1061
 5102W        W22626   4.093   5.579  13.995 -0.0551  0.2374 -0.0208
 5103W        W22627  14.163  13.698  11.184 -0.0033  0.0859 -0.0584
 5104W        W22628   9.935  16.275   3.031  0.1258 -0.0680 -0.2534
 5105W        W22629  17.794  11.970  11.825  0.0020 -0.1481 -0.1490
 5106W        W22630   0.016  13.336   0.371  0.0281  0.2066 -0.0782
 5107W        W22631   1.343  10.966  15.338 -0.1668  0.0331 -0.1460
 5108W        W22632   6.936  17.332   5.750  0.0162 -0.2182  0.0794
 5109W        W22633  16.045  17.078  12.278  0.0331 -0.3393  0.1697
 5110W        W22634  16.697   9.244  13.997 -0.1031 -0.1997  0.2613
 5111W        W22635  11.596  15.136  11.080 -0.0839  0.0201  0.1181
 5112W        W22636  10.679   1.624   0.794 -0.0723 -0.2852 -0.1178
 5113W        W22637  17.124   2.189   3.662 -0.2119 -0.0598 -0.1901
 5114W        W22638  13.845  12.421   0.933  0.0452  0.2495 -0.3914
 5115W        W22639  15.947   8.789  14.402 -0.0688 -0.2280  0.2968
 5116W        W22640  12.114   6.517   0.961  0.2444  0.1494  0.2500
 5117W        W22641   5.266   8.913  14.761  0.1201  0.3865 -0.0589
 5118W        W22642   7.030  17.211   4.700  0.1618 -0.0355 -0.0816
 5119W        W22643   0.333   7.139  11.734 -0.3102  0.4267  0.0461
 5120W        W22644   1.666   7.053   1.022 -0.1632 -0.0233 -0.1514
 5121W        W22645   6.990  17.698   3.281 -0.2810 -0.1259  0.0724
 5122W        W22646  10.023   6.753  13.278 -0.2173  0.1072  0.4623
 5123W        W22647   3.849   8.615  12.561  0.0995 -0.2587  0.2710
 5124W        W22648  17.295  13.031   0.036  0.2086 -0.0355  0.3425
 5125W        W22649  14.581  10.855   4.417 -0.1708 -0.3762 -0.0958
 5126W        W22650   2.934  17.435  15.794 -0.0947 -0.2550  0.0620
 5127W        W22651   5.590   5.159  11.732 -0.0997 -0.0921  0.0580
 5128W        W22652  12.754  14.901   5.302  0.0679  0.0605 -0.2580
 5129W        W22653  17.901   6.991   4.147 -0.0041  0.1125  0.1183
 5130W        W22654  12.555   7.987   3.546  0.1743 -0.2843  0.0639
 5131W        W22655   9.935  17.901   1.410  0.2825  0.1394  0.1987
 5132W        W22656  16.923  14.916   4.935  0.0034 -0.1548 -0.0122
 5133W        W22657  12.447  14.226  12.510 -0.1871  0.0757 -0.0084
 5134W        W22658   8.677  11.400   2.939  0.0340  0.0284  0.0815
 5135W        W22659  14.793  10.936  13.090  0.1102 -0.1884  0.2595
 5136W        W22660   2.043   5.395   3.499 -0.1119  0.1956  0.2537
 5137W        W22661   2.061  17.789   0.457 -0.1637 -0.1205 -0.2659
 5138W        W22662  15.577  11.626   0.541  0.0488  0.0837  0.1698
 5139W        W22663  12.731   6.828  11.762  0.1364  0.1423  0.0845
 5140W        W22664   8.270   2.063   0.928  0.0098 -0.0875 -0.0573
 5141W        W22665  15.720  11.411   4.815  0.0115  0.2231  0.0510
 5142W        W22666   4.382   7.400   1.644 -0.1236 -0.0237 -0.2371
 5143W        W22667   8.840  14.599  13.375  0.0762  0.1196  0.3159
 5144W        W22668   2.541   2.059   4.744  0.2926 -0.0329 -0.0057
 5145W        W22669   3.151  12.877   3.792 -0.1067  0.0017  0.1278
 5146W        W22670   2.656  15.239   3.135  0.0296  0.0055 -0.2289
 5147W        W22671   6.589  16.787   2.258  0.1834  0.2498 -0.1547
 5148W        W22672   3.785   0.593  14.733  0.1721 -0.1950  0.0294
 5149W        W22673   0.704  12.206  12.129 -0.2671  0.1232  0.2337
 5150W        W22674   6.737  13.570   4.027  0.2170 -0.0333  0.0689
 5151W        W22675  12.912  10.533   0.632 -0.1147 -0.4042  0.0592
 5152W        W22676  15.177   2.079   2.854 -0.0489  0.0769  0.2572
 5153W        W22677  10.086  17.078   1.867 -0.0642  0.0999 -0.0923
 5154W        W22678   7.338   1.100  11.376 -0.0774  0.0209  0.0565
 5155W        W22679   8.061   6.634   0.379 -0.2590 -0.1100 -0.0117
 5156W        W22680   7.314   8.513   4.167  0.0172 -0.2923  0.1948
 5157W        W22681   1.784   4.798  12.161  0.2879  0.0967  0.0952
 5158W        W22682  15.915  13.022   3.472 -0.1458 -0.1542  0.0409
 5159W        W22683  13.804   9.439   0.195 -0.0085 -0.1388  0.0749
 5160W        W22684   3.834   7.315  11.319  0.2503  0.1073  0.1361
 5161W        W22685   8.545   9.176  15.540  0.0204 -0.1505 -0.1862
 5162W        W22686   6.888   9.579  11.311 -0.0498  0.0861  0.0540
 5163W        W22687   3.118  17.634   2.576  0.0379  0.0841 -0.1540
 5164W        W22688  13.325  14.398  13.117 -0.0875 -0.1516  0.1684
 5165W        W22689   6.182   5.734  15.502 -0.1256  0.1861  0.0821
 5166W        W22690  16.559   2.289   1.100 -0.2933 -0.0647 -0.1488
 5167W        W22691  13.996   9.008   0.226  0.1292  0.3355  0.1574
 5168W        W22692   8.776  12.367   0.259  0.1355 -0.0526  0.2757
 5169W        W22693   4.949   1.426  11.670 -0.0652  0.0020 -0.0942
 5170W        W22694  16.168   7.650   5.266  0.0254  0.1487 -0.4464
 5171W        W22695   9.421   1.941   2.219  0.0010 -0.1385  0.1999
 5172W        W22696  17.005   0.934   2.259  0.0184 -0.3192 -0.1046
 5173W        W22697  12.612  12.531   2.686 -0.1384 -0.2513 -0.4315
 5174W        W22698  13.574   5.851  10.735 -0.3203 -0.0240  0.0833
 5175W        W22699   1.035   8.726  13.635  0.1696  0.0798  0.0273
 5176W        W22700  17.049   6.606  15.517  0.0237 -0.2342  0.2030
 5177W        W22701   5.101  15.408   1.147  0.3773 -0.2491  0.2156
 5178W        W22702   1.340   7.938  11.283 -0.1166  0.1039  0.0997
 5179W        W22703  17.364   0.477   4.697 -0.2788  0.0307  0.1211
 5180W        W22704  15.647  14.866   4.320  0.1311  0.0057  0.0264
 5181W        W22705   5.676  12.453  15.037  0.0459 -0.0129 -0.1728
 5182W        W22706  15.929   6.141   0.583  0.0989 -0.0036 -0.1504
 5183W        W22707  17.224  13.413   4.717 -0.1308  0.0968  0.0052
 5184W        W22708  10.787   7.917   4.887  0.1578 -0.4876 -0.2736
 5185W        W22709   8.975  15.145  13.416  0.0079 -0.0019 -0.1916
 5186W        W22710  17.473  16.296   2.424  0.1111  0.0812  0.1064
 5187W        W22711   4.623  17.297   1.240 -0.3485 -0.2406  0.0629
 5188W        W22712   3.589  15.622   1.962 -0.1490  0.1941  0.1287
 5189W        W22713  11.100   4.818  13.683  0.3179 -0.3675  0.4687
 5190W        W22714   8.786  10.961   2.018 -0.0124  0.0588 -0.1118
 5191W        W22715  16.573  10.021  12.219 -0.2482  0.0815 -0.2455
 5192W        W22716  13.967   9.606   3.683  0.4275  0.0372  0.3479
 5193W        W22717  17.999  14.524   0.792 -0.0251 -0.0229  0.1313
 5194W        W22718   1.945   6.072   2.961 -0.2440 -0.1373 -0.0817
 5195W        W22719   7.102   4.173  14.483 -0.1624 -0.0681  0.2144
 5196W        W22720  13.928  11.902  11.146  0.2581 -0.0047 -0.4649
 5197W        W22721  15.002   7.872   4.390  0.1113  0.3861 -0.0196
 5198W        W22722  14.659  12.872   0.722 -0.4421 -0.4160 -0.2357
 5199W        W22723  15.306   4.964   4.047 -0.2437 -0.1707  0.1985
 5200W        W22724   0.631  14.823   6.015 -0.1324 -0.1153  0.0176
 5201W        W22725   1.158  13.560   4.452 -0.5324  0.2042 -0.2441
 5202W        W22726   6.186   4.975  13.852  0.0198  0.0060  0.0686
 5203W        W22727  12.055   0.777   1.011  0.0832 -0.1532  0.1129
 5204W        W22728  15.953   4.983  15.904  0.2087 -0.3106  0.3262
 5205W        W22729  17.279  10.973  13.327 -0.2222 -0.1434  0.1631
 5206W        W22730  10.750  12.222  12.367  0.1965 -0.2249  0.0787
 5207W        W22731  11.398   5.461  13.026 -0.1967 -0.2223  0.1133
 5208W        W22732  15.136   0.149  12.194 -0.2587 -0.1717 -0.2146
 5209W        W22733  11.886  15.223  10.257  0.0658 -0.1638  0.0048
 5210W        W22734   8.060   6.135  13.510 -0.0428 -0.1900 -0.2673
 5211W        W22735   4.174  15.051  13.494  0.0481  0.3250  0.1213
 5212W        W22736   9.476   6.693   2.201  0.3055 -0.3448  0.2141
 5213W        W22737  14.996  17.980   0.266 -0.0765 -0.1480  0.0375
 5214W        W22738   7.924  10.537  15.719 -0.0881  0.0377  0.0805
 5215W        W22739   6.896  14.186   0.714 -0.1210 -0.0173 -0.1442
 5216W        W22740   4.320  14.641  12.812  0.0130  0.0710  0.2521
 5217W        W22741  14.397   5.911   1.473 -0.3648  0.0974 -0.2746
 5218W        W22742   3.109   1.641  13.110  0.1537 -0.0847  0.0695
 5219W        W22743  15.195   2.772  13.454  0.2101 -0.2267 -0.0441
 5220W        W22744  16.454   1.796  11.419 -0.2390  0.2415  0.2208
 5221W        W22745   5.072  10.939  11.997 -0.1049 -0.0269 -0.0784
 5222W        W22746  16.988  11.401   3.238 -0.1299 -0.0506  0.0499
 5223W        W22747   5.693   2.323   4.371 -0.4552  0.0892  0.1069
 5224W        W22748   7.584  10.705   4.020  0.0709 -0.1128  0.0314
 5225W        W22749  15.220   6.480   0.166  0.1122  0.0485  0.1266
 5226W        W22750   9.126   5.526  15.638  0.2174  0.1033  0.0965
 5227W        W22751   7.351  16.616   2.970  0.0667  0.1554  0.2515
 5228W        W22752   1.846   7.146   1.472 -0.1788  0.0245  0.0149
 5229W        W22753  10.322  12.680   1.098 -0.0342  0.1752 -0.0934
 5230W        W22754  17.847   7.553   1.060  0.0370  0.0146  0.0524
 5231W        W22755   5.773   0.604   1.180 -0.0307  0.2768  0.0532
 5232W        W22756  12.606   3.938   2.463  0.0526 -0.1067  0.1493
 5233W        W22757   6.881   2.284  16.010  0.3875 -0.2501  0.1639
 5234W        W22758   9.031   4.082   2.038 -0.0292  0.0231 -0.0620
 5235W        W22759  14.372   9.941  14.732 -0.1133 -0.2348 -0.1786
 5236W        W22760   2.428   7.100  13.274 -0.1409 -0.2664 -0.1065
 5237W        W22761  16.367  16.572   3.154 -0.4168  0.1315  0.1646
 5238W        W22762  15.287  16.202   0.985  0.2007 -0.1799  0.1021
 5239W        W22763  15.563  12.702  13.279  0.1609 -0.0120 -0.3377
 5240W        W22764  11.520   2.043   0.332 -0.0213 -0.0099 -0.2245
 5241W        W22765  10.821   5.066   0.179 -0.1089 -0.3678  0.0061
 5242W        W22766   9.535   4.841  12.499 -0.0913  0.0375 -0.2557
 5243W        W22767   0.060  15.948   0.590 -0.1636 -0.3635 -0.0467
 5244W        W22768   6.150   9.755   1.260  0.1820  0.0778  0.1449
 5245W        W22769   9.451  14.772  13.402  0.2844  0.2244  0.1639
 5246W        W22770   4.254  17.473  13.949 -0.1287 -0.0741  0.0208
 5247W        W22771   8.711  10.888   4.470  0.0161 -0.0450  0.2815
 5248W        W22772   8.313   2.317  12.433 -0.0355 -0.1234 -0.0972
 5249W        W22773  16.250   7.920  14.218 -0.1974  0.0059  0.0306
 5250W        W22774  15.419   9.031   0.964 -0.1096  0.1678 -0.1200
 5251W        W22775  10.528   0.953  14.543 -0.3089 -0.0155 -0.1098
 5252W        W22776  12.284   6.065  12.158  0.0405 -0.1721  0.1622
 5253W        W22777   1.152   0.174  15.580  0.3236  0.1379  0.0203
 5254W        W22778   4.295  14.435   2.984  0.3720  0.0664  0.0290
 5255W        W22779   2.493   3.863   0.234  0.1139 -0.1831  0.3916
 5256W        W22780   1.012   7.502  11.255 -0.1596  0.0012  0.0211
 5257W        W22781   5.836   1.013  14.576  0.0783  0.1700 -0.1021
 5258W        W22782   0.774   3.899  12.391  0.0030  0.3126 -0.2077
 5259W        W22783  11.058   9.704   1.504 -0.2376  0.0642 -0.1449
 5260W        W22784   0.718  14.891   0.722 -0.0704 -0.1392  0.1862
 5261W        W22785  17.700  17.803   3.701 -0.4136 -0.2825 -0.1509
 5262W        W22786  14.712  10.566   5.009  0.0663 -0.4663 -0.2074
 5263W        W22787  18.088   0.617  10.296  0.2690  0.0811 -0.0777
 5264W        W22788   3.672  13.810  14.696 -0.0239  0.1815  0.1158
 5265W        W22789   7.096  16.972  10.811 -0.1196 -0.0635  0.1208
 5266W        W22790   0.666  14.372   0.817 -0.1247  0.1827  0.2813
 5267W        W22791  10.727  17.360   1.262  0.1689  0.3220 -0.2582
 5268W        W22792   7.680   0.874  13.508  0.1506  0.3033 -0.1138
 5269W        W22793  13.395  16.336   0.435  0.0802 -0.2416 -0.2119
 5270W        W22794   4.257   1.106   1.367  0.1693 -0.0000  0.0189
 5271W        W22795   7.235   7.698   0.642 -0.1630 -0.0227 -0.1233
 5272W        W22796  16.039   8.999   2.582 -0.1072  0.0608  0.3279
 5273W        W22797  17.491  11.234   2.050 -0.0802  0.1468  0.2326
 5274W        W22798  14.187  13.803   1.092  0.3349 -0.1040  0.0589
 5275W        W22799   9.694  10.943  14.458  0.1673  0.1166 -0.0188
 5276W        W22800  14.734   3.693   0.110  0.3557  0.0304 -0.1406
 5277W        W22801   3.964  13.941  13.122  0.3864 -0.1373  0.2997
 5278W        W22802   4.215   0.089   0.904 -0.1858  0.1060 -0.1861
 5279W        W22803  12.723  17.808  12.529 -0.0019  0.0399  0.2709
 5280W        W22804  17.767   9.465   2.136 -0.1814  0.1486  0.0803
 5281W        W22805   0.741  17.165  14.494 -0.0537  0.1026  0.1724
 5282W        W22806  15.144   5.556  14.197  0.0427  0.0977 -0.2213
 5283W        W22807  15.923   3.666  13.146  0.1866 -0.1794  0.1121
 5284W        W22808   6.279  15.493  11.329  0.0358 -0.1124  0.0125
 5285W        W22809  14.670  18.149  13.567  0.1925  0.3675  0.2714
 5286W        W22810  11.611  11.007   3.549 -0.0828 -0.0138 -0.3426
 5287W        W22811  17.417  12.375  15.648  0.2210 -0.1113 -0.1640
 5288W        W22812  10.655  15.006  13.715 -0.0112 -0.0670 -0.0661
 5289W        W22813   8.636   5.742   4.157  0.1289 -0.0860 -0.0170
 5290W        W22814  17.491  10.223   1.514 -0.0269  0.0353  0.2037
 5291W        W22815   9.837   0.026   0.978 -0.1669 -0.3271 -0.0630
 5292W        W22816   1.500  11.866   0.461  0.0101 -0.0283  0.1981
 5293W        W22817  18.059  12.350  13.162  0.0331  0.0936 -0.2429
 5294W        W22818   9.244   8.017  11.295  0.2100 -0.0074  0.0661
 5295W        W22819  17.919   6.333  13.521  0.1323 -0.2531  0.1014
 5296W        W22820   5.095   7.605  12.410  0.2857  0.2612  0.0659
 5297W        W22821  15.521   3.611   1.239 -0.2464  0.1629  0.1211
 5298W        W22822   4.196   6.506  12.984  0.1191 -0.1658  0.2739
 5299W        W22823  16.958   8.074   2.842 -0.0913 -0.0448  0.2910
 5300W        W22824  13.303  13.246  14.986  0.1327 -0.0562 -0.3929
 5301W        W22825   0.802  11.699   2.936  0.1672  0.0512  0.0072
 5302W        W22826   6.623   9.613  12.448  0.0518 -0.0433  0.0204
 5303W        W22827  15.608   0.507  11.634 -0.1574  0.1645 -0.1036
 5304W        W22828   4.154   0.675   4.245 -0.4807 -0.0176  0.2501
 5305W        W22829   2.480  11.637   1.877 -0.1040 -0.1727  0.1592
 5306W        W22830   7.016   9.742   4.716 -0.1693 -0.2144  0.0680
 5307W        W22831   3.155   2.192   3.402 -0.1239 -0.0637 -0.1189
 5308W        W22832  16.272  13.189  12.095 -0.1088 -0.1673 -0.2951
 5309W        W22833   4.906   4.834  15.368 -0.1877  0.1137  0.0337
 5310W        W22834  11.066   4.242  13.629 -0.1846  0.1523 -0.0185
 5311W        W22835  14.385   6.803   3.861 -0.1615  0.2995  0.2081
 5312W        W22836   2.496  15.400   1.153 -0.1652 -0.1639 -0.1208
 5313W        W22837   8.891  17.414  15.832 -0.0028 -0.1992  0.0804
 5314W        W22838  15.017   6.948   2.211 -0.1675  0.1613  0.1339
 5315W        W22839   1.777   3.694  10.797  0.0931  0.2471  0.1945
 5316W        W22840   7.058   7.816  11.560  0.1627 -0.0785 -0.2552
 5317W        W22841  10.789  17.590  14.432 -0.0467  0.0553 -0.0018
 5318W        W22842   3.530  11.515  10.619 -0.0529 -0.0755  0.1466
 5319W        W22843   4.588   5.410  14.097 -0.1178  0.1615  0.2980
 5320W        W22844  12.730   7.416  12.842  0.0476 -0.0468  0.0346
 5321W        W22845   8.756   3.812  13.313 -0.2224  0.0040 -0.1805
 5322W        W22846   2.119  15.094   3.072  0.2566  0.2663 -0.4166
 5323W        W22847   7.925   9.969  10.995  0.1701 -0.1699  0.1235
 5324W        W22848  15.091   4.547   1.611  0.3794  0.1568 -0.1621
 5325W        W22849   2.819  13.069   3.473 -0.3550  0.1431  0.0732
 5326W        W22850   4.317  14.033   0.014 -0.0831  0.3657 -0.0773
 5327W        W22851   6.186   3.540   3.332 -0.1055 -0.0007  0.0114
 5328W        W22852   2.783   3.571  14.538  0.0522 -0.3118 -0.1051
 5329W        W22853  16.102   2.286   1.399 -0.2187 -0.0856 -0.0826
 5330W        W22854  16.566   6.516  12.361 -0.2055 -0.0206 -0.1277
 5331W        W22855   4.685  12.218   3.260 -0.2090  0.1997 -0.0513
 5332W        W22856  15.954  11.311  14.428 -0.0689 -0.0673  0.0655
 5333W        W22857  16.131   5.171   5.000 -0.2476 -0.0201 -0.2575
 5334W        W22858   5.836  10.649   4.082  0.0097 -0.0676 -0.1829
 5335W        W22859   8.646  11.798  11.829 -0.2811 -0.0896  0.1203
 5336W        W22860  12.274   7.686  14.037 -0.2031  0.2355  0.3970
 5337W        W22861  13.484  17.907  13.215  0.0025  0.1945 -0.1817
 5338W        W22862   6.087  13.760  12.176  0.5016 -0.0503  0.1167
 5339W        W22863   8.195  14.250   4.082  0.0739  0.1466 -0.1382
 5340W        W22864   1.678  13.420  15.530 -0.1255  0.2826  0.2089
 5341W        W22865  12.550  10.003  12.327  0.0939  0.2588 -0.1655
 5342W        W22866  13.946  13.506   3.266  0.1593  0.0286  0.3685
 5343W        W22867  14.626  15.326   1.369  0.1164 -0.2778 -0.1274
 5344W        W22868  10.631   0.292  12.765 -0.1844 -0.0237  0.0406
 5345W        W22869   4.581  17.995   1.061 -0.2375 -0.1257 -0.0411
 5346W        W22870  13.921   1.804  12.508  0.0792  0.0036 -0.0653
 5347W        W22871   4.366   1.247   3.409 -0.1628 -0.1129 -0.1736
 5348W        W22872   7.939   8.538  11.089  0.3616 -0.1140  0.0417
 5349W        W22873  15.721   0.559  12.663 -0.1829  0.3322  0.0161
 5350W        W22874   5.719  17.446   4.871  0.3487  0.2762 -0.3189
 5351W        W22875   2.026   6.032  15.513  0.0212  0.2662  0.0727
 5352W        W22876   7.843   7.021  14.360  0.1465 -0.1688 -0.1028
 5353W        W22877  12.971   5.449   0.239 -0.1260  0.1012 -0.0410
 5354W        W22878   3.711  15.084  14.381 -0.2126 -0.0759  0.3853
 5355W        W22879  16.712   6.376  13.097  0.2323 -0.1920 -0.0560
 5356W        W22880  15.496   5.490   1.367 -0.2105 -0.2856  0.2263
 5357W        W22881  10.795   4.818  11.849 -0.0523 -0.1428  0.0376
 5358W        W22882   2.925  14.618  12.150 -0.0974  0.1360  0.1367
 5359W        W22883   5.121  14.194   1.201  0.2566  0.0122 -0.0220
 5360W        W22884  14.059  11.246  15.371 -0.0311 -0.2186  0.0734
 5361W        W22885  17.299  10.692   0.670  0.2709 -0.3892 -0.3534
 5362W        W22886   3.002  14.432  15.050 -0.0292  0.1838 -0.0510
 5363W        W22887  12.862  13.636  14.220  0.0843 -0.0987  0.1297
 5364W        W22888  11.489   1.725  14.539 -0.0125 -0.1606  0.1257
 5365W        W22889  15.872  15.734  11.148  0.0011 -0.0678  0.3161
 5366W        W22890  10.517  15.709   4.417  0.1770  0.2787 -0.1910
 5367W        W22891   8.234  15.073  14.002 -0.0962  0.1637  0.1324
 5368W        W22892   5.267  12.900  13.191  0.0411  0.0937  0.4532
 5369W        W22893  15.373   7.329   0.969  0.1763  0.1801 -0.1059
 5370W        W22894   5.393  11.406  12.080 -0.0111  0.1540 -0.1726
 5371W        W22895  16.505  10.999  12.017 -0.1078 -0.0914  0.0775
 5372W        W22896   7.476   7.184  15.969  0.2221  0.0798  0.2112
 5373W        W22897   0.393   2.621   4.566  0.0363  0.1125 -0.1437
 5374W        W22898  16.020  13.861  11.875 -0.0652  0.0202 -0.1593
 5375W        W22899  11.171   2.924  12.520  0.0433 -0.2264 -0.0669
 5376W        W22900  11.914  17.052  15.600  0.0860  0.0443  0.0134
 5377W        W22901   2.400   7.398  11.349 -0.1403  0.1333 -0.0560
 5378W        W22902  12.107   8.980   0.122  0.1730 -0.3459 -0.0615
 5379W        W22903   2.542   1.663  10.185 -0.0446 -0.1091  0.1730
 5380W        W22904   7.785  12.020   2.445 -0.3242  0.1807 -0.1691
 5381W        W22905  12.686  17.009  15.123  0.4934 -0.2024  0.1134
 5382W        W22906  13.683  11.477   4.485 -0.2662 -0.1422 -0.0779
 5383W        W22907  14.878   6.350  15.563  0.0043  0.1010 -0.0511
 5384W        W22908   7.237   5.568  13.681 -0.1443  0.0481  0.1538
 5385W        W22909  18.129   8.853   0.003 -0.0704 -0.1795  0.0345
 5386W        W22910   3.884  14.299  15.030  0.1674 -0.0937  0.0925
 5387W        W22911   0.718   7.435   5.026 -0.3776  0.0389  0.0760
 5388W        W22912   4.365   1.126   4.358 -0.2490 -0.2874 -0.1524
 5389W        W22913  12.445  14.867  15.839  0.2492  0.1289  0.3484
 5390W        W22914   6.364  15.524   2.191 -0.3509  0.0469 -0.1212
 5391W        W22915   4.910   8.595  11.508  0.0185  0.3511  0.2211
 5392W        W22916  14.296   5.120   1.675  0.3752 -0.0514 -0.1032
 5393W        W22917   2.457  13.736   0.529 -0.1029  0.1616  0.3086
 5394W        W22918   6.991   2.363   2.833  0.1122 -0.1480  0.1587
 5395W        W22919  15.077  16.454  14.917 -0.1994 -0.1081  0.0525
 5396W        W22920  13.527  14.717  13.467  0.2522  0.0224 -0.0711
 5397W        W22921   2.725  12.222  11.441 -0.0942  0.1929 -0.0019
 5398W        W22922   0.473  14.433  14.724 -0.1600  0.3157 -0.1665
 5399W        W22923  14.295  11.522  15.051  0.0225  0.1587  0.1797
 5400W        W22924  14.133  16.902  11.978  0.0750  0.0859  0.0214
 5401W        W22925   1.158  15.068   0.936  0.1487 -0.2635  0.0933
 5402W        W22926   7.888   7.555   1.423  0.4267  0.0898 -0.0536
 5403W        W22927   6.632  18.059  10.143 -0.1465 -0.3243  0.2491
 5404W        W22928   1.614   0.015   2.730  0.2242  0.1093  0.0743
 5405W        W22929   3.657  12.138   1.868 -0.0523  0.2825  0.2629
 5406W        W22930   4.941   9.181  11.829  0.1465 -0.1116 -0.1687
 5407W        W22931   0.798   0.362   4.226 -0.1105 -0.1437  0.4491
 5408W        W22932  12.395   8.800  10.665  0.1927  0.0680  0.0425
 5409W        W22933   6.886   2.842  11.534 -0.0885  0.0203  0.4908
 5410W        W22934   6.326  15.917  14.951 -0.0244  0.4177  0.0289
 5411W        W22935   0.846  15.929   4.246 -0.0313  0.0503  0.1762
 5412W        W22936  16.680  12.235   4.435 -0.0606 -0.2013  0.2080
 5413W        W22937  15.239  12.119   4.304  0.0650 -0.0731  0.0928
 5414W        W22938  11.135   1.295   0.882  0.4157  0.0080 -0.0158
 5415W        W22939  15.428  16.272   0.152 -0.0106  0.2171  0.1763
 5416W        W22940  12.019   1.288  11.868 -0.1272  0.2161  0.1140
 5417W        W22941  11.673   8.393   1.868  0.1203  0.2527  0.0158
 5418W        W22942  12.387   6.766   2.522  0.2273 -0.2832  0.3326
 5419W        W22943   0.080  15.422  15.286 -0.2654 -0.2112  0.1806
 5420W        W22944  15.290  10.977   2.574 -0.1146  0.0555  0.0407
 5421W        W22945  10.843   7.474  10.488 -0.2620 -0.2196  0.0957
 5422W        W22946  15.267   2.994   2.046 -0.0404 -0.1976  0.1123
 5423W        W22947  14.463   6.798  14.034 -0.3531  0.2656  0.0700
 5424W        W22948   4.751   3.597   1.076 -0.1174 -0.1166  0.0486
 5425W        W22949  17.221  17.880   3.900 -0.1220  0.2562 -0.0482
 5426W        W22950  13.767   1.296  14.511 -0.4391 -0.0565  0.0554
 5427W        W22951   4.308   9.937   3.533  0.1973 -0.0499  0.0324
 5428W        W22952  11.930  15.672  10.446 -0.2564  0.0536 -0.3539
 5429W        W22953  18.039  16.049  13.363 -0.0981  0.0757  0.1078
 5430W        W22954  11.295   9.215   1.663 -0.0643  0.1376 -0.2472
 5431W        W22955   8.233  15.306  11.905  0.0676  0.2110 -0.0705
 5432W        W22956  11.207  11.869  15.059  0.0410 -0.2041 -0.2008
 5433W        W22957  14.599   7.838   3.977 -0.0674  0.4417 -0.0360
 5434W        W22958   0.948   6.995   2.845  0.0431  0.0194 -0.2312
 5435W        W22959  17.890   5.585  12.957 -0.1795 -0.1195 -0.0045
 5436W        W22960   2.406  11.202  13.219 -0.1355  0.2143 -0.1232
 5437W        W22961   1.192   9.611   0.711 -0.0902 -0.0971 -0.1121
 5438W        W22962  11.725   3.895  15.667 -0.2121 -0.1197 -0.0191
 5439W        W22963   2.229   0.178  11.027 -0.0566 -0.1029 -0.1533
 5440W        W22964   6.677  11.506   4.577  0.1396  0.1953 -0.4193
 5441W        W22965   4.832   7.533   2.850  0.0341 -0.0021 -0.1290
 5442W        W22966   9.934   6.387  11.815  0.0248 -0.0240 -0.2145
 5443W        W22967  13.379   8.676   3.444  0.2473 -0.0912 -0.0250
 5444W        W22968  15.210   2.895   1.288  0.2603 -0.0063 -0.3268
 5445W        W22969  14.070  11.795  13.902  0.1322  0.3395  0.2124
 5446W        W22970  13.012   2.855  14.827  0.1661 -0.2316 -0.3048
 5447W        W22971   5.961   9.780   3.797  0.1308 -0.0976 -0.0108
 5448W        W22972  17.216  12.796   3.590 -0.3274 -0.0266 -0.0611
 5449W        W22973   0.606   5.520  12.084  0.0519 -0.1801 -0.3898
 5450W        W22974   0.103   5.580   4.393 -0.5103 -0.3049 -0.0014
 5451W        W22975   3.418   5.143  11.360 -0.1221 -0.3175  0.2800
 5452W        W22976   6.725   2.582   2.055  0.0795  0.2219  0.1175
 5453W        W22977  11.828   2.478  12.049  0.3221  0.0496 -0.1073
 5454W        W22978   0.885   2.149   0.020  0.0973  0.0140 -0.1766
 5455W        W22979  13.516  12.728   0.149  0.0614  0.0794 -0.1136
 5456W        W22980   5.227  15.085   1.522 -0.0340 -0.0040 -0.1160
 5457W        W22981   3.140  13.555   3.678  0.0164  0.1894 -0.2125
 5458W        W22982   6.448   7.599  12.671  0.1815  0.2556  0.1214
 5459W        W22983  12.394  11.245  12.159  0.0825  0.0154 -0.0150
 5460W        W22984  14.560   7.708  13.661 -0.0581 -0.0431 -0.3837
 5461W        W22985  16.378   2.905  14.837 -0.3123 -0.1376 -0.1269
 5462W        W22986   0.369  16.841   0.309 -0.0377  0.2773  0.0233
 5463W        W22987   5.483   9.899   2.275  0.2176  0.1500 -0.0821
 5464W        W22988   7.851  11.020   0.864 -0.1136 -0.1754 -0.3071
 5465W        W22989   9.186   4.417  12.357 -0.1900  0.1216  0.1029
 5466W        W22990   0.895  13.515  12.800  0.4289 -0.2011  0.0674
 5467W        W22991  15.872   6.346  14.847 -0.0555  0.2529  0.3080
 5468W        W22992   5.052   3.017  11.415  0.4897 -0.1090  0.0362
 5469W        W22993   7.805  13.545  14.220  0.1494  0.0203  0.1446
 5470W        W22994  11.669  16.867   5.781  0.0755 -0.1447  0.0643
 5471W        W22995   6.038   4.888   5.419 -0.0112 -0.2153 -0.0675
 5472W        W22996   9.216   2.173   1.796 -0.0157  0.2120  0.1003
 5473W        W22997  16.620   9.474  13.551 -0.1706  0.0298 -0.1807
 5474W        W22998   2.033  17.878   4.023  0.0593 -0.0487 -0.3327
 5475W        W22999  11.478  10.548   0.675  0.3045  0.5149 -0.0398
 5476W        W23000  12.468   4.767   1.300  0.0765 -0.2959  0.4247
 5477W        W23001  10.815   3.230   0.303  0.0508  0.1263 -0.2030
 5478W        W23002   5.886   7.781  12.848  0.0323  0.0570 -0.3694
 5479W        W23003   6.548  10.221   2.440  0.1224 -0.1794 -0.1028
 5480W        W23004   7.674   8.295  12.946 -0.0483  0.2979 -0.4049
 5481W        W23005  10.866   0.326  13.298 -0.0784  0.1200 -0.2103
 5482W        W23006   8.815  17.932   3.778  0.0191 -0.0461 -0.1372
 5483W        W23007  14.259  15.213   3.104  0.1461  0.3734  0.0546
 5484W        W23008   0.331   2.157  15.413 -0.1219  0.1751  0.3725
 5485W        W23009  13.511  17.370   3.933 -0.1090  0.0022 -0.0450
 5486W        W23010   5.688   0.666  14.010 -0.2147 -0.0637  0.1127
 5487W        W23011   4.030  15.488  13.723  0.1732 -0.0764  0.1333
 5488W        W23012  15.224  11.726  11.885 -0.2168 -0.3119  0.3481
 5489W        W23013   2.401   1.811   1.142  0.0254 -0.0675  0.0640
 5490W        W23014  10.501  14.848  15.937 -0.0155 -0.0512  0.0415
 5491W        W23015  18.081   5.709   0.722  0.2187 -0.0179 -0.0108
 5492W        W23016   9.964  13.865  14.893  0.3016  0.0477 -0.0631
 5493W        W23017  15.336  17.700  11.892 -0.2349 -0.0030  0.1739
 5494W        W23018   6.514   5.411   0.528 -0.2634  0.2348  0.1973
 5495W        W23019  11.192   7.441   4.297 -0.0612  0.0598  0.0515
 5496W        W23020  12.107  16.634   0.323  0.0287  0.0333 -0.1321
 5497W        W23021  10.074   9.036  13.922  0.1631  0.0814  0.1496
 5498W        W23022   2.847   9.158   5.302  0.3367  0.1041  0.0025
 5499W        W23023   8.642   2.749   5.695 -0.3565 -0.0323  0.0997
 5500W        W23024  17.154  14.196   3.805  0.0752  0.1081 -0.3040
 5501W        W23025   3.317   7.019  12.614  0.0122  0.1469 -0.1011
 5502W        W23026  11.150   3.165   1.022 -0.2109 -0.3269  0.0627
 5503W        W23027   1.543   0.660  11.796 -0.1055  0.0829 -0.1025
 5504W        W23028  16.999   4.510   6.070 -0.2380  0.1505  0.0493
 5505W        W23029   1.374  17.140   0.340 -0.1455  0.0180  0.1927
 5506W        W23030   8.180  12.012  11.824  0.0949  0.2144 -0.1033
 5507W        W23031  14.065   9.401   0.607 -0.3672 -0.0063  0.1904
 5508W        W23032  13.855   7.884   5.236 -0.1802 -0.1645  0.1458
 5509W        W23033   6.709  15.606   0.707 -0.2066  0.2163 -0.5860
 5510W        W23034  13.970  11.315  14.528 -0.0479 -0.1094  0.1578
 5511W        W23035  16.188   4.166  15.536 -0.0979 -0.2020 -0.2920
 5512W        W23036   2.483  17.456   1.847  0.3548 -0.0417  0.3975
 5513W        W23037   2.766  16.125  13.203  0.0962  0.3768  0.2755
 5514W        W23038  17.241   7.612  15.733 -0.0848  0.1334 -0.0455
 5515W        W23039  17.047   7.306  16.054 -0.5404  0.0592  0.3175
 5516W        W23040  17.863   0.140   2.002 -0.0204  0.2678 -0.1651
 5517W        W23041   4.396  15.736   0.800 -0.1867 -0.0970 -0.1449
 5518W        W23042  13.322   5.635  12.399 -0.0828  0.2015 -0.0054
 5519W        W23043   3.670   8.608   3.690  0.1712  0.0212 -0.2235
 5520W        W23044   7.653  17.227   0.847 -0.2432  0.2101  0.0404
 5521W        W23045  10.373  10.876  12.861 -0.1408  0.2116 -0.0987
 5522W        W23046  17.085   2.699  12.223 -0.0425 -0.0182  0.2991
 5523W        W23047   2.508   0.425  11.916  0.0235 -0.5227  0.0365
 5524W        W23048   0.534  14.992  12.019  0.2425 -0.0220 -0.2942
 5525W        W23049  14.180   4.294   4.062  0.1935 -0.0720  0.0524
 5526W        W23050  17.396   8.416  14.202 -0.2534  0.0092  0.0752
 5527W        W23051  12.134  11.946  15.892  0.0165 -0.1808 -0.3175
 5528W        W23052   8.111   0.474  14.963  0.2431  0.3221  0.1115
 5529W        W23053  11.311   8.458   1.375  0.1476  0.1629 -0.0514
 5530W        W23054   9.597   3.505  10.164  0.1388  0.0564 -0.1343
 5531W        W23055   5.171  11.734   4.519 -0.2192  0.1573 -0.0192
 5532W        W23056  13.632   0.914   4.746  0.1726 -0.1504  0.0093
 5533W        W23057  14.827  13.432   3.567 -0.0498 -0.0267  0.0453
 5534W        W23058  14.930   6.960   0.979  0.1972  0.0377  0.1747
 5535W        W23059   6.043   5.750   4.043 -0.1146  0.2093  0.0126
 5536W        W23060  13.401  15.946   4.051 -0.1998 -0.3238 -0.0737
 5537W        W23061   0.384  17.299   0.112 -0.0232  0.2362 -0.3281
 5538W        W23062   0.697   0.864  12.732 -0.0875  0.0686  0.0140
 5539W        W23063   2.544  10.616  15.422  0.0793 -0.1182 -0.1770
 5540W        W23064   3.569   6.817  13.609 -0.1581 -0.0282 -0.0287
 5541W        W23065   2.738   8.158  11.788 -0.1604 -0.2875  0.0838
 5542W        W23066   4.375  17.756   1.529  0.2213  0.0814 -0.0507
 5543W        W23067   2.458  13.616  15.360  0.1186 -0.0511  0.1953
 5544W        W23068  15.747   1.291  11.874  0.0192  0.2038  0.0600
 5545W        W23069   8.899  12.426   1.280 -0.1829  0.0884 -0.1316
 5546W        W23070   2.150  11.449  14.708  0.0245 -0.1869 -0.1241
 5547W        W23071  16.761   9.980   1.691  0.0068  0.1875 -0.2464
 5548W        W23072  13.406  10.172  14.284 -0.1186  0.1376 -0.0672
 5549W        W23073  10.755  15.870   3.541 -0.0334 -0.0600 -0.2252
 5550W        W23074   1.941   6.789  10.826  0.0587 -0.0797  0.0536
 5551W        W23075   0.124   3.997  15.037 -0.0440  0.3040  0.0414
 5552W        W23076  18.037   6.625  15.370 -0.0290 -0.2245 -0.1648
 5553W        W23077  12.212   4.361   3.756  0.2139 -0.1085 -0.1712
 5554W        W23078   0.995   6.668   6.094  0.1192 -0.2379 -0.0508
 5555W        W23079   0.767  10.319  11.807 -0.1400 -0.3515  0.1743
 5556W        W23080  16.314  12.088  14.116  0.0392  0.2424  0.0299
 5557W        W23081   0.778  15.687   1.663  0.2233 -0.3750 -0.1530
 5558W        W23082  13.081   9.882  15.973 -0.1883 -0.0538 -0.0570
 5559W        W23083  11.844   8.673   4.598  0.0352 -0.2481 -0.1280
 5560W        W23084  10.247   9.019  12.752 -0.0947 -0.0859  0.0276
 5561W        W23085  18.107   2.370  11.274  0.1117  0.1108 -0.2113
 5562W        W23086   4.947  13.861   2.543 -0.0485 -0.0153  0.0070
 5563W        W23087   5.009  15.624  12.343  0.1289  0.0405  0.0857
 5564W        W23088  16.898  10.293   4.035 -0.4528  0.1594  0.1496
 5565W        W23089   9.589   4.873   3.591 -0.3473 -0.0007  0.1596
 5566W        W23090   3.697  15.958  14.441  0.3718 -0.1238 -0.2362
 5567W        W23091   1.045   7.424  14.488 -0.1414  0.0445 -0.1182
 5568W        W23092  11.238   5.699  15.553 -0.0420  0.0540  0.0192
 5569W        W23093  10.481   4.658   5.169 -0.0219 -0.0521 -0.4174
 5570W        W23094   0.247  15.079   4.457  0.0978  0.1449 -0.2097
 5571W        W23095  11.414   7.846   3.538  0.0932 -0.2721 -0.1400
 5572W        W23096  14.800  14.343   0.498 -0.1090 -0.1017 -0.0538
 5573W        W23097  14.916   8.789   3.605 -0.0785 -0.0919 -0.1749
 5574W        W23098  17.421   0.027  15.167 -0.0416 -0.2043 -0.2566
 5575W        W23099   6.817  13.056  12.222  0.1130 -0.0720  0.2573
 5576W        W23100   7.175   4.701   2.830  0.1003 -0.0798 -0.2009
 5577W        W23101   2.846  13.947  14.993 -0.2156  0.1143 -0.5412
 5578W        W23102  18.159  17.028  15.237 -0.1866  0.1812 -0.0614
 5579W        W23103   4.767  16.660   0.269  0.0554  0.0820  0.3973
 5580W        W23104   1.460   0.772   1.821 -0.0069  0.3302 -0.0563
 5581W        W23105   8.608   7.745   4.464  0.0082  0.3637  0.0500
 5582W        W23106  14.542   7.766  12.445 -0.0597  0.1583 -0.2663
 5583W        W23107   9.212   6.733  15.791  0.0518  0.0029 -0.2646
 5584W        W23108  15.685   7.329  16.088 -0.0537  0.0390 -0.2397
 5585W        W23109   0.245   1.958   1.437 -0.0332  0.1615  0.0484
 5586W        W23110  16.512   1.065   2.168  0.0268  0.0968  0.2496
 5587W        W23111   4.867   4.846  14.586  0.3897  0.2880 -0.0340
 5588W        W23112  14.286  17.190   2.977 -0.2439  0.0862  0.1093
 5589W        W23113   9.092  14.554  13.814 -0.2342 -0.1111 -0.2566
 5590W        W23114   5.291  16.448   3.278 -0.2242  0.2853 -0.3006
 5591W        W23115  12.295   1.954   3.874  0.1020  0.1956  0.0430
 5592W        W23116  12.937  15.205  11.678  0.3130  0.0575  0.1028
 5593W        W23117   6.086   2.558   2.366  0.2370 -0.2152 -0.1524
 5594W        W23118  11.594   8.158  11.097  0.2678  0.0652 -0.2047
 5595W        W23119   4.664   2.733  14.314 -0.0972  0.0958 -0.0343
 5596W        W23120  16.934   9.764  12.047 -0.2119 -0.0107  0.0200
 5597W        W23121  12.442   6.187   2.979 -0.1235 -0.3251  0.3450
 5598W        W23122   9.796   5.281  12.765 -0.0821  0.1900  0.0185
 5599W        W23123  14.697  16.649   3.951 -0.0735  0.3423  0.0309
 5600W        W23124   0.878  16.152   2.516  0.1651  0.0939  0.0860
 5601W        W23125   1.863   0.510   1.993 -0.0210 -0.1336  0.0571
 5602W        W23126   2.775   7.676   0.632  0.0748 -0.0322  0.0708
 5603W        W23127   6.609   9.440  14.859  0.0704 -0.4531 -0.1744
 5604W        W23128   8.058   0.429   3.268 -0.2135 -0.1330 -0.0466
 5605W        W23129  11.742  15.874   1.005  0.1168 -0.0733 -0.0925
 5606W        W23130   8.381  11.112  12.096  0.1757  0.2124  0.0267
 5607W        W23131   3.481  17.660  13.496  0.1354  0.3197  0.1326
 5608W        W23132   6.281   1.719   3.501 -0.4119  0.1308  0.1740
 5609W        W23133  12.304  12.384  11.887  0.1779  0.1290  0.1236
 5610W        W23134  14.987   7.313   0.558  0.0091 -0.0950  0.2896
 5611W        W23135   8.811   0.193   0.700  0.3266 -0.1845  0.3511
 5612W        W23136   7.915  14.888  11.665 -0.0569  0.0733  0.1535
 5613W        W23137  14.590   8.567  11.488  0.0586 -0.0279 -0.0064
 5614W        W23138   0.155  12.108  15.950  0.0546 -0.1769 -0.4302
 5615W        W23139   4.273  10.243  15.892  0.0447 -0.0834  0.3488
 5616W        W23140   3.504   7.257  15.635  0.2746  0.1079 -0.0838
 5617W        W23141  17.091  10.737  15.691  0.1708  0.1081  0.2596
 5618W        W23142  16.763   7.104   0.316 -0.1465  0.0925  0.1392
 5619W        W23143   9.120  16.514  13.384  0.0403  0.0731 -0.1825
 5620W        W23144  13.643   5.903   3.480 -0.1412  0.2489 -0.1308
 5621W        W23145   8.408   8.125  12.666  0.2422 -0.3091  0.0369
 5622W        W23146   9.322   9.374  14.439 -0.1792 -0.2879  0.3554
 5623W        W23147   2.892  11.320  15.353 -0.1819  0.0822  0.0959
 5624W        W23148   8.862  14.126   2.643 -0.0895 -0.0921 -0.1373
 5625W        W23149  14.084  13.571   4.887 -0.0319 -0.0295  0.3732
 5626W        W23150  14.303  11.314   2.293  0.0033 -0.0858 -0.0131
 5627W        W23151   2.500  12.513   4.204 -0.1607  0.0970 -0.0871
 5628W        W23152   8.738  17.379   3.119  0.0400  0.0057  0.0323
 5629W        W23153   1.363  14.490  15.983  0.0976 -0.1255  0.4225
 5630W        W23154   2.085   9.324   0.808 -0.0534  0.1687  0.3039
 5631W        W23155  16.543  16.546   4.599 -0.1757  0.0215 -0.0194
 5632W        W23156   4.673  10.134   3.878  0.0015 -0.0352  0.0791
 5633W        W23157  12.558   9.651  10.447  0.0139 -0.2201  0.0083
 5634W        W23158  13.606  14.102  11.232  0.1023 -0.2694 -0.3113
 5635W        W23159  12.881  11.514   5.166  0.0902 -0.2087  0.1089
 5636W        W23160   3.290  15.978  11.882 -0.0723 -0.0564  0.2102
 5637W        W23161   4.428   6.593   0.540 -0.2758  0.2083  0.1345
 5638W        W23162   5.201  17.676   0.936 -0.0248 -0.0430  0.3514
 5639W        W23163   9.710   2.397   0.326 -0.0950  0.1260  0.1296
 5640W        W23164   1.334   0.324  11.449  0.0153 -0.0629  0.2086
 5641W        W23165   6.138   4.080  14.060  0.0941 -0.1382  0.0541
 5642W        W23166   9.639  16.577   4.768 -0.2378  0.0896 -0.0820
 5643W        W23167   8.306  10.221   0.367 -0.4537 -0.2088  0.1646
 5644W        W23168  17.565   8.838   0.186  0.0352 -0.0949 -0.1739
 5645W        W23169   2.293   1.907  11.271 -0.3648  0.1575 -0.0934
 5646W        W23170  14.297  12.472   1.847 -0.1669  0.0719  0.0778
 5647W        W23171   4.106   7.772   2.955 -0.1149  0.3267  0.1105
 5648W        W23172  11.279  18.025   0.228  0.2483 -0.0105 -0.2330
 5649W        W23173   2.305   1.548  10.920  0.3341 -0.3376  0.1047
 5650W        W23174   6.598  12.464   1.253 -0.1665  0.0598 -0.4520
 5651W        W23175  12.741   6.869   5.004 -0.0691  0.1345  0.0522
 5652W        W23176   7.235   8.439  15.565  0.3365  0.0058 -0.0224
 5653W        W23177   6.133  14.969   0.700  0.3159  0.0670  0.2532
 5654W        W23178  12.241   4.203   5.478 -0.2125  0.2760 -0.0137
 5655W        W23179   5.970  13.017   3.033  0.0450 -0.1018  0.1802
 5656W        W23180  13.359   5.493  13.999 -0.2272  0.2817 -0.1087
 5657W        W23181  16.965   0.422   2.271 -0.2070 -0.1774  0.0513
 5658W        W23182  11.519   6.688  15.874 -0.1745  0.0070  0.0418
 5659W        W23183  16.172   1.456  15.825  0.1762 -0.1177  0.0952
 5660W        W23184   6.415  15.601  13.149  0.2455 -0.2058  0.0130
 5661W        W23185   1.003   1.367   3.808 -0.1178  0.0110 -0.0735
 5662W        W23186  15.744   7.772  14.740  0.2729  0.1008 -0.3826
 5663W        W23187  15.190  14.332  14.853  0.1754  0.0638 -0.0465
 5664W        W23188  13.598  13.935  10.741  0.0370 -0.1020  0.0537
 5665W        W23189  12.540  11.259  11.163 -0.1522  0.0708 -0.0731
 5666W        W23190   2.231  12.947   0.897 -0.1440  0.4217 -0.1729
 5667W        W23191   4.575  11.734   5.262 -0.0046  0.1841 -0.2324
 5668W        W23192  15.214  11.064  12.840 -0.0630  0.1572 -0.1545
 5669W        W23193  12.283  13.074  13.585  0.0724  0.1233 -0.0106
 5670W        W23194   2.053   4.730  15.916 -0.0154  0.0957 -0.0178
 5671W        W23195   9.111  10.812  15.210  0.1041 -0.2929 -0.0254
 5672W        W23196  12.729   6.352   2.582  0.3202  0.1461  0.1976
 5673W        W23197  11.058   6.572  10.889  0.3263  0.3562  0.2659
 5674W        W23198   2.433  17.164   4.375  0.0513 -0.2808 -0.0200
 5675W        W23199   0.776   0.597   2.493  0.0317 -0.2942  0.0603
 5676W        W23200   3.840   4.748   1.388  0.2228 -0.0651  0.0700
 5677W        W23201  10.444   3.485  12.860  0.0042  0.1601  0.1360
 5678W        W23202  15.896  12.287   1.123 -0.0609 -0.3060  0.1715
 5679W        W23203  12.337  11.365   4.942  0.0330 -0.1971 -0.2641
 5680W        W23204   5.752   9.062  15.695  0.2923  0.2400  0.1653
 5681W        W23205  11.918  14.086  14.009  0.2283  0.0318  0.0711
 5682W        W23206   3.818   5.540  12.575  0.0481  0.2472  0.2066
 5683W        W23207   7.136   1.047   3.038 -0.2447  0.2001  0.0156
 5684W        W23208  16.150  10.516   2.328 -0.2893  0.1189  0.2789
 5685W        W23209   5.290   9.376  12.509 -0.0721 -0.0189 -0.1923
 5686W        W23210   2.060  14.795  11.542 -0.0420 -0.1394  0.3012
 5687W        W23211  11.171  11.960   0.416  0.1002  0.0102 -0.0601
 5688W        W23212   8.502  15.723   5.329 -0.0037 -0.2291  0.1433
 5689W        W23213   1.789   6.560   0.907  0.3374  0.1187  0.1918
 5690W        W23214   5.469   4.959  14.441  0.3233 -0.2812 -0.0611
 5691W        W23215   5.084  12.733  13.633 -0.4077 -0.0732 -0.1129
 5692W        W23216  10.442  12.558   0.147  0.0204 -0.1380 -0.0995
 5693W        W23217  10.329   1.152  11.321  0.0545 -0.2122  0.0752
 5694W        W23218  16.166   4.967  15.469 -0.0538 -0.0653 -0.1657
 5695W        W23219   5.752   0.255   0.827  0.1028 -0.2519 -0.2826
 5696W        W23220   7.504  17.084  14.435 -0.0066 -0.2350 -0.0461
 5697W        W23221   8.938  11.341  15.533  0.3820  0.0266  0.0124
 5698W        W23222   9.952   0.812  14.072  0.1539 -0.0203 -0.0054
 5699W        W23223   1.930   0.073   5.900 -0.0882 -0.0739  0.0156
 5700W        W23224   6.742  17.208   1.730 -0.0419  0.2878 -0.0671
 5701W        W23225   4.507   3.847  11.439 -0.1289 -0.1020 -0.2340
 5702W        W23226   5.459  16.302  14.718 -0.0756 -0.1407 -0.0241
 5703W        W23227   8.809   9.138  11.216 -0.0147 -0.1671  0.0871
 5704W        W23228   4.864   9.732  12.018 -0.3588 -0.1923  0.0259
 5705W        W23229  10.861   0.305   0.041 -0.2232  0.0393 -0.2867
 5706W        W23230  18.121   7.630   1.533  0.0505  0.1252 -0.1477
 5707W        W23231  10.519  10.502  14.687  0.0581 -0.1023  0.0735
 5708W        W23232  12.370   0.620  11.561 -0.1743  0.2028  0.3615
 5709W        W23233   5.696  12.711   5.748 -0.1191  0.2916 -0.0781
 5710W        W23234  11.517  17.193   1.882  0.0055  0.0395 -0.1487
 5711W        W23235   7.683  17.964   3.631 -0.2342  0.0678 -0.0749
 5712W        W23236   5.785  14.407  13.080 -0.3290 -0.1364 -0.0158
 5713W        W23237   6.129  16.555  13.328  0.0999 -0.1780 -0.2803
 5714W        W23238   2.186  12.466   2.649  0.1187 -0.0128  0.1318
 5715W        W23239   3.396   0.058   4.720 -0.1321  0.3326 -0.0054
 5716W        W23240  17.077   3.985  13.073 -0.0388 -0.0167  0.0881
 5717W        W23241  16.448   1.334  15.427 -0.1478  0.2256 -0.2307
 5718W        W23242   9.349  14.110   2.715 -0.4932  0.0098  0.0281
 5719W        W23243   3.489  17.649  14.489 -0.1938  0.1606  0.2476
 5720W        W23244   7.158   5.021   2.415 -0.0482  0.4181  0.1434
 5721W        W23245  10.231   1.225   1.222  0.0323  0.1925  0.3110
 5722W        W23246  17.438   4.259  15.168 -0.3306 -0.6173 -0.0941
 5723W        W23247  16.301   1.213   3.933 -0.0946 -0.1543 -0.1721
 5724W        W23248  11.731   2.011  12.963  0.3903 -0.2651 -0.1845
 5725W        W23249   5.976   2.463  15.060  0.4058  0.0015 -0.1031
 5726W        W23250   5.273   0.407   3.880  0.1685  0.2668  0.0184
 5727W        W23251   0.410   2.146  15.908 -0.0515 -0.0752  0.2718
 5728W        W23252   2.078   0.571   3.468 -0.2752  0.0969 -0.1738
 5729W        W23253  14.150   0.854   0.980  0.1067 -0.0421 -0.0469
 5730W        W23254  10.914  17.102   3.899  0.3669 -0.0892  0.2953
 5731W        W23255  13.246   9.569  12.000 -0.2092 -0.0802  0.2284
 5732W        W23256  14.474  17.204  13.827 -0.2141 -0.2711 -0.0726
 5733W        W23257   9.874  16.994  15.867  0.2517 -0.0542  0.2380
 5734W        W23258   0.160   4.344   0.304  0.1188  0.2780  0.0417
 5735W        W23259   6.837  13.173   1.329 -0.3058 -0.1559 -0.1518
 5736W        W23260   7.522   4.484  14.520 -0.1455  0.2798  0.1387
 5737W        W23261  11.252   3.688  13.565  0.0188  0.1184  0.1640
 5738W        W23262  17.969   3.891   3.386 -0.2315 -0.2823 -0.1542
 5739W        W23263   3.499  12.477   1.511 -0.1099  0.1666  0.0771
 5740W        W23264   3.432   9.016   0.152 -0.4269  0.0548 -0.0380
 5741W        W23265   3.113   5.211  14.392  0.0102 -0.0284 -0.2953
 5742W        W23266  13.871   3.754   1.949  0.1022  0.0988  0.3037
 5743W        W23267   9.392  13.290  14.785 -0.1875 -0.0250 -0.0127
 5744W        W23268   4.513   1.094  16.077 -0.0865  0.2500 -0.3368
 5745W        W23269   5.227  12.335  11.370  0.1454 -0.2013  0.2909
 5746W        W23270  15.356  14.242  13.723 -0.1167 -0.3222  0.2737
 5747W        W23271  16.814   6.990  15.071  0.3499 -0.0609  0.1301
 5748W        W23272   1.142  10.586  11.510  0.1804 -0.2897 -0.1471
 5749W        W23273  14.893  12.036  15.026 -0.1177  0.3352 -0.1066
 5750W        W23274  11.632  11.666   2.298 -0.0854 -0.2195  0.0321
 5751W        W23275   7.589  10.845   9.701 -0.2589  0.0726  0.0652
 5752W        W23276  10.946  10.404   0.488  0.1334 -0.0646 -0.2503
 5753W        W23277   1.777  10.573   4.384 -0.1881  0.0568  0.0296
 5754W        W23278   5.756   0.037  12.904  0.0152  0.2333  0.0766
 5755W        W23279  15.428   4.508   3.860 -0.2638  0.3662 -0.4321
 5756W        W23280   4.089  11.939   2.128  0.2723  0.0058  0.3973
 5757W        W23281  11.448   0.111  11.606  0.1696  0.3439 -0.0480
 5758W        W23282   8.406   0.157   4.594 -0.3396 -0.1046 -0.0948
 5759W        W23283  15.123  11.001   4.372  0.1291  0.3702 -0.1070
 5760W        W23284  12.271  15.550  10.113 -0.5724  0.2471 -0.1429
 5761W        W23285  15.929  14.754  14.431  0.0955 -0.3645  0.5668
 5762W        W23286  17.688   9.388   2.660 -0.0734  0.0940  0.0171
 5763W        W23287   1.723   7.424  12.736 -0.1178  0.2670 -0.2333
 5764W        W23288   2.563   8.338  14.578 -0.0444 -0.1449 -0.0271
 5765W        W23289   8.586   8.791  15.874 -0.0341 -0.0251 -0.0313
 5766W        W23290   9.834   3.721   1.937  0.1738 -0.0696 -0.2780
 5767W        W23291   0.782   9.117  12.368 -0.0053 -0.0851 -0.3100
 5768W        W23292   2.869   5.297   1.964  0.0377 -0.3622  0.0717
 5769W        W23293   7.154   9.502  12.655 -0.1907 -0.1967 -0.0047
 5770W        W23294   1.937   7.338  14.960 -0.0447 -0.1713 -0.4399
 5771W        W23295  16.860  12.086   0.201 -0.1382 -0.2846  0.1189
 5772W        W23296  15.642   0.618   4.488  0.1106  0.0030 -0.2032
 5773W        W23297  10.828   0.080  13.727  0.4071 -0.1626  0.1036
 5774W        W23298   2.405  12.864   3.395  0.2113  0.4579  0.0944
 5775W        W23299   4.138   9.446   4.350 -0.0553  0.1694 -0.0096
 5776W        W23300  15.708  17.089   2.741  0.0524 -0.1744  0.0471
 5777W        W23301   6.236  14.701  13.174  0.0205  0.3417  0.0088
 5778W        W23302  15.067   9.233  14.404  0.0979  0.1463 -0.0094
 5779W        W23303  15.054  16.978  15.079 -0.2235 -0.0004 -0.1242
 5780W        W23304   8.724  17.473   4.488  0.0683 -0.1283 -0.0158
 5781W        W23305   1.082  14.010   1.709  0.1043  0.1282 -0.3417
 5782W        W23306  15.034   5.227   0.260 -0.0106 -0.2435  0.1219
 5783W        W23307   6.871  14.610  15.840  0.0540 -0.0608 -0.0141
 5784W        W23308   5.991   6.187  13.179  0.2409 -0.1667 -0.2772
 5785W        W23309   3.340  15.870   0.106 -0.1197 -0.0911  0.2173
 5786W        W23310   1.850   6.155   0.337 -0.2064 -0.2661 -0.0615
 5787W        W23311   4.064  14.844   3.210  0.3300 -0.2790  0.0110
 5788W        W23312   0.288  17.268  11.591 -0.1338  0.0149 -0.2387
 5789W        W23313  12.314   3.451   2.873 -0.1372  0.1465  0.1246
 5790W        W23314  15.686  17.743   2.083  0.0023  0.2892 -0.0708
 5791W        W23315  10.410  17.088  15.171  0.1232  0.0900 -0.0500
 5792W        W23316   3.578   8.317   1.849 -0.2342  0.3323  0.0320
 5793W        W23317   5.089  14.916   1.059  0.1551 -0.1282  0.0034
 5794W        W23318  16.007   0.640  15.074  0.0490  0.0372  0.0954
 5795W        W23319   1.845   1.993  15.712  0.0772 -0.0021 -0.0903
 5796W        W23320   2.818  16.906  14.970 -0.1753  0.1166  0.2247
 5797W        W23321   8.651  14.195  10.555 -0.0948 -0.0133 -0.1585
 5798W        W23322   7.202  11.411  12.828  0.3580 -0.1475 -0.1294
 5799W        W23323  12.375  12.133   3.559  0.3966  0.1511  0.0458
 5800W        W23324   3.483   9.198  14.930 -0.0179  0.0531  0.0526
 5801W        W23325   9.084  16.788  15.244 -0.1090 -0.4731 -0.0970
 5802W        W23326  15.065  17.554  12.745 -0.0729  0.0877 -0.1001
 5803W        W23327  15.278   8.121   1.453 -0.0732  0.0152 -0.0997
 5804W        W23328  16.405  12.305  12.480 -0.0469  0.1382  0.3307
 5805W        W23329   0.140   7.486   1.058  0.0036 -0.1853  0.0655
 5806W        W23330   2.936   8.615   1.355  0.0538  0.0547 -0.1820
 5807W        W23331   4.186  12.910  15.274 -0.1708  0.2649 -0.1045
 5808W        W23332   7.251  13.938   1.664 -0.1142  0.1655 -0.0849
 5809W        W23333   3.378  11.626  12.233 -0.2421  0.0010  0.0006
 5810W        W23334  10.264   0.558  14.403 -0.0857 -0.0555 -0.1108
 5811W        W23335   2.266  13.001   4.960  0.2982 -0.1431  0.0860
 5812W        W23336   8.610   7.186  12.814  0.0080  0.3769  0.4060
 5813W        W23337  15.584  10.515  12.126 -0.1420 -0.0330 -0.0853
 5814W        W23338   2.612   7.913  13.460 -0.0499  0.1447 -0.0629
 5815W        W23339   1.633  14.231  10.505 -0.1735 -0.1114 -0.2369
 5816W        W23340   2.286  13.963   0.124  0.2546  0.3526  0.0281
 5817W        W23341   7.161  11.602   1.101  0.1651 -0.0452 -0.0855
 5818W        W23342   2.252   8.751   2.573 -0.1389 -0.2214  0.2428
 5819W        W23343   5.247  16.710  13.916  0.1817  0.4056 -0.1300
 5820W        W23344   9.202  13.291  13.883  0.0515 -0.2648  0.1378
 5821W        W23345  17.662  14.494   4.035 -0.0543  0.3248 -0.0830
 5822W        W23346  15.119  10.020   0.122 -0.1222 -0.0407 -0.3183
 5823W        W23347   8.999   1.892   1.456  0.1374  0.2583 -0.2927
 5824W        W23348   7.673   5.547  11.367  0.1941  0.1173 -0.2419
 5825W        W23349  11.757  11.581  14.391 -0.1170 -0.1809 -0.3772
 5826W        W23350  13.729   3.706  14.150  0.0662 -0.1012  0.4199
 5827W        W23351  10.855  14.478   2.461  0.0017  0.0805 -0.0677
 5828W        W23352  15.599   4.495   1.640 -0.2466  0.4080  0.0287
 5829W        W23353  12.504   8.779   0.350 -0.3431 -0.1518 -0.0846
 5830W        W23354   3.480   6.735   2.916 -0.2026 -0.0587  0.0963
 5831W        W23355   4.565  16.871   1.571 -0.0615  0.0723  0.1769
 5832W        W23356   4.084  10.825   1.619  0.0335  0.2166  0.0297
 5833W        W23357  17.925   6.732   0.866 -0.0102  0.3349 -0.0338
 5834W        W23358  12.774   6.301  15.293  0.2490 -0.1072  0.3640
 5835W        W23359  12.403  10.225   1.776  0.3051  0.2749 -0.0815
 5836W        W23360  15.182   9.033   5.357  0.2347  0.0962 -0.1868
 5837W        W23361   2.782   1.248  15.879 -0.0543  0.3071 -0.2465
 5838W        W23362   4.949  13.205   1.369  0.0685 -0.1344 -0.2833
 5839W        W23363   5.879  16.413  14.474  0.2532 -0.0879  0.2524
 5840W        W23364  15.541   8.674  15.129  0.1144  0.0728 -0.1224
 5841W        W23365  12.161  12.223  14.970  0.1224  0.2130 -0.0311
 5842W        W23366  18.085  14.584  15.617 -0.0227 -0.0729  0.2030
 5843W        W23367   8.544  10.725  11.609  0.2520  0.3088 -0.2673
 5844W        W23368   3.484  12.826  15.254  0.1767  0.5728 -0.0458
 5845W        W23369  11.480   9.645  15.596 -0.0683  0.1029 -0.0086
 5846W        W23370   2.132  17.617  13.576 -0.0623 -0.3423 -0.1280
 5847W        W23371   2.585   3.503   1.020  0.3489  0.0696  0.0615
 5848W        W23372   2.578  16.741  14.157  0.0159  0.4283 -0.2221
 5849W        W23373   2.845   5.273   0.141 -0.2373 -0.0843  0.2165
 5850W        W23374  17.500   9.611  10.654  0.2566 -0.2814  0.2941
 5851W        W23375   7.819   5.480   3.527 -0.1627 -0.0837 -0.0534
 5852W        W23376  16.954   5.101   1.093  0.0844 -0.1817  0.0166
 5853W        W23377   0.475   7.813   4.758  0.1386  0.0861 -0.4054
 5854W        W23378  10.550  11.262   0.782  0.1495 -0.1617  0.0029
 5855W        W23379  16.176  14.000  11.329 -0.0634  0.0364 -0.0326
 5856W        W23380  18.018  17.785   3.266 -0.2181  0.0902  0.1838
 5857W        W23381  16.998  12.030  10.552  0.0351  0.1759  0.0148
 5858W        W23382  11.733   5.192  12.140 -0.0965  0.1496  0.0511
 5859W        W23383   7.741  16.131   3.045  0.1485 -0.2088  0.3509
 5860W        W23384  14.699   3.049  15.439 -0.3592 -0.0035  0.0052
 5861W        W23385   2.774   5.164   4.865  0.1455  0.0433 -0.0793
 5862W        W23386  12.774  10.369  12.647  0.6512 -0.0289  0.0750
 5863W        W23387   9.012   7.047   2.044  0.0069  0.1690  0.0435
 5864W        W23388   3.684  16.877  14.029 -0.2259  0.1926  0.0065
 5865W        W23389   3.317   5.987  15.154 -0.0681 -0.0098 -0.1381
 5866W        W23390  12.211   2.169  12.823  0.1669  0.1480  0.3822
 5867W        W23391  10.466  11.660  12.297  0.1334  0.1093 -0.1603
 5868W        W23392   5.729  16.395  13.058  0.1348 -0.3541  0.0903
 5869W        W23393   5.383   2.237   0.269  0.0054 -0.0636 -0.1009
 5870W        W23394   7.815  11.252  11.330  0.0351  0.2036 -0.2132
 5871W        W23395  11.119  15.647   3.824  0.0771 -0.1260  0.5537
 5872W        W23396  10.171   3.638  15.940  0.2126  0.1858 -0.0578
 5873W        W23397   4.272  17.972  12.252  0.2025  0.0764  0.0784
 5874W        W23398  16.214  15.235  12.057 -0.0081  0.0990  0.1062
 5875W        W23399  10.833   3.794   1.123  0.1719 -0.0063 -0.0637
 5876W        W23400   8.428   4.206  12.527 -0.4021 -0.0781 -0.0235
 5877W        W23401  15.620  10.352  10.589  0.0429  0.3354  0.1697
 5878W        W23402  14.714  11.193  13.913  0.2137  0.1330  0.1217
 5879W        W23403   2.342   2.510  15.757  0.1472 -0.0233  0.0558
 5880W        W23404   2.669  14.545  11.452  0.1264 -0.1246 -0.4053
 5881W        W23405   6.676   0.483   2.456  0.1279 -0.1369 -0.1103
 5882W        W23406   9.892  12.576   5.391  0.0874  0.2269 -0.0167
 5883W        W23407   3.682   5.291  14.037 -0.1214 -0.1779  0.0253
 5884W        W23408   5.608  17.407   3.992 -0.0902  0.0960  0.0959
 5885W        W23409   6.589  15.563   1.287  0.1306 -0.0012 -0.0906
 5886W        W23410  14.300   2.637  13.492 -0.1995  0.1208  0.0935
 5887W        W23411   6.899  17.890   2.185 -0.0812 -0.0019  0.1522
 5888W        W23412  16.919  13.173  13.939  0.1527  0.1194 -0.1239
 5889W        W23413  12.912  13.007  10.918 -0.2638 -0.2220 -0.3802
 5890W        W23414  16.790   6.472  15.101 -0.0122  0.0489  0.1278
 5891W        W23415   5.231   5.377   3.153 -0.1035 -0.2291 -0.1398
 5892W        W23416  16.176   8.150  13.169  0.0001  0.0261 -0.0211
 5893W        W23417  13.583   9.329  12.929  0.4710 -0.0457  0.0692
 5894W        W23418   8.876  16.713   2.384  0.1550  0.0367 -0.1549
 5895W        W23419  16.828  12.417   1.603 -0.1134  0.0819  0.1375
 5896W        W23420  13.130  15.280  15.802 -0.2405 -0.0834 -0.1868
 5897W        W23421  16.873  12.728  13.179  0.0255  0.0174 -0.1177
 5898W        W23422  16.856   7.122   2.592 -0.1088  0.2751 -0.3037
 5899W        W23423   9.091   3.616  11.501 -0.1368 -0.1963  0.1456
 5900W        W23424  10.167   1.665  16.071 -0.0423  0.2028 -0.0132
 5901W        W23425  13.921  17.841   5.365  0.0313  0.1440 -0.0411
 5902W        W23426   6.089  13.908   0.412  0.0408 -0.0457 -0.1133
 5903W        W23427  17.573  15.056  11.210  0.2679  0.1065 -0.0219
 5904W        W23428   4.404  15.302   4.372  0.2585  0.1444  0.0655
 5905W        W23429   4.484   8.627  10.084 -0.0525 -0.3574  0.0545
 5906W        W23430   3.930  17.826  12.527  0.0049 -0.0383  0.2767
 5907W        W23431  17.586  16.945   1.873 -0.0488 -0.0333  0.2456
 5908W        W23432  14.092  13.809   4.422 -0.0612 -0.1955  0.0932
 5909W        W23433   5.248   9.491   5.019  0.0503  0.1425  0.0043
 5910W        W23434   8.622   5.119  12.256 -0.2105  0.2775 -0.1965
 5911W        W23435   5.371   6.132   1.683  0.0064  0.0266 -0.0418
 5912W        W23436  14.993  13.746  10.124  0.1069  0.0513 -0.1688
 5913W        W23437   3.794   6.446  10.919 -0.0779 -0.2573  0.0896
 5914W        W23438   7.881   5.275  14.198  0.0072  0.1129 -0.0278
 5915W        W23439  13.185  15.282  15.273 -0.1259 -0.2505 -0.1829
 5916W        W23440  10.575  10.572  11.962 -0.1804 -0.0014 -0.0320
 5917W        W23441   6.939   6.405   3.865 -0.0520  0.0441  0.3223
 5918W        W23442  12.245   8.383   1.214 -0.1610 -0.1223 -0.0704
 5919W        W23443   6.804   9.780  13.750  0.1496  0.1720 -0.0771
 5920W        W23444   8.932  15.201   2.692 -0.1121 -0.2203 -0.0101
 5921W        W23445   6.935  14.732   0.740 -0.3606  0.0244 -0.1515
 5922W        W23446   4.205   6.775  14.311 -0.0842 -0.2581  0.1319
 5923W        W23447  12.544  10.216   0.838  0.0133 -0.0792  0.0340
 5924W        W23448  12.476   1.159   0.803  0.2196  0.2517  0.2225
 5925W        W23449   5.134  17.599   4.085  0.2628 -0.0492  0.2655
 5926W        W23450   8.530  14.858  13.015  0.0945 -0.0103 -0.2653
 5927W        W23451   4.571  15.629  15.074 -0.1535 -0.3991  0.1011
 5928W        W23452   8.006   3.972   2.289  0.1876 -0.0293 -0.1090
 5929W        W23453   7.129   3.648   3.317 -0.1136 -0.0306  0.0897
 5930W        W23454  13.547   4.028  15.321  0.0207 -0.2929 -0.1672
 5931W        W23455  13.200  15.127   0.737 -0.1743 -0.0894 -0.4219
 5932W        W23456   8.056   8.322   2.707  0.2525 -0.2859  0.0047
 5933W        W23457   5.376  15.829  12.004  0.0642  0.1401 -0.1202
 5934W        W23458   3.999  17.601   3.600  0.1280  0.2366  0.2439
 5935W        W23459  11.696   1.867   4.551 -0.4209  0.0201 -0.2884
 5936W        W23460   3.461   6.216   1.502  0.0367  0.1941 -0.0923
 5937W        W23461  14.699   2.651   0.996  0.0241 -0.0518 -0.1500
 5938W        W23462  18.074  16.736  12.213  0.0065  0.0364 -0.3142
 5939W        W23463   3.936  11.638   4.401 -0.1158  0.0611 -0.0468
 5940W        W23464   2.334   2.605   2.196  0.2495 -0.3345  0.1117
 5941W        W23465   2.206   6.481   5.309 -0.0164 -0.2496  0.0607
 5942W        W23466  12.223   5.791   2.772 -0.1654  0.0516  0.2481
 5943W        W23467   6.149   7.767  16.063  0.3917  0.2091  0.0364
 5944W        W23468   3.438   6.386  13.870 -0.1982 -0.1796  0.2001
 5945W        W23469   9.524   7.225  13.016  0.1578 -0.0499 -0.1461
 5946W        W23470  14.235  10.971  14.865  0.0378 -0.3478 -0.0514
 5947W        W23471  17.378  13.193   2.645 -0.0926 -0.0600 -0.1120
 5948W        W23472  11.034  16.695  13.084  0.4795  0.2374 -0.0082
 5949W        W23473   5.162   5.286   0.325  0.5524 -0.0143 -0.1511
 5950W        W23474   2.685   2.022   1.468  0.1969 -0.3523  0.0177
 5951W        W23475   6.936   3.653  14.321  0.0227 -0.1317 -0.1842
 5952W        W23476  11.238   3.608  12.482 -0.0442 -0.4150 -0.1664
 5953W        W23477   9.334  11.898   3.449 -0.1437  0.4325  0.0081
 5954W        W23478   2.902  13.495  12.197 -0.0829  0.2168  0.1888
 5955W        W23479  16.231   9.581  15.678  0.1996 -0.0832  0.0173
 5956W        W23480   7.250   9.993  13.683 -0.4670 -0.0869 -0.3131
 5957W        W23481   7.637   7.184  11.016 -0.1415  0.2074 -0.1275
 5958W        W23482   6.451  12.895   0.487 -0.0390 -0.0160 -0.1225
 5959W        W23483   3.131   2.765   2.372  0.2366  0.2626  0.0588
 5960W        W23484  13.221  13.955   1.991  0.1149 -0.3502 -0.0185
 5961W        W23485   9.490   4.932  16.087  0.2501  0.2677  0.0743
 5962W        W23486   0.238   4.286  12.557 -0.0446 -0.0042  0.2018
 5963W        W23487  17.438  17.342  14.646  0.0991  0.0374 -0.0845
 5964W        W23488  16.659  10.209   2.576 -0.1165  0.1841  0.0255
 5965W        W23489   1.049   0.149  15.080  0.0881 -0.1528  0.1684
 5966W        W23490   1.528  12.951  12.795 -0.0349  0.1388 -0.1047
 5967W        W23491   4.314  11.384  11.841 -0.0482  0.0448  0.1043
 5968W        W23492  17.647   0.959   2.479  0.0460 -0.1599 -0.1089
 5969W        W23493  10.485  10.373   4.312  0.1429 -0.0742  0.0755
 5970W        W23494   3.220  16.573   1.548 -0.1504  0.2112 -0.0354
 5971W        W23495   1.320   4.432  15.482  0.0830 -0.2530  0.2477
 5972W        W23496  12.845   0.573   5.033 -0.0780 -0.3590 -0.0715
 5973W        W23497  11.368   4.928   3.473  0.0891 -0.3198 -0.2023
 5974W        W23498  12.095   7.848   1.112  0.0922  0.3236 -0.1653
 5975W        W23499   8.799   6.203   2.322  0.0780 -0.0390 -0.1818
 5976W        W23500   9.835   4.310  15.521 -0.0455 -0.0796 -0.0971
 5977W        W23501   2.543  17.387  14.399 -0.1360  0.1106  0.1806
 5978W        W23502  15.511  17.118  15.982  0.1248 -0.0068  0.3111
 5979W        W23503   3.247   6.068   4.613 -0.2528 -0.3192 -0.0228
 5980W        W23504   2.197   3.729   2.055  0.0581  0.0444 -0.2329
 5981W        W23505  13.979   0.435   0.479 -0.1137 -0.1948 -0.2422
 5982W        W23506   2.247   0.623   2.559  0.0108  0.2044  0.1626
 5983W        W23507   5.872   0.617  13.528 -0.4317 -0.3549 -0.0946
 5984W        W23508   0.490  15.790   0.852 -0.1782  0.1891 -0.0018
 5985W        W23509  17.653  17.483   1.988  0.0462 -0.0890  0.0013
 5986W        W23510  11.293   6.362   3.762 -0.2289 -0.1810 -0.1467
 5987W        W23511  15.104  16.087   1.950 -0.1464  0.2311 -0.0044
 5988W        W23512   3.301   4.898  14.871  0.0835 -0.5241  0.3044
 5989W        W23513  14.658  10.705   1.751  0.1912 -0.0293 -0.0938
 5990W        W23514   1.367  11.605   3.826  0.1741  0.3111  0.3832
 5991W        W23515   1.097  10.578   4.924 -0.2527  0.0560  0.3444
 5992W        W23516  11.408   8.672  11.958  0.2984  0.1765 -0.4897
 5993W        W23517  15.921   1.987  12.362 -0.0747  0.1258 -0.2060
 5994W        W23518   5.371  14.739  12.846  0.1183 -0.0836  0.1973
 5995W        W23519  15.106   1.408   3.548  0.0126 -0.2648 -0.2073
 5996W        W23520   2.330   5.665  14.854  0.2205 -0.0596  0.0784
 5997W        W23521  10.300   2.502  14.550 -0.1836  0.0542 -0.2576
 5998W        W23522  12.645   3.239   0.715 -0.2409 -0.0916  0.3650
 5999W        W23523   8.891   6.931  14.529 -0.3644 -0.1698 -0.2105
 6000W        W23524  16.936  14.382  11.849  0.1854 -0.0889  0.4268
 6001W        W23525   0.557   3.182  15.431  0.1292  0.0986 -0.0952
 6002W        W23526   9.624  15.853   0.844  0.1846 -0.1771 -0.3331
 6003W        W23527   1.444   6.726   3.411 -0.0339  0.0984 -0.0137
 6004W        W23528   7.186  15.713   0.524 -0.1986  0.0246  0.0858
 6005W        W23529   5.644   4.190   0.634  0.0758 -0.4269 -0.0283
 6006W        W23530   4.177  12.603  14.241  0.1848  0.0181  0.0704
 6007W        W23531  12.498   2.637   3.596 -0.0561  0.1941  0.3089
 6008W        W23532   3.934  11.987   3.768  0.0870 -0.0685  0.2424
 6009W        W23533  11.611  14.330  14.361  0.1333  0.1684  0.0967
 6010W        W23534  18.171  14.882   1.710  0.3837  0.1712 -0.0819
 6011W        W23535  16.131   8.288   3.330  0.3438  0.0484 -0.0838
 6012W        W23536  14.782   0.379   4.929  0.0676 -0.0917  0.2599
 6013W        W23537   1.783  12.306   0.319 -0.0632  0.0481 -0.3303
 6014W        W23538  13.001   4.204   1.004 -0.1703 -0.0737 -0.0847
 6015W        W23539  13.950   6.131   3.829 -0.2647  0.4272  0.1665
 6016W        W23540  17.034   2.811  13.287 -0.0194  0.1807 -0.2307
 6017W        W23541  18.033   4.896   1.829  0.0338 -0.2896 -0.1629
 6018W        W23542  13.021   4.282  11.765 -0.1574  0.2173  0.2223
 6019W        W23543  11.740  11.900   4.538 -0.1030 -0.1737 -0.1444
 6020W        W23544  15.150   9.146   0.115  0.3426 -0.0917  0.1318
 6021W        W23545   5.182   7.650   3.981 -0.2604 -0.1491 -0.2837
 6022W        W23546   7.622   0.387   2.499  0.2077 -0.2449  0.2778
 6023W        W23547   0.965  13.456  13.303 -0.3595 -0.0017  0.2719
 6024W        W23548  13.881  10.054  13.349 -0.0919 -0.2458  0.0468
 6025W        W23549   9.309  14.297  14.757 -0.3630 -0.0495  0.3447
 6026W        W23550   9.245   7.153  16.040 -0.0631  0.0978  0.2753
 6027W        W23551   0.641   7.336   0.652 -0.3220  0.1356  0.2959
 6028W        W23552   5.446  10.792   3.202  0.1444  0.2587 -0.0643
 6029W        W23553  13.122   3.428  15.792 -0.1618  0.2385  0.1537
 6030W        W23554  10.958   0.107  11.795  0.4162  0.1471 -0.1552
 6031W        W23555   8.575   3.553  14.174 -0.3362  0.2370 -0.1156
 6032W        W23556   1.048   1.017   2.560  0.3485  0.0310 -0.2501
 6033W        W23557   8.796   8.417  12.956  0.0867 -0.0937 -0.1684
 6034W        W23558   8.004   5.002  10.633  0.3175  0.0275  0.0501
 6035W        W23559  16.454   3.460   1.518 -0.0140 -0.2408 -0.3716
 6036W        W23560  11.529   8.270  13.252 -0.1149 -0.0402 -0.1371
 6037W        W23561   2.947  14.021  13.938 -0.0844  0.0274 -0.0170
 6038W        W23562   6.023   9.547   0.360  0.0338 -0.2008  0.0498
 6039W        W23563  11.113  11.069   5.336 -0.1409  0.0217 -0.0205
 6040W        W23564  12.680   6.018   3.544 -0.0616 -0.1402  0.1235
 6041W        W23565  15.349  15.956  15.884 -0.0637 -0.2665 -0.1108
 6042W        W23566  12.229   5.884   2.226 -0.2571  0.0036  0.1378
 6043W        W23567  14.059   7.399  15.567 -0.1930 -0.3378 -0.1259
 6044W        W23568   6.105   1.228   0.970  0.0993  0.1351  0.2323
 6045W        W23569   5.612   5.340  12.172  0.1659 -0.1991  0.0666
 6046W        W23570  11.069  10.972   1.164 -0.4993  0.2571 -0.1374
 6047W        W23571  13.561  12.667  12.780  0.1475 -0.1560 -0.1573
 6048W        W23572   6.110   4.598  14.248  0.2834 -0.1798 -0.0191
 6049W        W23573  15.581   9.273  14.627  0.0223  0.2941 -0.0994
 6050W        W23574   3.820  11.542   3.020 -0.1534 -0.1176 -0.1879
 6051W        W23575  15.388   4.352   2.541  0.0868  0.1304 -0.1765
 6052W        W23576   1.338   9.346  11.778  0.2659 -0.0816  0.4404
 6053W        W23577   1.104   8.762  14.178  0.2193 -0.1072  0.4503
 6054W        W23578   8.023   4.130   0.589 -0.3031  0.2252  0.0157
 6055W        W23579   8.911   2.556   4.796 -0.0233  0.2704 -0.1492
 6056W        W23580  10.294   8.765   4.422  0.0403  0.3552  0.0282
 6057W        W23581   4.687   7.457  12.719 -0.0525 -0.0707  0.0042
 6058W        W23582   4.393  15.607  12.844 -0.0806  0.1698  0.2374
 6059W        W23583   4.241  12.405  15.097 -0.2291 -0.0196  0.1782
 6060W        W23584  15.607  13.118   2.459  0.1218 -0.0869 -0.2257
 6061W        W23585  16.695  17.869   4.712  0.2251  0.1162  0.0163
 6062W        W23586   6.398   3.347  14.608 -0.0205  0.1549  0.1545
 6063W        W23587   0.237  12.539   2.059  0.0397 -0.2397  0.0278
 6064W        W23588  17.480   3.845   4.715  0.2618 -0.1264 -0.0312
 6065W        W23589   7.637  13.307  16.097 -0.0072  0.0703  0.1482
 6066W        W23590  10.811   4.841   3.560 -0.2808 -0.1751 -0.3023
 6067W        W23591   8.286   4.045   2.737  0.1231 -0.4077 -0.0443
 6068W        W23592   0.536   9.414  14.404  0.0352  0.1493 -0.4653
 6069W        W23593   8.008   0.156   3.738  0.3311 -0.1343 -0.0224
 6070W        W23594   7.522  11.210   3.986 -0.2706 -0.2211 -0.2783
 6071W        W23595   4.307   6.971  12.060 -0.3174  0.0088  0.0446
 6072W        W23596  16.288   0.587   3.348  0.1356  0.2056  0.0033
 6073W        W23597  12.284  12.608   4.352  0.0470 -0.0143 -0.0520
 6074W        W23598   2.935  17.892   4.540  0.1813  0.1163  0.0214
 6075W        W23599  11.019  10.210   4.150  0.1405  0.1439 -0.1791
 6076W        W23600   3.897   0.886   0.503  0.2052  0.1408  0.2636
 6077W        W23601   7.193  13.782   0.833  0.3037 -0.1125  0.1615
 6078W        W23602   6.110   6.362  10.044 -0.2964 -0.0538  0.3418
 6079W        W23603   8.833   3.669   3.573 -0.1833 -0.0773 -0.1951
 6080W        W23604  15.149  16.626   3.754 -0.0007  0.3883 -0.1216
 6081W        W23605  13.758  17.224   2.880  0.0349  0.1170  0.2070
 6082W        W23606  16.285  10.177   3.306 -0.2770 -0.0951 -0.1385
 6083W        W23607   0.042   1.209  15.309  0.1370 -0.2757 -0.2043
 6084W        W23608  11.577   4.462  16.032  0.0818  0.0730 -0.4374
 6085W        W23609   4.297   0.443   3.260 -0.0569 -0.1695  0.0728
 6086W        W23610   1.530  10.099   3.238  0.2761  0.2493  0.0677
 6087W        W23611  16.754  16.858   0.200 -0.0841  0.1223 -0.0380
 6088W        W23612   3.010   8.943   2.294  0.1025 -0.0008  0.0784
 6089W        W23613   5.317   7.006   1.608 -0.1822  0.0975  0.2408
 6090W        W23614  15.722   2.380  15.632  0.0416  0.1265 -0.0842
 6091W        W23615   0.370  13.644  13.199 -0.2446 -0.0748  0.0335
 6092W        W23616   6.159  10.228  14.935 -0.0050  0.1134 -0.2870
 6093W        W23617   7.438   7.567  11.328 -0.0445 -0.1309 -0.0891
 6094W        W23618   5.687  10.532  15.597  0.0788  0.2500  0.0230
 6095W        W23619   7.018   5.159   3.517  0.0606  0.2315 -0.0298
 6096W        W23620  10.718  13.472  12.440  0.1257 -0.3970 -0.1415
 6097W        W23621  18.158  16.666   0.054 -0.2090 -0.0583  0.3770
 6098W        W23622  11.759   7.433   4.181  0.1785  0.1024 -0.0562
 6099W        W23623   6.650  14.293   2.095  0.0946  0.1085  0.3849
 6100W        W23624   8.620  16.313   2.585  0.0248  0.0997  0.1346
 6101W        W23625   7.049   4.302  11.897  0.0690  0.4724  0.0305
 6102W        W23626   4.032  15.381  11.674 -0.0695  0.2182  0.0028
 6103W        W23627   4.938  11.711  14.642 -0.1556  0.0305 -0.1296
 6104W        W23628  11.299   6.328   0.117 -0.1564 -0.0312  0.1502
 6105W        W23629   3.700   6.235   4.447 -0.0679 -0.1868 -0.2004
 6106W        W23630   7.245   9.988  13.192 -0.2274 -0.2946  0.0024
 6107W        W23631  12.832   5.903  15.633  0.0397  0.1812 -0.2519
 6108W        W23632  16.292   4.448  11.759 -0.1606  0.0238 -0.1259
 6109W        W23633   5.239   8.039  13.770  0.2383  0.2688  0.1403
 6110W        W23634   2.686  16.355  10.546 -0.4549 -0.2152 -0.0607
 6111W        W23635   2.959   2.396  13.645 -0.0152  0.1092  0.2492
 6112W        W23636   0.493   9.380   0.532  0.0256 -0.0963  0.3037
 6113W        W23637  15.332   7.462   4.757  0.0818  0.0428 -0.0517
 6114W        W23638  14.810   2.807   4.576 -0.0156  0.1115  0.1849
 6115W        W23639  10.085   3.339  13.617  0.0723  0.0210  0.1427
 6116W        W23640  16.208   1.555   2.617  0.1280 -0.4026  0.0900
 6117W        W23641  10.712  17.052  15.950 -0.1320 -0.1486 -0.1988
 6118W        W23642   4.267   0.799  12.311 -0.0300  0.0365 -0.1493
 6119W        W23643   6.329   9.459   3.852 -0.0280  0.2240 -0.0131
 6120W        W23644   0.465   8.524  15.363  0.2338  0.0735 -0.1201
 6121W        W23645  10.313  14.922   4.683  0.0834  0.2138 -0.1073
 6122W        W23646   1.482  16.823  13.512  0.0170  0.1119  0.1064
 6123W        W23647  10.302   2.643  15.353  0.1815  0.0052 -0.0705
 6124W        W23648   0.485   4.066  13.615 -0.0956 -0.0057  0.0061
 6125W        W23649   6.967  14.062  12.208 -0.0150 -0.1661  0.2059
 6126W        W23650   8.723   1.498   2.181  0.1212  0.3106  0.0986
 6127W        W23651   6.438  15.226  16.005 -0.0633 -0.4631 -0.1803
 6128W        W23652   3.115   0.041  15.789 -0.2138  0.2769  0.2022
 6129W        W23653   2.822  10.576  12.629 -0.0862 -0.0466  0.1978
 6130W        W23654   6.230  15.483  13.616  0.0266  0.0185 -0.1712
 6131W        W23655  10.720   0.864   3.491 -0.4770  0.1404  0.1203
 6132W        W23656   7.166   5.108  13.398 -0.0376  0.0957 -0.1531
 6133W        W23657  13.960   9.878  13.932  0.1732  0.2752  0.1198
 6134W        W23658   8.384  13.498  16.039 -0.1386  0.2578 -0.1886
 6135W        W23659   1.600  11.433   5.052  0.0048  0.4102  0.0283
 6136W        W23660  11.809  13.049  12.196 -0.1923 -0.1459 -0.0892
 6137W        W23661   5.964   5.940   1.468 -0.2035  0.1405  0.1414
 6138W        W23662  13.551  15.899   2.209  0.1427  0.1593  0.0086
 6139W        W23663  15.073   0.130   5.294  0.0320  0.3767  0.2592
 6140W        W23664   8.823  14.492   5.006 -0.0728  0.0015 -0.3684
 6141W        W23665   0.404   4.219  14.713  0.0612  0.1030  0.1806
 6142W        W23666  12.260   6.723  11.581  0.2477 -0.0406 -0.2500
 6143W        W23667   5.028   4.352  11.552 -0.2973  0.3732  0.0054
 6144W        W23668  11.564  12.792   4.499 -0.0222 -0.2427 -0.2046
 6145W        W23669  17.009  12.661  14.148 -0.0105 -0.1815 -0.0937
 6146W        W23670   3.449  14.999  16.002  0.3226  0.0715  0.2643
 6147W        W23671   9.980   7.597  13.007  0.0320  0.4358  0.0360
 6148W        W23672  13.371   6.966  12.187  0.0357 -0.1132  0.0192
 6149W        W23673  11.266   7.512  15.848 -0.1937 -0.1355  0.0101
 6150W        W23674  15.002   2.451   4.191 -0.0503 -0.1100 -0.2866
 6151W        W23675   0.208  15.552  13.939 -0.1876  0.1217 -0.1179
 6152W        W23676  10.872   8.816  14.360 -0.0000 -0.1426 -0.0306
 6153W        W23677  13.695  15.387   3.629 -0.0147  0.0831 -0.0434
 6154W        W23678  15.990  12.579  15.390 -0.3244  0.2578 -0.2115
 6155W        W23679   5.510  15.658   2.598  0.1049  0.5109 -0.2370
 6156W        W23680   0.582   2.926   2.174 -0.0990  0.1932  0.0964
 6157W        W23681   1.457  11.431   1.133 -0.2117 -0.0002 -0.1711
 6158W        W23682  17.210   7.135  12.088 -0.3011  0.4260  0.1426
 6159W        W23683   8.719  12.375  13.016 -0.0005  0.0429  0.2365
 6160W        W23684   6.197  16.116  15.499  0.0355 -0.1331  0.2488
 6161W        W23685   0.268  14.728   0.870 -0.3300 -0.0448 -0.4838
 6162W        W23686   1.250   7.221   1.866  0.2498 -0.0961  0.1511
 6163W        W23687   1.336  13.534   0.795  0.0687  0.4076  0.0714
 6164W        W23688  11.481   6.942  14.901 -0.3340 -0.5255 -0.0587
 6165W        W23689  10.940  12.198  14.356 -0.1006 -0.3516  0.1277
 6166W        W23690   7.379   8.781  10.144  0.0311  0.0013  0.0715
 6167W        W23691   6.933   8.646  12.283  0.0852  0.0825  0.0032
 6168W        W23692   2.472  10.344  14.000  0.1371  0.0902 -0.0402
 6169W        W23693  16.098   8.364   3.821  0.1031  0.1491  0.1184
 6170W        W23694   6.234   6.077   0.159  0.2070 -0.2312  0.3091
 6171W        W23695   7.221   3.679  11.393 -0.0367 -0.0929  0.2407
 6172W        W23696  17.009  10.240  12.140 -0.0488  0.1231 -0.0187
 6173W        W23697   5.506   4.188  11.601 -0.4590 -0.1791 -0.1917
 6174W        W23698   8.801  17.291   4.036 -0.1993 -0.0260  0.0341
 6175W        W23699  16.779   7.655  15.780 -0.1018 -0.3028  0.4415
 6176W        W23700   3.634   1.447   4.848 -0.0170 -0.5669  0.2802
 6177W        W23701  16.217   9.964   1.690 -0.1686 -0.2243 -0.2952
 6178W        W23702  16.187  17.421   4.022  0.1841  0.1174 -0.1788
 6179W        W23703   7.768   4.658   1.797 -0.1707 -0.0826 -0.0991
 6180W        W23704   6.600   8.720   1.983 -0.4439  0.1144  0.0912
 6181W        W23705   9.765  17.883  14.070 -0.1649  0.1919  0.2570
 6182W        W23706   4.121   3.066   0.461 -0.0031  0.1156 -0.1083
 6183W        W23707  11.421  10.484  14.039 -0.1822  0.0949  0.0208
 6184W        W23708   9.202  10.914   4.235  0.0203  0.2779  0.0394
 6185W        W23709  11.300  13.858   4.342 -0.0260  0.2585 -0.2804
 6186W        W23710   0.091   1.990  12.467  0.2434 -0.0009  0.2775
 6187W        W23711  15.620  15.628   4.434 -0.4316 -0.0692 -0.1434
 6188W        W23712   3.067   5.651   3.295 -0.2295  0.3879 -0.0729
 6189W        W23713  16.231  11.214  11.528  0.1525  0.1518 -0.0405
 6190W        W23714  11.202   7.218  13.152  0.2020  0.1965 -0.1890
 6191W        W23715   9.430   7.612   1.660 -0.0846  0.0133  0.0594
 6192W        W23716  16.606   4.883   4.355  0.2204 -0.2689 -0.1444
 6193W        W23717  14.131  12.316  13.880 -0.1233 -0.0770  0.1259
 6194W        W23718  10.509  17.864  11.711  0.0119  0.0697  0.1684
 6195W        W23719  15.634  13.513   1.573 -0.1854  0.2266 -0.2541
 6196W        W23720  14.622   3.275   5.565 -0.0672  0.0921  0.1474
 6197W        W23721   9.822   2.898   3.099 -0.0935  0.0637  0.0757
 6198W        W23722  17.879   3.335   3.597  0.1125 -0.4793 -0.0466
 6199W        W23723   4.601   9.454   1.222  0.2536 -0.2592  0.0396
 6200W        W23724   5.779   4.408  15.889 -0.0251  0.0487  0.1707
 6201W        W23725  16.402  11.965   1.564 -0.1847  0.0148  0.0780
 6202W        W23726   5.655   3.996   2.105 -0.0298 -0.1897 -0.3321
 6203W        W23727  13.630  14.402  14.181 -0.2451 -0.1359  0.0306
 6204W        W23728  17.630   2.588  14.192  0.4371  0.0597  0.0331
 6205W        W23729  14.512   4.536  14.527 -0.2959  0.4299  0.0217
 6206W        W23730  13.529   0.334   2.503  0.0723 -0.2564 -0.0520
 6207W        W23731  17.875  10.127  13.339 -0.2137 -0.2613 -0.2467
 6208W        W23732  13.456   7.322   4.578  0.2026  0.2831 -0.0182
 6209W        W23733   9.479   0.826   4.422 -0.1063 -0.0613  0.2995
 6210W        W23734   6.095   1.815  15.303 -0.1700  0.0132 -0.1317
 6211W        W23735   8.628  16.542  15.246  0.1129 -0.0505 -0.0440
 6212W        W23736   3.025   7.301  14.171  0.2480 -0.0589  0.0938
 6213W        W23737  17.402   5.978  14.308  0.0237  0.1312  0.1244
 6214W        W23738  14.023   3.319   1.276 -0.0908 -0.0270  0.2521
 6215W        W23739   2.271   6.350   4.787  0.1994 -0.2040  0.0984
 6216W        W23740  16.326  13.867  16.002 -0.0384 -0.3537  0.0927
 6217W        W23741   2.560   7.241  13.954  0.0375  0.1331  0.0368
 6218W        W23742  13.728  12.995   2.886 -0.0305 -0.0572  0.2234
 6219W        W23743  11.168   7.627  12.217 -0.0257  0.3094  0.1400
 6220W        W23744  16.336   5.224  12.772  0.1786  0.1227  0.1618
 6221W        W23745   4.363  11.763  15.971 -0.1670  0.1016  0.1457
 6222W        W23746   4.501  12.583  13.747 -0.2789 -0.0103 -0.1360
 6223W        W23747  11.342  11.300   3.849  0.1122  0.1889  0.0558
 6224W        W23748  13.799  12.443   0.455 -0.0501  0.0938  0.3119
 6225W        W23749  16.766  12.097  12.817 -0.0886 -0.0091  0.4359
 6226W        W23750  12.769   6.263  13.121  0.2825  0.0700  0.2601
 6227W        W23751   4.179   0.191  13.097 -0.0888 -0.0276 -0.1242
 6228W        W23752   3.543  16.913   0.254  0.4321  0.2200  0.0659
 6229W        W23753   9.898  12.471  10.068  0.0288  0.0344  0.1590
 6230W        W23754   4.954  10.925   2.830  0.1595  0.1908  0.0505
 6231W        W23755  13.129   5.174  11.601 -0.1808 -0.0215  0.1876
 6232W        W23756   2.480  14.295  13.979  0.1070  0.2822 -0.2357
 6233W        W23757  13.523   2.169   4.376  0.4466 -0.1076  0.0915
 6234W        W23758   3.509  15.522   3.029 -0.0364  0.1031  0.2589
 6235W        W23759   1.649   6.501  12.468  0.1164 -0.0382  0.1682
 6236W        W23760   1.789   4.762  12.747  0.2836  0.0337 -0.1842
 6237W        W23761  15.030   2.324  16.021  0.0328 -0.0438  0.1402
 6238W        W23762   4.282   1.925  15.622 -0.1560 -0.1566  0.1195
 6239W        W23763   8.746  16.345  11.917 -0.0608 -0.0295  0.1574
 6240W        W23764  12.444  13.139   4.964 -0.2136  0.1728 -0.0598
 6241W        W23765  11.728   0.294   3.108 -0.3690 -0.2331 -0.0519
 6242W        W23766  12.559  14.001   0.040  0.0341  0.1347  0.3591
 6243W        W23767   0.466  11.036   1.518  0.0774 -0.1246  0.3488
 6244W        W23768   7.898  16.745  14.347  0.2381 -0.1235  0.0457
 6245W        W23769   5.022   3.736  14.756 -0.4742  0.3520 -0.3103
 6246W        W23770   0.243   7.411  12.585  0.0204 -0.2116  0.0166
 6247W        W23771   4.904   5.692   3.892 -0.2129 -0.2118  0.0320
 6248W        W23772   1.985  14.148   3.770 -0.0370 -0.0310  0.1822
 6249W        W23773  14.982   5.767   3.156 -0.2520 -0.0669 -0.2921
 6250W        W23774  17.504   5.909  12.815  0.0000  0.2290  0.0270
 6251W        W23775  16.263   4.748   5.298 -0.3021  0.2113  0.0063
 6252W        W23776   1.283   1.779   1.574  0.0025  0.0481 -0.0048
 6253W        W23777  11.823  10.728  10.929 -0.0925  0.1867 -0.2702
 6254W        W23778  16.944   0.654  13.559 -0.0215 -0.1162 -0.1382
 6255W        W23779   9.045   3.067  13.112  0.0127 -0.1887 -0.0926
 6256W        W23780  15.901   7.866  15.187  0.3139  0.1011  0.0140
 6257W        W23781  10.749  15.645  14.945 -0.0650  0.3437  0.0210
 6258W        W23782   2.869   5.797  15.044  0.1217 -0.3358  0.3062
 6259W        W23783  10.058   6.399  14.785  0.1272 -0.1262 -0.3388
 6260W        W23784   8.042   5.201  12.942 -0.1879  0.0761 -0.1577
 6261W        W23785   8.066   7.336  15.216  0.1337  0.0716  0.0028
 6262W        W23786  11.873   8.301   0.827  0.0049  0.0408 -0.1412
 6263W        W23787  12.865   2.722   3.920  0.0990 -0.0213  0.3612
 6264W        W23788   4.590   5.209   4.120 -0.1044 -0.1122 -0.1674
 6265W        W23789   3.729   4.850   2.648  0.1085 -0.1641  0.1243
 6266W        W23790   3.150  15.549   1.688 -0.2835 -0.0903 -0.3296
 6267W        W23791   5.841   6.127  15.698  0.0461 -0.1258  0.0688
 6268W        W23792  16.807  16.722   3.562  0.1802 -0.0333 -0.2231
 6269W        W23793   3.976  16.401  12.389 -0.2135  0.0290 -0.1797
 6270W        W23794   6.383   5.619  11.530  0.0656  0.2056  0.2383
 6271W        W23795   6.194   9.821   4.310 -0.1913  0.0476 -0.2527
 6272W        W23796   7.335  15.790   2.290 -0.1996  0.3144  0.1617
 6273W        W23797   5.484   8.473  12.457  0.1020  0.0509  0.0475
 6274W        W23798  13.671   7.907   1.855  0.0594  0.0461  0.0822
 6275W        W23799   3.050   8.955  11.583  0.2914  0.3549 -0.1793
 6276W        W23800   2.085   0.161   3.801  0.3008 -0.1263  0.2524
 6277W        W23801  14.363   5.728  14.456 -0.0052 -0.1275  0.2864
 6278W        W23802   6.182  12.009   0.813 -0.5273 -0.0063 -0.0747
 6279W        W23803   9.084  12.951  11.214 -0.0886  0.3200 -0.1219
 6280W        W23804  12.020   0.429  13.777 -0.3520 -0.1213  0.0389
 6281W        W23805   8.006   9.931  13.765 -0.1774  0.1013 -0.4110
 6282W        W23806   7.001   5.674   1.475  0.2282  0.3629  0.1239
 6283W        W23807   6.671  16.976  14.657  0.1236 -0.0946  0.2084
 6284W        W23808   0.273  15.799  15.922 -0.3586 -0.1226  0.0181
 6285W        W23809   2.436   0.982  12.047  0.1567  0.2927 -0.0801
 6286W        W23810  14.047   8.200   1.791  0.0741  0.1556 -0.2764
 6287W        W23811  14.411   7.095   3.424  0.2972  0.2104  0.3831
 6288W        W23812   3.395   7.064   4.176 -0.1035 -0.0926  0.3760
 6289W        W23813   8.167  17.393   2.695  0.2118  0.0978 -0.1136
 6290W        W23814   5.037   2.524   5.212  0.1702 -0.0841 -0.2989
 6291W        W23815  17.805  14.620   1.966 -0.0007 -0.1793 -0.2207
 6292W        W23816  11.807  10.300   2.504  0.1748 -0.1179  0.0693
 6293W        W23817   2.180  16.320   3.336 -0.1841  0.1036  0.2262
 6294W        W23818   1.881   7.920  13.927  0.0625 -0.0009 -0.1139
 6295W        W23819  17.258   0.871  12.729  0.0219  0.1222 -0.0543
 6296W        W23820   5.555  17.999  15.614 -0.0066 -0.0864 -0.0339
 6297W        W23821   4.464  11.100   4.817 -0.0011 -0.1780  0.0162
 6298W        W23822  10.870   7.837   4.398 -0.0185  0.2726  0.0983
 6299W        W23823   8.460   0.793  14.726 -0.1151 -0.0342 -0.1153
 6300W        W23824  13.509   3.220  15.393  0.2832  0.2664  0.0137
 6301W        W23825  10.805   9.444   2.286 -0.0235 -0.1689  0.2286
 6302W        W23826  16.988  14.466  13.460 -0.0402  0.0047  0.0923
 6303W        W23827  12.218   3.328  13.930 -0.0633 -0.0027 -0.0951
 6304W        W23828   7.557   1.248   1.166 -0.1405  0.1316  0.0124
 6305W        W23829  10.982   4.186   2.203 -0.1164 -0.0469  0.3663
 6306W        W23830  12.159  12.430  11.440  0.0068 -0.1829 -0.2080
 6307W        W23831   7.332   7.923   4.735 -0.1249  0.1809  0.0188
 6308W        W23832   3.810   2.475   1.312  0.0628 -0.1142  0.1948
 6309W        W23833   3.844  15.439  14.718  0.0729  0.1203  0.1361
 6310W        W23834  13.951   4.775  10.922  0.2761 -0.0104 -0.0459
 6311W        W23835   5.407   5.299   2.645 -0.0656 -0.0607  0.0240
 6312W        W23836   9.414   7.584  15.018  0.0010  0.0634  0.2692
 6313W        W23837  15.135  13.379  11.408  0.1986 -0.0669  0.0281
 6314W        W23838  12.395   3.349  14.551  0.2070  0.2591 -0.0970
 6315W        W23839   5.381   0.766   3.489  0.0949 -0.3206  0.1858
 6316W        W23840  10.562   7.456   5.461 -0.1720  0.0326 -0.0054
 6317W        W23841  18.029   8.260   1.866 -0.0037 -0.1290  0.4399
 6318W        W23842   3.711   1.013  12.699 -0.1813  0.1824 -0.2628
 6319W        W23843  16.641  16.638  13.403  0.0210 -0.1807 -0.1431
 6320W        W23844  17.270  14.003   1.004 -0.0057  0.2259  0.1833
 6321W        W23845   7.699   2.627   2.154  0.3519 -0.4613 -0.2318
 6322W        W23846  12.644  14.529   4.987  0.2033 -0.1077  0.1840
 6323W        W23847  10.786  13.815   0.996 -0.1924 -0.0460  0.3118
 6324W        W23848  10.031   2.949   4.321  0.0687  0.0375 -0.0109
 6325W        W23849   5.750  12.159  11.519  0.2831 -0.0813  0.0619
 6326W        W23850   0.407  13.633   4.947  0.0389 -0.0623 -0.1188
 6327W        W23851   8.034   8.784  15.854  0.1611 -0.1147  0.1740
 6328W        W23852  17.840  11.203  14.623  0.0464  0.0797 -0.2884
 6329W        W23853   6.597   4.015   3.054  0.1779 -0.0816 -0.1285
 6330W        W23854   5.709   7.606   0.144  0.0652  0.1075 -0.0064
 6331W        W23855   2.463   5.045  16.020  0.1239  0.2645  0.0210
 6332W        W23856   4.558  12.967   1.525 -0.0361  0.0162 -0.2918
 6333W        W23857   1.541   9.274  13.091  0.0790  0.0423 -0.2248
 6334W        W23858  14.628   7.474   1.668  0.3153  0.0505 -0.0405
 6335W        W23859  15.879   7.859   0.276 -0.0158 -0.0313 -0.1134
 6336W        W23860   0.299  11.356   4.653 -0.1298 -0.1970 -0.1520
 6337W        W23861  12.929   2.724   0.928  0.0345 -0.1915  0.1577
 6338W        W23862   1.368  17.904   2.344 -0.0223  0.2670  0.2559
 6339W        W23863  16.804  14.662  14.239 -0.2123 -0.1553 -0.0241
 6340W        W23864   9.705   3.685  13.947 -0.0343 -0.1212 -0.0508
 6341W        W23865  12.637   5.094  13.490 -0.0186 -0.1509 -0.1491
 6342W        W23866   5.688  17.346  11.541 -0.0464  0.0050  0.0906
 6343W        W23867   6.841   2.295   4.355  0.0726  0.1922  0.1744
 6344W        W23868   7.872  13.518   3.596 -0.3358  0.3229  0.0433
 6345W        W23869   1.690   2.353   2.611  0.3060  0.0133 -0.1076
 6346W        W23870   1.216   3.849  12.152 -0.0979 -0.0137  0.0521
 6347W        W23871  10.153  10.944   3.194 -0.1627  0.1775  0.0018
 6348W        W23872   5.026   9.720  14.057 -0.0134  0.0844  0.0278
 6349W        W23873  10.863  10.571   2.084 -0.1388  0.0960 -0.3459
 6350W        W23874   8.013  17.366   1.798 -0.1683  0.0934  0.2055
 6351W        W23875  13.965   1.797  14.371  0.0461  0.1715 -0.2671
 6352W        W23876   8.976  13.667   1.036 -0.0906 -0.3277 -0.0389
 6353W        W23877  16.825   3.139   1.648  0.1777 -0.2963 -0.1670
 6354W        W23878   2.801  15.055  13.644  0.4357 -0.0905 -0.0247
 6355W        W23879  14.738   1.583   1.161  0.1456 -0.2218 -0.2227
 6356W        W23880  16.362   6.833   1.611  0.1330  0.1599 -0.0874
 6357W        W23881  13.640   1.768   0.319  0.1163 -0.1167 -0.2546
 6358W        W23882   2.704  16.364  15.204  0.0308 -0.0249 -0.2269
 6359W        W23883   9.861   6.683   0.575 -0.0956 -0.0159 -0.1392
 6360W        W23884   6.170  18.034  15.289  0.1387 -0.0558  0.0025
 6361W        W23885  16.734  16.789   2.380  0.0991 -0.1433  0.3581
 6362W        W23886   9.274   8.525  13.643  0.1561 -0.0424 -0.0067
 6363W        W23887   8.683  17.844   3.280 -0.0053 -0.1054  0.3415
 6364W        W23888  13.276   4.026   0.576  0.2424  0.1409 -0.1035
 6365W        W23889   5.183   6.885   0.158  0.1983  0.1731 -0.2124
 6366W        W23890   2.070  13.495   0.411  0.2013  0.3023 -0.1400
 6367W        W23891  16.902  13.744   3.714 -0.0451 -0.2637 -0.2063
 6368W        W23892  14.547  17.212  14.980 -0.1501 -0.0786  0.2256
 6369W        W23893   4.198  11.751   3.284 -0.3284  0.2873  0.0011
 6370W        W23894  13.088   8.033   4.222 -0.0599 -0.3300 -0.2173
 6371W        W23895   5.381   0.657  15.355  0.1682  0.0668 -0.2190
 6372W        W23896  13.100  17.643  11.665  0.2874  0.2605 -0.2114
 6373W        W23897   6.537  16.470  12.374  0.0026 -0.2111 -0.1548
 6374W        W23898   8.306   6.960  13.318 -0.2882 -0.0799  0.1244
 6375W        W23899  10.948  17.935  12.702 -0.0826 -0.1057  0.3334
 6376W        W23900  16.007  12.640   4.203  0.1788 -0.0247  0.0840
 6377W        W23901   2.361  18.186  12.586 -0.0326 -0.0532 -0.2517
 6378W        W23902  14.403  13.212  12.682 -0.0599 -0.1618 -0.0131
 6379W        W23903  16.122  12.060  16.003  0.3724  0.0364  0.0779
 6380W        W23904   1.618  10.063  13.515 -0.1888 -0.0510  0.0511
 6381W        W23905   9.697  14.647   5.423  0.2631  0.0820  0.1285
 6382W        W23906  14.213   7.051   4.365 -0.2235 -0.0601  0.0438
 6383W        W23907   6.912  10.320   2.768 -0.1997  0.1298 -0.2613
 6384W        W23908   8.885  16.989  13.369 -0.0258  0.2017  0.0529
 6385W        W23909  15.730  10.669   3.754  0.0155 -0.0919 -0.0470
 6386W        W23910  11.815   8.638   1.256 -0.2327  0.0933 -0.1098
 6387W        W23911   0.178  16.159   1.073  0.0671 -0.0867 -0.1389
 6388W        W23912  11.749   8.611  11.194 -0.1209 -0.1730 -0.1606
 6389W        W23913   1.984  11.582   0.380  0.0228  0.1487 -0.1278
 6390W        W23914   7.482  13.719   3.380  0.1660 -0.2203 -0.0995
 6391W        W23915   7.773   2.765   4.207  0.2967  0.2527  0.0325
 6392W        W23916  10.720  13.483   2.645  0.0108  0.0400  0.0877
 6393W        W23917   3.622  12.555  12.471 -0.0870  0.0671 -0.0697
 6394W        W23918   6.073   5.205   0.730  0.2329  0.0199  0.0730
 6395W        W23919   7.374  17.691   2.286 -0.0436 -0.1031 -0.1835
 6396W        W23920  16.795   2.724  14.415  0.2296  0.1957  0.0159
 6397W        W23921   9.886   3.881   2.787  0.0670  0.0130 -0.0626
 6398W        W23922  13.755  14.840   2.321 -0.0324 -0.1530  0.0794
 6399W        W23923   6.089   6.554   4.546 -0.0002  0.2231  0.2758
 6400W        W23924   5.600  12.798  10.787  0.1578 -0.0397  0.1850
 6401W        W23925   1.380   8.969  14.536  0.0852 -0.2096 -0.0965
 6402W        W23926  10.195   0.642   3.689 -0.0875 -0.1336 -0.0663
 6403W        W23927   3.828   4.859   0.107 -0.2392  0.1504 -0.0215
 6404W        W23928   3.318   3.658   0.718 -0.0443  0.0297  0.1691
 6405W        W23929  17.288   2.889  11.735 -0.1780  0.0316 -0.3152
 6406W        W23930   2.079  12.053   4.069  0.0388 -0.0185 -0.0806
 6407W        W23931   5.686   7.889   1.882 -0.0627  0.0469  0.0532
 6408W        W23932   9.043  17.260  13.842  0.4692 -0.1275 -0.1606
 6409W        W23933   5.045   6.694   2.602 -0.1791 -0.2172 -0.1075
 6410W        W23934  12.746  18.038  16.012  0.0991 -0.1040 -0.0237
 6411W        W23935   3.782   8.080   5.316  0.3466  0.0067 -0.2346
 6412W        W23936   0.521  10.654  13.697 -0.2500  0.2755 -0.2137
 6413W        W23937   6.755  15.531  13.548  0.0633 -0.1260 -0.2185
 6414W        W23938   1.982   7.100   0.077  0.0378  0.1708  0.2042
 6415W        W23939  11.760   1.970   3.103  0.0456 -0.3850 -0.0170
 6416W        W23940  11.108   4.880   1.528 -0.2131  0.1520  0.1485
 6417W        W23941  14.715   8.017  12.857 -0.1005  0.0255  0.1127
 6418W        W23942  11.706  17.705   1.334 -0.2368 -0.1329  0.2008
 6419W        W23943  10.347  15.034   1.622 -0.0787 -0.2990 -0.0418
 6420W        W23944   6.334   0.348  15.287 -0.0051 -0.2060  0.0373
 6421W        W23945  11.415   4.013   0.615 -0.3492  0.0770 -0.0353
 6422W        W23946   5.844  10.079  13.326 -0.2328 -0.0468  0.1721
 6423W        W23947   1.572  16.974   0.805  0.1859 -0.0904  0.0391
 6424W        W23948   1.180  11.806   3.296  0.0727  0.0207  0.0413
 6425W        W23949  13.774   7.113   4.081 -0.0306  0.4795 -0.2046
 6426W        W23950  11.546  17.488   3.196 -0.1230  0.1739 -0.0739
 6427W        W23951  15.616   2.636   1.275  0.1386  0.0841  0.0215
 6428W        W23952   0.216   1.080   0.141  0.3870  0.2443  0.1262
 6429W        W23953   6.638   3.613   2.435  0.1121  0.3008 -0.0907
 6430W        W23954  12.083  12.835   5.151 -0.2637  0.1042  0.3796
 6431W        W23955   9.246  16.234  12.565 -0.0084  0.0461 -0.2798
 6432W        W23956  15.700   2.845   4.248 -0.2250 -0.2512  0.0177
 6433W        W23957  17.177   7.169   1.812  0.1036 -0.0628 -0.0246
 6434W        W23958   9.612   1.361   2.868  0.0023  0.1658  0.0009
 6435W        W23959  13.366   2.853  12.924 -0.0071 -0.1254  0.0346
 6436W        W23960  12.280  10.162   3.347  0.0696 -0.0025  0.0130
 6437W        W23961   9.796   1.574  14.747 -0.2328 -0.3572 -0.0966
 6438W        W23962  13.626   6.398  16.084  0.0756  0.0653  0.1325
 6439W        W23963   7.154   1.787  14.484  0.1209  0.2664  0.0553
 6440W        W23964   1.266  16.328   3.958  0.0919  0.2148  0.0285
 6441W        W23965  13.261   6.031   4.932 -0.0085 -0.3570 -0.0714
 6442W        W23966  15.072  17.519  15.024 -0.2334 -0.1314  0.1136
 6443W        W23967   0.901   9.256   0.798 -0.0328  0.0292 -0.2565
 6444W        W23968  10.532  12.188   2.118 -0.1424  0.2026 -0.0932
 6445W        W23969   0.863   8.657  12.554  0.1332 -0.1288 -0.0956
 6446W        W23970  16.352   1.022   4.478 -0.4183 -0.0518  0.0783
 6447W        W23971  13.942  14.384   4.690 -0.2960 -0.0073 -0.0121
 6448W        W23972   8.689   5.105   2.187  0.0492 -0.1260 -0.2114
 6449W        W23973   2.679   6.189   0.840 -0.1508  0.3683  0.1157
 6450W        W23974  17.717  16.948  14.937 -0.2417 -0.2031 -0.2624
 6451W        W23975  15.774   4.400  14.392 -0.0713  0.0436  0.0101
 6452W        W23976  14.792  14.158  12.501 -0.0418  0.5010 -0.1649
 6453W        W23977   7.178   3.286  13.341 -0.0173 -0.0842 -0.0319
 6454W        W23978  14.314  10.631  12.222  0.2841  0.1079 -0.1425
 6455W        W23979   5.685  12.142  13.768  0.0929 -0.1866 -0.0768
 6456W        W23980   6.515   4.816   0.313  0.1674 -0.0434 -0.1894
 6457W        W23981  10.670  14.751  11.918 -0.0591  0.3038  0.2038
 6458W        W23982   9.465   3.796   4.377 -0.1761  0.0164 -0.2262
 6459W        W23983   9.494  10.667  14.078  0.0478 -0.2312  0.0575
 6460W        W23984  11.697   8.679   2.607 -0.1204 -0.0566  0.2991
 6461W        W23985   8.012   0.856   0.874  0.0175 -0.1721 -0.0462
 6462W        W23986   6.618  17.654   0.241 -0.1177  0.0145 -0.1292
 6463W        W23987  16.837   5.567  13.820 -0.0681 -0.1231  0.1951
 6464W        W23988  13.034   5.070  13.989 -0.0685 -0.2774  0.2366
 6465W        W23989   8.240  11.302  13.937  0.0729  0.0836  0.2297
 6466W        W23990   5.711  16.315   3.202 -0.3197  0.3266 -0.0217
 6467W        W23991   7.394   5.417  14.144  0.0619 -0.0286  0.1266
 6468W        W23992   7.744  13.207   0.542  0.2521  0.0352 -0.0861
 6469W        W23993  10.704   8.526  15.607  0.1228  0.3253 -0.2788
 6470W        W23994  17.270   4.970  12.597  0.0867  0.4922  0.3381
 6471W        W23995  15.046   5.697   0.326 -0.0007 -0.1744  0.0419
 6472W        W23996  17.437  13.728   1.432 -0.2213  0.0971 -0.1846
 6473W        W23997   7.338   5.833  11.636 -0.2569 -0.0390  0.0075
 6474W        W23998  10.159   1.315  12.771  0.3031 -0.1953  0.0991
 6475W        W23999   4.633  17.372  11.542 -0.1386  0.1941 -0.2027
 6476W        W24000   6.976   2.053  13.634 -0.1657 -0.0408  0.0313
 6477W        W24001  12.248   8.500  13.745  0.0421  0.1808 -0.0896
 6478W        W24002  11.747  10.730   2.138  0.1655  0.3876  0.1073
 6479W        W24003  15.888   4.101  12.833  0.0752 -0.0859  0.1283
 6480W        W24004   9.414   0.019   1.615  0.1702  0.1927  0.1444
 6481W        W24005   4.554   1.614   4.282  0.1389  0.3102  0.2188
 6482W        W24006  15.360  17.445   2.320 -0.0591 -0.1416  0.0581
 6483W        W24007   2.848   1.525   3.993  0.0768 -0.0923 -0.0503
 6484W        W24008   8.848   6.957  14.063 -0.1972  0.1986 -0.0599
 6485W        W24009   1.764  16.300  14.515 -0.1388  0.4265 -0.2261
 6486W        W24010   0.376  14.466   1.267 -0.0816  0.1618  0.0894
 6487W        W24011   9.654  15.161  13.701  0.2977 -0.0152  0.0069
 6488W        W24012  11.990  12.990  13.162  0.1659  0.2003 -0.1399
 6489W        W24013  13.407  16.701  13.132  0.3381 -0.1766  0.0280
 6490W        W24014  11.592  12.340  15.513  0.0198  0.4124 -0.1215
 6491W        W24015   2.591   5.130   0.900 -0.0736  0.0347  0.1335
 6492W        W24016   2.378  13.522   4.834  0.0273  0.0305 -0.1501
 6493W        W24017   3.951  11.816  13.024 -0.0571 -0.1219 -0.0128
 6494W        W24018   7.890   2.448  15.169 -0.0163  0.2533 -0.1250
 6495W        W24019  12.714   9.154   0.600 -0.0843  0.0560  0.0063
 6496W        W24020  13.799   1.396   4.757 -0.4129  0.0492 -0.0812
 6497W        W24021   4.851   6.169  11.903  0.1198 -0.2078  0.2576
 6498W        W24022  15.660  10.645  13.705  0.2288  0.2057  0.0889
 6499W        W24023   4.750   4.621  16.015 -0.1473 -0.0815  0.0627
 6500W        W24024   2.927  14.900   0.634 -0.0356 -0.0483  0.3812
 6501W        W24025   7.370  15.207  12.949 -0.0838 -0.0951 -0.1560
 6502W        W24026   7.375  11.031  13.078  0.0596 -0.0636 -0.1356
 6503W        W24027   7.626  10.704   0.050 -0.2079 -0.1942 -0.2140
 6504W        W24028   2.520   1.867  14.738 -0.1841 -0.3326  0.3902
 6505W        W24029   8.054  13.953   4.472 -0.1049  0.0734  0.3009
 6506W        W24030   6.569  17.822   2.935  0.0242 -0.2993  0.1574
 6507W        W24031  14.510   9.137   4.675 -0.0323 -0.0271  0.4659
 6508W        W24032   4.679   8.986  12.666 -0.0477  0.2814  0.0242
 6509W        W24033   4.014   8.268  11.122  0.1965 -0.0149  0.1001
 6510W        W24034   6.276   8.149  12.395  0.2137 -0.3103 -0.0584
 6511W        W24035  14.191   8.872   2.355 -0.1197  0.1516  0.1181
 6512W        W24036   2.374  17.512   2.349  0.1852  0.0955 -0.0284
 6513W        W24037  10.555  14.397   6.181 -0.2388  0.1641 -0.1719
 6514W        W24038   6.073   5.889  14.149 -0.1674 -0.0639 -0.0744
 6515W        W24039   3.206   4.207  15.598 -0.1314 -0.1711 -0.0122
 6516W        W24040   2.514   9.849   4.544 -0.3063 -0.0466 -0.4927
 6517W        W24041  17.016   5.465   5.544  0.0305 -0.0224 -0.0984
 6518W        W24042   4.668  11.314   2.118 -0.1526  0.0501  0.2643
 6519W        W24043  13.161   2.107   2.542 -0.0797 -0.0045  0.3492
 6520W        W24044  13.320   3.875  15.834  0.2061  0.1605 -0.1902
 6521W        W24045   5.559  18.124   2.475  0.1325  0.0701  0.4651
 6522W        W24046   7.044  11.168   0.199  0.0496 -0.1755 -0.1880
 6523W        W24047   9.173  14.680   2.725  0.1191  0.2031  0.0704
 6524W        W24048  17.211   3.195  13.565 -0.0298 -0.0389  0.1236
 6525W        W24049  15.276   0.435   5.757 -0.3319  0.1203 -0.1570
 6526W        W24050   8.722   4.730   1.879 -0.1930 -0.1148  0.2839
 6527W        W24051   5.720   9.133  15.229  0.1222 -0.3140  0.2084
 6528W        W24052   1.273  10.870  15.942 -0.1546  0.3693 -0.2307
 6529W        W24053   1.515  13.119  11.229 -0.0329  0.0429  0.0547
 6530W        W24054  15.864   8.594  13.434 -0.2451 -0.3045  0.2609
 6531W        W24055  16.034   6.069  11.789  0.0839 -0.0701 -0.3403
 6532W        W24056  10.694   2.725  13.054 -0.1910 -0.0773 -0.1048
 6533W        W24057   3.911   4.329   2.514  0.1091  0.0091 -0.1972
 6534W        W24058   0.260   9.988   3.022 -0.2423  0.2157 -0.3008
 6535W        W24059  10.280  14.760   0.769  0.0913  0.4005  0.0497
 6536W        W24060  18.166   9.161   2.507 -0.0629 -0.0110 -0.0884
 6537W        W24061   3.926  16.342  14.192 -0.0987  0.4638  0.0967
 6538W        W24062   4.347  10.043   2.980  0.0540 -0.1531  0.0707
 6539W        W24063   9.427   1.436  12.303 -0.3039 -0.1410  0.0489
 6540W        W24064   7.018  12.113  12.139 -0.1247  0.0441 -0.1813
 6541W        W24065   0.996  14.467   2.313 -0.2243 -0.1359 -0.2420
 6542W        W24066   0.573   0.544  13.831 -0.4897 -0.2585 -0.1423
 6543W        W24067  13.687  13.787   1.677  0.1269  0.1656 -0.0432
 6544W        W24068   1.184  17.191  12.271 -0.1088  0.0455  0.2558
 6545W        W24069  18.180  10.447  16.011  0.0216  0.0365  0.0218
 6546W        W24070   3.777  16.613   4.281  0.1120 -0.2111 -0.0691
 6547W        W24071   2.992   3.644  14.104  0.1245 -0.0508  0.2530
 6548W        W24072   6.364  14.994   4.353 -0.3496 -0.1106  0.0340
 6549W        W24073  14.376   0.371   3.796  0.0763  0.1413  0.2218
 6550W        W24074   8.823  11.030   1.096  0.1527  0.1898  0.1747
 6551W        W24075   4.569   5.385  12.221 -0.2450 -0.0086  0.1702
 6552W        W24076   9.691   3.342  10.855  0.4347  0.0045  0.1874
 6553W        W24077   7.505   8.089   4.308  0.2087  0.0065 -0.1944
 6554W        W24078   1.829  14.736   4.781  0.1641  0.0922 -0.1574
 6555W        W24079  12.254   6.971   1.694  0.0195 -0.1715  0.0828
 6556W        W24080   9.864  17.422  15.471 -0.2465 -0.0605  0.0435
 6557W        W24081   1.327   6.693   1.940  0.1999  0.1667 -0.0681
 6558W        W24082   9.174  14.609   5.496 -0.1403 -0.1900 -0.2140
 6559W        W24083   9.129  10.590  12.279 -0.1867 -0.1256 -0.0231
 6560W        W24084   2.823   4.670   4.589  0.1193 -0.0486  0.0442
 6561W        W24085   6.005   9.096   1.834  0.1999 -0.2874 -0.1228
 6562W        W24086   4.351  16.023   2.059 -0.0196  0.0911  0.0808
 6563W        W24087  17.110   9.456  12.412 -0.1444  0.1563 -0.3518
 6564W        W24088  12.218  13.751  15.234 -0.0680 -0.1780 -0.2239
 6565W        W24089   6.333   3.003   3.116  0.0167  0.0058 -0.0342
 6566W        W24090  17.546  11.013   0.999 -0.0683  0.3642 -0.0439
 6567W        W24091   6.135  13.450   2.867 -0.2341  0.0089  0.0397
 6568W        W24092   9.774  12.743   3.149 -0.1513  0.3038 -0.2688
 6569W        W24093   6.637  16.311   0.561  0.3015 -0.3686  0.3768
 6570W        W24094  14.730  14.863   6.033  0.1852  0.0490 -0.0887
 6571W        W24095  13.454  12.656   1.193  0.2054 -0.2240  0.0874
 6572W        W24096   3.125   3.974  14.658  0.4070  0.1374 -0.1292
 6573W        W24097   7.965   0.216  10.961  0.1385 -0.0730  0.0889
 6574W        W24098   5.664  11.904  12.100  0.1473  0.2440 -0.0274
 6575W        W24099   2.690   3.743  15.468  0.1604  0.0534  0.1872
 6576W        W24100   6.792  16.785   0.605 -0.4788 -0.0958  0.0473
 6577W        W24101   0.652  13.536  15.339  0.0035 -0.0998  0.0408
 6578W        W24102   4.710   5.521   0.464  0.2551  0.0077  0.0872
 6579W        W24103   8.474   0.138   3.572  0.1576 -0.1594  0.2277
 6580W        W24104   3.556   7.065  14.113  0.1181 -0.1054  0.4195
 6581W        W24105   0.140  15.320   0.250  0.1838 -0.1844  0.0070
 6582W        W24106   6.758   6.257   1.202  0.2409 -0.1358  0.4734
 6583W        W24107   0.854   9.607  10.590 -0.1408 -0.1633 -0.1156
 6584W        W24108  15.533  16.165   3.864  0.4040  0.1656 -0.3606
 6585W        W24109  12.693  11.413  13.354  0.1936 -0.0749  0.0872
 6586W        W24110   5.559  14.255  10.581  0.1600 -0.6034 -0.4796
 6587W        W24111  13.071   7.754   4.630  0.1015  0.1049 -0.3145
 6588W        W24112   6.342   6.881  14.053 -0.0546 -0.0314  0.4762
 6589W        W24113  11.749  14.788   5.092 -0.1065  0.0941 -0.0430
 6590W        W24114  15.263   4.534  15.117 -0.3461  0.0170 -0.2244
 6591W        W24115   6.360  13.241  11.409  0.0212 -0.3969  0.2006
 6592W        W24116   2.186   0.671   4.050  0.0201  0.1184  0.3954
 6593W        W24117   7.571  12.182  15.685 -0.0899  0.0540  0.2479
 6594W        W24118  12.416   3.425  15.872 -0.2720  0.0531 -0.3154
 6595W        W24119  11.839  13.616  15.977 -0.0365  0.1261  0.0501
 6596W        W24120  12.917   1.562   1.665 -0.4260 -0.3086  0.0937
 6597W        W24121   3.977   4.796  12.814 -0.1601  0.0392  0.1422
 6598W        W24122   9.459   4.387   0.971 -0.1625 -0.2018 -0.2458
 6599W        W24123   0.563   0.127   1.216 -0.4244 -0.0693 -0.2277
 6600W        W24124   0.897  17.593   0.495  0.2363 -0.0793  0.0314
 6601W        W24125  10.634   6.729   2.151  0.1618 -0.0066 -0.0428
 6602W        W24126  13.281  13.013   3.436 -0.1708  0.2049 -0.1855
 6603W        W24127   5.829  14.315   4.003 -0.3194 -0.1829 -0.0776
 6604W        W24128   0.298   0.004   0.781 -0.0042  0.0405  0.2333
 6605W        W24129   1.824   3.961  13.178 -0.0810 -0.1030 -0.2651
 6606W        W24130   5.493   1.735   2.661  0.1985  0.1165  0.2180
 6607W        W24131   8.122   4.938  13.886 -0.2113  0.0674 -0.2945
 6608W        W24132  13.247   3.460   2.318  0.0947 -0.2008  0.0484
 6609W        W24133  17.768   7.362  11.760 -0.0208  0.1906 -0.1845
 6610W        W24134   1.884   2.439  16.033 -0.0297 -0.0238  0.0512
 6611W        W24135  12.682   2.640  15.197 -0.1973  0.0438  0.3037
 6612W        W24136  12.007   0.708  13.312  0.2393  0.0222 -0.1008
 6613W        W24137  15.661   4.668   4.280 -0.1074 -0.0195  0.1085
 6614W        W24138  17.635  13.025   0.498 -0.0186 -0.3430 -0.1079
 6615W        W24139   6.025  17.516   0.613 -0.1735 -0.2422  0.0033
 6616W        W24140   0.998   5.849  15.400 -0.1013  0.0414  0.0099
 6617W        W24141  11.060  10.939  15.361  0.2779  0.3126  0.1881
 6618W        W24142   2.139   6.671   1.551 -0.2204  0.2548 -0.2277
 6619W        W24143   1.272  15.447   1.406 -0.1150  0.0069  0.1939
 6620W        W24144  12.531  14.615  14.878  0.0089 -0.0713  0.2420
 6621W        W24145   6.813   1.708   1.468  0.1204 -0.1397  0.5162
 6622W        W24146  12.066  15.976   5.328 -0.1820  0.2602  0.1127
 6623W        W24147   1.533  10.201   2.420 -0.0391  0.0185  0.1180
 6624W        W24148   7.536   5.688  10.831 -0.1123 -0.0059  0.0751
 6625W        W24149   8.653   5.828  13.152 -0.4364  0.2414 -0.3935
 6626W        W24150   0.450   7.014   0.979 -0.0420  0.0171  0.1600
 6627W        W24151  16.002  17.119   3.628  0.0619  0.1579 -0.2331
 6628W        W24152   5.355  11.263   2.920 -0.4023  0.0063  0.1970
 6629W        W24153  13.950   5.583  14.245  0.0577  0.0847  0.0254
 6630W        W24154  13.583  11.796  12.079  0.0823  0.0214 -0.1853
 6631W        W24155  15.153  17.071   0.442 -0.1980 -0.1178  0.0845
 6632W        W24156  12.220   7.865   1.662  0.3351 -0.1149  0.0002
 6633W        W24157   6.930   6.198  11.701  0.2759 -0.0115 -0.0997
 6634W        W24158  15.929  11.868   0.851 -0.4010  0.1411 -0.1087
 6635W        W24159  11.645  18.002   1.850  0.2725 -0.0435 -0.0282
 6636W        W24160  12.428  12.665   3.188  0.0210 -0.1090  0.3666
 6637W        W24161   6.852  16.688  15.685 -0.0073 -0.3619  0.0527
 6638W        W24162   2.565  10.186  15.662  0.1846 -0.1574  0.1301
 6639W        W24163  13.958  17.527   1.318 -0.1141  0.1113 -0.0391
 6640W        W24164   3.477  12.008   2.880  0.1162  0.2591  0.2054
 6641W        W24165  17.528   8.428   0.577 -0.1443  0.3912  0.2480
 6642W        W24166  16.279   8.830   4.513  0.0470 -0.0057 -0.3938
 6643W        W24167   5.691  11.489   1.606 -0.2760  0.1983 -0.5618
 6644W        W24168  15.077   9.089   1.528 -0.1413 -0.0336  0.0197
 6645W        W24169   8.071   1.781   2.956 -0.4360 -0.0990  0.2952
 6646W        W24170  15.307   7.642  15.662  0.3870 -0.1384  0.0738
 6647W        W24171  17.886  11.294   2.338 -0.0170  0.1725 -0.1132
 6648W        W24172  14.336  10.713   0.299  0.0153  0.0705 -0.0661
 6649W        W24173  17.673   7.365   1.489 -0.3299  0.0414  0.2191
 6650W        W24174  16.287  16.771  13.805 -0.2291  0.1736  0.2578
 6651W        W24175  16.328   0.924  13.858 -0.2101 -0.1555  0.1218
 6652W        W24176   0.059  17.118  12.583  0.2191 -0.1810  0.0316
 6653W        W24177   6.715  11.218   2.965 -0.2293  0.1179 -0.2558
 6654W        W24178   8.313   0.416   4.187  0.0418 -0.2221 -0.0906
 6655W        W24179  13.118   0.266  12.171  0.1410 -0.3782 -0.4652
 6656W        W24180  14.002  17.766  12.621  0.3049  0.1366  0.2116
 6657W        W24181  16.898   1.291   5.641 -0.3304  0.2544 -0.2712
 6658W        W24182  16.528   8.050   4.579  0.0134 -0.1329  0.2497
 6659W        W24183   5.780  12.127   1.074  0.2412 -0.0124  0.2670
 6660W        W24184  13.000   3.926  13.214 -0.1593 -0.5639 -0.2361
 6661W        W24185  12.548  17.472   5.083 -0.1215 -0.1269  0.0754
 6662W        W24186  14.333  15.186  10.067 -0.0036  0.3606  0.1689
 6663W        W24187   6.962  10.343  14.041 -0.1146  0.2511 -0.1428
 6664W        W24188   8.110  14.742   0.711  0.0459 -0.2472  0.2251
 6665W        W24189  16.499  16.711  15.901 -0.1924  0.0825 -0.0177
 6666W        W24190   7.970  15.929   1.601  0.1295  0.0437  0.0663
 6667W        W24191  10.918  15.289   0.624  0.0264 -0.2995  0.2417
 6668W        W24192   5.898   2.988  11.001 -0.0928  0.4261  0.0109
 6669W        W24193   8.429  15.518   1.324 -0.2377  0.0404  0.0663
 6670W        W24194   5.705  14.787  13.921  0.1727  0.0474 -0.1390
 6671W        W24195  15.675  12.874   3.905 -0.3063 -0.0610 -0.1507
 6672W        W24196  12.726   8.972   4.038 -0.0683  0.1353 -0.0509
 6673W        W24197   1.827  14.505   3.389 -0.0531  0.0969  0.1552
 6674W        W24198   8.209  10.455   3.462  0.0117 -0.0937 -0.2751
 6675W        W24199  16.266   8.377  13.624 -0.0721  0.4267  0.0148
 6676W        W24200   3.291   6.147  10.962  0.0497  0.0318 -0.0268
 6677W        W24201   9.927   3.235   0.676 -0.3317  0.2203 -0.1274
 6678W        W24202   2.427   0.626   3.075  0.0692  0.1338  0.1351
 6679W        W24203   3.167   9.333   5.795  0.1209  0.0229 -0.3285
 6680W        W24204   2.119  11.748   2.276 -0.0536  0.0129 -0.1579
 6681W        W24205  15.527   5.841  12.969 -0.0220  0.3012  0.0533
 6682W        W24206   2.726   7.104  11.095  0.2961  0.0917 -0.0855
 6683W        W24207  16.311  16.575   3.637 -0.0773 -0.1820 -0.0951
 6684W        W24208  12.096   5.016   5.271 -0.0631  0.0324 -0.1571
 6685W        W24209  16.840   7.433  11.955 -0.1065 -0.0225 -0.2063
 6686W        W24210   2.714   1.011  14.220  0.0927  0.0838 -0.3580
 6687W        W24211   1.814  16.292   2.390  0.0973 -0.0092  0.1412
 6688W        W24212   3.831  12.117   1.274  0.1242 -0.1203  0.0112
 6689W        W24213  16.329   8.145  11.329 -0.2022  0.2088  0.1914
 6690W        W24214  15.835   5.473   4.789  0.0633  0.2125 -0.2080
 6691W        W24215  14.085   1.332  13.124  0.0429 -0.3230 -0.0366
 6692W        W24216   6.848  17.732  12.928  0.2035 -0.2797  0.2698
 6693W        W24217   2.479   3.049  13.234  0.1016 -0.0800 -0.4913
 6694W        W24218   4.611   8.966   2.122  0.1562  0.0458  0.0095
 6695W        W24219  11.076  11.346  15.149 -0.2080 -0.2214 -0.0532
 6696W        W24220  14.588   5.101   2.459  0.2446 -0.0837 -0.1469
 6697W        W24221  13.214   0.956  13.464 -0.3312  0.0042 -0.0898
 6698W        W24222   0.118   1.595   0.068  0.2102 -0.0027  0.1007
 6699W        W24223   5.252   7.073  13.796  0.1209 -0.1068 -0.0858
 6700W        W24224   5.808  11.946  15.788  0.0555  0.0501 -0.1054
 6701W        W24225   3.988   3.835  12.716 -0.1273  0.3380  0.1312
 6702W        W24226  14.538   5.270   5.094 -0.1788  0.1478  0.0289
 6703W        W24227   9.349  16.378  15.663  0.0935  0.1275  0.1725
 6704W        W24228  10.289   5.040   1.235  0.1121 -0.3040  0.1060
 6705W        W24229  15.590   4.816  12.114 -0.1427  0.2459 -0.2194
 6706W        W24230  11.169   7.006   4.939 -0.0317 -0.1050 -0.0153
 6707W        W24231   4.446   7.555  15.703 -0.3858 -0.2355  0.0198
 6708W        W24232  14.015  14.202  15.879  0.0743 -0.2036 -0.2478
 6709W        W24233   0.513  17.625  14.206 -0.2325  0.0115 -0.3539
 6710W        W24234   2.524   7.821  15.359 -0.0342 -0.2382  0.1247
 6711W        W24235   6.273  14.728   2.720 -0.1818  0.1828 -0.2259
 6712W        W24236  13.942   3.686  15.294  0.2398  0.1156  0.0314
 6713W        W24237   7.509  13.346   4.344  0.1862 -0.0160 -0.1832
 6714W        W24238  15.284   1.339  14.704 -0.2488  0.1245  0.0410
 6715W        W24239  10.993  15.450   4.741 -0.1345 -0.0662 -0.1319
 6716W        W24240  11.898   5.518   3.993  0.0291  0.1438 -0.4208
 6717W        W24241  11.902  13.534  12.367 -0.1872  0.1317 -0.0597
 6718W        W24242  14.008  12.797   0.081  0.2427 -0.1117 -0.0514
 6719W        W24243  10.459   0.087  12.019  0.3071  0.2974  0.0710
 6720W        W24244  11.574  12.293  10.390  0.0995  0.1878  0.1190
 6721W        W24245   6.963   9.764   3.261 -0.2695  0.3104 -0.3482
 6722W        W24246   8.145  15.039   4.283 -0.3854 -0.1016  0.0630
 6723W        W24247   7.639   2.969   1.284 -0.3539  0.2189 -0.2874
 6724W        W24248  15.258   4.212   0.815 -0.0690  0.1581  0.0784
 6725W        W24249  15.322  17.151   1.286  0.0602 -0.1161 -0.0162
 6726W        W24250  11.543   8.097   0.505  0.2774 -0.0636  0.0644
 6727W        W24251  10.471  11.808   0.998  0.0169  0.0847 -0.1625
 6728W        W24252   9.421  11.590   0.753 -0.0960 -0.0180 -0.0607
 6729W        W24253   6.785   1.382   2.818  0.1456 -0.1139 -0.0950
 6730W        W24254  17.077  14.114  13.778 -0.0449  0.0443  0.0392
 6731W        W24255   9.553  14.524  14.315 -0.4373  0.1094 -0.0113
 6732W        W24256  13.575  12.415  15.022 -0.1405  0.1223 -0.1742
 6733W        W24257   6.077  11.734   2.499  0.4013 -0.0849 -0.2116
 6734W        W24258   7.810  18.089  11.317  0.0590  0.2569 -0.0165
 6735W        W24259   3.598  16.769   4.696  0.1811  0.0943 -0.3218
 6736W        W24260  16.325   8.363  12.743 -0.0256 -0.0647 -0.1941
 6737W        W24261   1.412  16.654  14.903 -0.0202 -0.0741  0.3824
 6738W        W24262  16.043   8.465   5.624  0.2760  0.2408 -0.1504
 6739W        W24263  17.793  14.028   3.942  0.0871  0.2933  0.0339
 6740W        W24264   2.401   1.692  13.648 -0.0364 -0.0405 -0.1650
 6741W        W24265  13.724  13.251   5.022 -0.1554 -0.2218 -0.0793
 6742W        W24266  17.191  13.185  11.937  0.1132  0.2853  0.2237
 6743W        W24267   0.037  10.071  12.909 -0.1731  0.1196 -0.1947
 6744W        W24268   1.545   8.066   5.306  0.0783 -0.1134  0.6781
 6745W        W24269   5.577   2.626   0.463  0.0466 -0.0016 -0.2029
 6746W        W24270   6.582  16.168  11.648  0.0152 -0.0163 -0.2328
 6747W        W24271  14.289   9.438   0.128  0.1234  0.1567  0.0369
 6748W        W24272   1.428   5.743  15.161 -0.1272 -0.1908  0.3229
 6749W        W24273  10.465   5.320   3.614  0.1742  0.1710  0.0283
 6750W        W24274   5.971  17.673  12.777  0.0647 -0.2328  0.1259
 6751W        W24275   1.721   4.271  12.785 -0.0894 -0.3258  0.3018
 6752W        W24276  11.128  12.874   2.948 -0.0646 -0.3818 -0.1309
 6753W        W24277   2.777   9.521  12.629 -0.0689  0.1256 -0.3505
 6754W        W24278   7.387  10.551  15.390  0.0843 -0.2203 -0.0401
 6755W        W24279   5.325   2.649  12.650  0.2814 -0.0115 -0.0392
 6756W        W24280   6.242  16.528  12.853 -0.3493 -0.1798 -0.0588
 6757W        W24281  11.725  14.054  13.444  0.1110  0.0114  0.1138
 6758W        W24282   4.388  12.140   3.723  0.2074  0.1599  0.0884
 6759W        W24283   7.794  16.345  11.715 -0.1116 -0.0036 -0.0761
 6760W        W24284   7.493  14.963  11.912  0.0603  0.1218 -0.2503
 6761W        W24285   1.609   1.195   3.294 -0.1227  0.1591 -0.2035
 6762W        W24286   8.709   1.402   1.651 -0.2565  0.2033  0.2741
 6763W        W24287   2.247  13.301   5.399 -0.1267 -0.2141  0.1188
 6764W        W24288   1.833   3.206   2.857 -0.0836  0.2107 -0.2270
 6765W        W24289  17.870   5.556   2.427 -0.3928  0.3265 -0.2385
 6766W        W24290  14.126   5.361   0.110 -0.0661  0.0135 -0.1592
 6767W        W24291   3.518   8.871  14.561 -0.2693  0.1622  0.1899
 6768W        W24292  10.275  13.346   4.830  0.1598  0.0414  0.0785
 6769W        W24293   9.724   8.304  12.397  0.3110 -0.1522 -0.1097
 6770W        W24294   1.537  13.866   2.394 -0.1571 -0.0846 -0.1687
 6771W        W24295  12.942   4.532  14.824 -0.0122 -0.1835 -0.1929
 6772W        W24296  10.730   2.940   1.254 -0.1833 -0.1116 -0.0599
 6773W        W24297   6.624  14.370   2.839  0.0790 -0.0209 -0.1078
 6774W        W24298   3.890  10.068  13.697 -0.0126  0.2038  0.1360
 6775W        W24299  18.027   1.218   3.395  0.1512 -0.0321  0.1217
 6776W        W24300  12.713   5.538   2.325  0.0486 -0.2046 -0.1251
 6777W        W24301   6.804  10.286  13.593 -0.0655 -0.1545 -0.1233
 6778W        W24302   4.799  15.126   2.466  0.1033 -0.2937 -0.1343
 6779W        W24303  10.866  16.548  15.879 -0.2170  0.0080  0.1116
 6780W        W24304  13.093  13.706   1.136  0.3947  0.0349  0.0657
 6781W        W24305   6.121   9.607   4.740 -0.2726 -0.3126 -0.1366
 6782W        W24306   7.658  13.016  15.085  0.2017 -0.1227  0.2737
 6783W        W24307  13.877  16.331  14.531  0.0471 -0.0046 -0.1318
 6784W        W24308  17.036  13.296  15.501  0.4085 -0.4586 -0.0788
 6785W        W24309   7.709   5.654   3.019 -0.1360  0.1859 -0.4631
 6786W        W24310   8.673   1.849   4.130  0.3292 -0.3408  0.2165
 6787W        W24311  14.473  13.752   2.210  0.3159  0.0361 -0.0902
 6788W        W24312  13.393  15.041  16.094 -0.1506 -0.1461 -0.0455
 6789W        W24313   5.026  14.779  16.047  0.0515 -0.0635  0.2401
 6790W        W24314   4.742  12.655  13.070  0.3361 -0.0426 -0.1340
 6791W        W24315   7.351  10.052   4.526  0.3455 -0.2266  0.1146
 6792W        W24316  13.404   5.479   3.251 -0.2512  0.1727  0.1713
 6793W        W24317  17.262  15.487  12.514  0.3407 -0.2217 -0.1059
 6794W        W24318  11.461   2.742   3.545  0.1245 -0.3168  0.0459
 6795W        W24319  17.098  13.925   3.348 -0.2252 -0.0425  0.2625
 6796W        W24320  12.987  16.572  14.078  0.3695 -0.0421  0.1001
 6797W        W24321   4.693   7.158  15.516  0.0970 -0.1624  0.3163
 6798W        W24322  13.286   0.679  11.857  0.0074 -0.0397  0.1634
 6799W        W24323  11.373   7.684  13.158  0.0538 -0.0060  0.2442
 6800W        W24324   5.161   9.752  12.942 -0.0675 -0.1581  0.0980
 6801W        W24325   3.011   3.101  12.508  0.0221  0.2653  0.2097
 6802W        W24326   3.483   7.191   1.204 -0.0626 -0.2660  0.5586
 6803W        W24327  10.702   0.114   2.046  0.1110  0.0708  0.1690
 6804W        W24328   4.888  13.282   3.914  0.0728  0.0098  0.2471
 6805W        W24329   8.525  15.611   2.156  0.0973 -0.0987  0.2106
 6806W        W24330  10.522  10.540   1.672 -0.0932  0.4224  0.0482
 6807W        W24331   9.351  10.915   1.205 -0.3438 -0.1609 -0.0460
 6808W        W24332  17.521   2.693   2.060 -0.3029 -0.1086 -0.3653
 6809W        W24333   3.407   5.315   1.850  0.0324  0.0934  0.3790
 6810W        W24334  10.331   2.215   2.448  0.1853 -0.1090 -0.2093
 6811W        W24335  15.793   6.789  12.414  0.2791 -0.3016  0.1360
 6812W        W24336  17.569  16.783  13.778  0.1996 -0.0379 -0.1683
 6813W        W24337  10.831   5.766   1.262 -0.0560 -0.0238 -0.2850
 6814W        W24338  16.926   8.406  11.549  0.0543  0.0383 -0.3336
 6815W        W24339   1.213   8.617   2.581  0.0553  0.1744 -0.0119
 6816W        W24340  11.062   1.919  14.372 -0.1852 -0.1881  0.3127
 6817W        W24341  10.019   2.688  11.969  0.0377 -0.1263 -0.0524
 6818W        W24342  11.383  16.046   0.387  0.0548  0.1330  0.0792
 6819W        W24343   2.200   4.192  15.907  0.2786 -0.1853  0.0840
 6820W        W24344  12.298  16.425  15.085  0.2245 -0.1037  0.0942
 6821W        W24345   6.967  14.563   3.157 -0.1952  0.2120 -0.3176
 6822W        W24346   8.247   6.498  14.973  0.2397 -0.0792  0.1276
 6823W        W24347  14.674  10.753  15.606 -0.3286 -0.1615  0.1544
 6824W        W24348   5.562  14.846   3.728 -0.1546 -0.1795 -0.1953
 6825W        W24349  17.660   6.067  15.543 -0.2226 -0.0975 -0.2789
 6826W        W24350   1.482   4.609   4.619 -0.3386 -0.2927 -0.2779
 6827W        W24351   8.001  11.054  15.816  0.0991 -0.3627 -0.2189
 6828W        W24352  13.707  15.784   3.342 -0.2957 -0.1832  0.0586
 6829W        W24353  11.270   4.564  11.499 -0.0224  0.2355  0.2114
 6830W        W24354   3.478   3.936   3.465 -0.3554 -0.1960 -0.0520
 6831W        W24355   2.634  14.370   3.527 -0.0700  0.0198  0.2480
 6832W        W24356   5.390   5.337  13.939 -0.2033  0.1294  0.0445
 6833W        W24357  16.874  15.812  12.448  0.3987 -0.0328 -0.0549
 6834W        W24358  12.857   0.221   0.243  0.0118  0.0388  0.2518
 6835W        W24359  14.609   8.714  13.708  0.0692  0.0229  0.1341
 6836W        W24360  15.680  12.266  15.808  0.2143  0.2198  0.1805
 6837W        W24361   2.173   5.011   1.199  0.1848  0.1043 -0.2000
 6838W        W24362  17.048   6.082  11.763 -0.0130  0.1215  0.0056
 6839W        W24363   2.513   1.665  15.208  0.5043 -0.1531 -0.0297
 6840W        W24364  17.582   9.345  10.263 -0.1721  0.1635 -0.0823
 6841W        W24365   3.252   4.780   2.883 -0.2691  0.1101 -0.1567
 6842W        W24366  14.791   9.531  12.667  0.1596 -0.0342  0.2265
 6843W        W24367   0.674  14.794   4.460  0.0823  0.1295 -0.0278
 6844W        W24368   7.207   1.613  15.993  0.4529  0.2051  0.0731
 6845W        W24369   2.493   1.178  14.993 -0.1693 -0.1674 -0.0420
 6846W        W24370  17.815   7.608  13.270  0.1871 -0.0564  0.2330
 6847W        W24371  14.588   6.143   3.254  0.3059  0.2062 -0.1913
 6848W        W24372  15.005   5.350  15.567  0.2178  0.1244 -0.1153
 6849W        W24373   2.935   7.755  12.054 -0.1204  0.1578  0.0063
 6850W        W24374   3.108   9.214  12.338 -0.0413 -0.3119  0.1484
 6851W        W24375  17.105   0.312  14.351  0.0098  0.0648 -0.2304
 6852W        W24376  14.455   3.587  11.345  0.1066  0.0127  0.0820
 6853W        W24377   5.860   8.557  11.428 -0.0848  0.1802  0.2205
 6854W        W24378  16.616   9.700  15.949 -0.3238  0.0378 -0.1560
 6855W        W24379  14.404  13.258  14.908  0.0843  0.0022 -0.1003
 6856W        W24380  11.607   6.772  14.242  0.0189 -0.3437  0.0666
 6857W        W24381   9.213  12.620  11.805  0.2457  0.1055 -0.0922
 6858W        W24382   2.639  17.384   0.625 -0.2121  0.1471 -0.2550
 6859W        W24383   0.596   6.475  14.161  0.0312  0.0289  0.2521
 6860W        W24384   8.281   3.525  16.006  0.1940  0.2193 -0.0926
 6861W        W24385  13.212   4.630  14.201 -0.0833 -0.0660  0.0521
 6862W        W24386   4.970   3.794  11.701 -0.1704  0.0289  0.0263
 6863W        W24387   1.912  13.389   5.042  0.0341 -0.0023  0.0977
 6864W        W24388   2.654   3.359  10.648  0.1569  0.0755 -0.2007
 6865W        W24389   4.397  12.108  13.216  0.1672 -0.2226 -0.1040
 6866W        W24390  10.494   3.271  15.994 -0.2638  0.2374  0.0552
 6867W        W24391   0.436  11.518  11.899 -0.0705 -0.1464  0.3877
 6868W        W24392  10.922   1.478   1.289 -0.1571  0.0372 -0.2667
 6869W        W24393   7.235   8.695   0.949  0.1572  0.0775 -0.0650
 6870W        W24394  14.795   6.745  13.537 -0.1358  0.3517  0.2660
 6871W        W24395   2.709   8.224   2.749  0.3563  0.1923 -0.1344
 6872W        W24396  16.207  17.737  14.688  0.3083  0.2524 -0.1700
 6873W        W24397  13.183   3.588   3.413 -0.0525 -0.2641  0.2399
 6874W        W24398  15.236   6.423  11.352 -0.1742  0.0386  0.1768
 6875W        W24399  16.834   6.664   3.936 -0.0616  0.0767 -0.1444
 6876W        W24400   0.339  12.670  14.158  0.0970 -0.0952 -0.1843
 6877W        W24401  11.532   8.768  14.598 -0.0239  0.0245  0.2062
 6878W        W24402   5.384   8.644   3.932 -0.0147  0.4202  0.1304
 6879W        W24403   2.691   3.324   3.777 -0.0853 -0.1275  0.1865
 6880W        W24404  17.810  16.803  11.309 -0.2289 -0.1502  0.0967
 6881W        W24405   9.267   1.380   1.145 -0.0800 -0.0768 -0.0560
 6882W        W24406   4.449   5.909  15.728 -0.0395  0.0241  0.0395
 6883W        W24407   9.637   4.462   2.422  0.1923 -0.1642  0.4069
 6884W        W24408  16.161   5.992  15.628  0.1208 -0.1408  0.1879
 6885W        W24409   1.092   9.517  13.091 -0.2605 -0.0042 -0.1345
 6886W        W24410   2.322   5.440   2.708 -0.1858  0.2998  0.0501
 6887W        W24411   1.307   6.585  15.177  0.1635 -0.3893 -0.2837
 6888W        W24412   8.528  11.316  12.565 -0.1163 -0.0730 -0.2576
 6889W        W24413   3.376  16.895  14.797 -0.0283 -0.0980  0.0187
 6890W        W24414  14.425   5.693  12.596 -0.1698 -0.2405  0.5582
 6891W        W24415  12.507   6.997  13.198  0.2099 -0.1392 -0.0448
 6892W        W24416   6.578  15.028  11.317 -0.1317 -0.0365 -0.2035
 6893W        W24417  10.423   0.429   1.713  0.1402 -0.0703 -0.1820
 6894W        W24418  10.242  14.178  13.171 -0.2631 -0.1112  0.1329
 6895W        W24419   0.238   1.657  15.276  0.1954 -0.1182 -0.2558
 6896W        W24420  12.522   8.451   3.183 -0.0472 -0.0006 -0.3252
 6897W        W24421   7.856  16.043  13.878  0.0594 -0.0199 -0.1112
 6898W        W24422   4.628  17.227  14.259 -0.1299  0.1815 -0.0071
 6899W        W24423  11.408   6.835   0.314 -0.0719  0.1455  0.0842
 6900W        W24424   3.688  10.578  13.607  0.0739  0.0885 -0.1705
 6901W        W24425   1.325  17.436  15.568 -0.0546 -0.0930  0.2269
 6902W        W24426   6.632  14.316  13.150 -0.0302  0.2461  0.0000
 6903W        W24427   1.362   2.984   4.501 -0.0230  0.0367  0.2696
 6904W        W24428   5.980  11.399   3.790 -0.2668  0.1372 -0.1723
 6905W        W24429   8.772  14.102   3.894 -0.0393 -0.4215 -0.1745
 6906W        W24430   8.608   6.124   1.698  0.0695  0.1820 -0.0296
 6907W        W24431  17.023   3.933   3.820 -0.0499 -0.1510 -0.0039
 6908W        W24432  14.647  10.505  12.951  0.0604  0.0444  0.1569
 6909W        W24433   9.152  10.953   4.755 -0.1598  0.0314 -0.1704
 6910W        W24434  11.762   9.189   0.834 -0.0400  0.0196 -0.0205
 6911W        W24435  15.022   7.982  14.779  0.1653 -0.0382 -0.0588
 6912W        W24436  11.811   3.560  16.039  0.1203 -0.3622 -0.3722
 6913W        W24437  16.483   2.792  13.431  0.2398 -0.1370 -0.1265
 6914W        W24438   9.945   7.548   1.550 -0.2417  0.1397  0.3104
 6915W        W24439   8.080  10.666  14.970  0.1708 -0.3022 -0.1607
 6916W        W24440  15.679   3.052   1.026  0.1630 -0.1407 -0.0137
 6917W        W24441   9.853   4.115   4.617  0.1221  0.1325 -0.2209
 6918W        W24442   9.358  13.774   1.367 -0.1854  0.0433 -0.0584
 6919W        W24443   8.671  17.761  12.227 -0.3653  0.3421  0.1052
 6920W        W24444  15.414   4.197   4.352  0.0019 -0.0325 -0.0163
 6921W        W24445   5.411   6.964  11.117 -0.1895  0.2122  0.1897
 6922W        W24446   6.799  17.806  12.171  0.0847 -0.1935 -0.2393
 6923W        W24447  13.402   4.708  15.126 -0.1166  0.0043  0.1324
 6924W        W24448  16.548   6.684   3.481 -0.4436 -0.3588  0.0016
 6925W        W24449  15.518   2.864   6.210  0.3246 -0.2361 -0.3170
 6926W        W24450  13.004  13.805   2.951  0.0864  0.1880 -0.1381
 6927W        W24451  14.097  15.628   6.146  0.0132 -0.2718  0.0637
 6928W        W24452   9.474   9.137   1.174  0.0385  0.2125  0.1685
 6929W        W24453  16.811  17.309   1.000  0.0402  0.1412 -0.0135
 6930W        W24454   3.295  11.788  15.670  0.0095  0.0092  0.1846
 6931W        W24455   2.584   3.770   4.054  0.3128 -0.1015  0.0578
 6932W        W24456   9.267  11.134   0.803 -0.2100 -0.0579  0.0413
 6933W        W24457   5.048  10.359  12.914  0.1827  0.0225  0.2015
 6934W        W24458  15.218   4.023  14.954  0.2722  0.0255 -0.2450
 6935W        W24459  15.495   4.332  13.120 -0.0465  0.0878  0.1863
 6936W        W24460  16.221  18.154  14.362 -0.3013 -0.1501 -0.0608
 6937W        W24461   3.831   0.360   3.371 -0.5158  0.2651  0.0317
 6938W        W24462  10.692   6.675   3.595  0.2327 -0.0605 -0.3413
 6939W        W24463   0.169   1.228   0.872  0.0516 -0.1466  0.1363
 6940W        W24464   2.688  17.981  15.705  0.0154  0.1263  0.1594
 6941W        W24465   5.582  13.061  16.050  0.0131  0.0036  0.0766
 6942W        W24466  13.648  17.099  13.369  0.2826 -0.1197  0.3934
 6943W        W24467  16.892  11.145  16.068 -0.2188 -0.0065 -0.3412
 6944W        W24468   4.688  17.039   2.816  0.3343 -0.2198  0.1503
 6945W        W24469   2.994   0.210   1.645  0.0054 -0.3587  0.0989
 6946W        W24470  15.484   7.110  15.694 -0.0562  0.1034  0.1522
 6947W        W24471   4.114   1.871  13.381 -0.0903 -0.3364 -0.0313
 6948W        W24472  11.048  13.999  15.851  0.0343  0.1880  0.2003
 6949W        W24473   1.400   7.616   3.336  0.3048  0.3225  0.1672
 6950W        W24474  16.091  14.271  14.601  0.1397 -0.0103  0.0455
 6951W        W24475   3.377   8.817   1.071 -0.1687  0.3619 -0.1187
 6952W        W24476   2.638  10.911   1.122 -0.3455 -0.3077  0.0638
 6953W        W24477   7.707  17.624  11.344 -0.0995 -0.1303 -0.1369
 6954W        W24478   0.969  12.379  11.647 -0.1362 -0.0889 -0.0283
 6955W        W24479   8.474  13.024  15.225  0.0420 -0.3164  0.4538
 6956W        W24480  12.392   3.862   3.576 -0.0026  0.0314  0.1039
 6957W        W24481   8.064   5.990  14.271 -0.4927  0.0663 -0.2015
 6958W        W24482  17.820   5.987   1.890 -0.1618  0.1329 -0.3162
 6959W        W24483   7.433   4.105   3.283 -0.0147 -0.0266  0.2113
 6960W        W24484   7.038  11.928  11.224  0.2811  0.1750 -0.2042
 6961W        W24485   3.047   0.955   2.429 -0.1548  0.0384 -0.3382
 6962W        W24486  10.445   4.701  14.305 -0.0712  0.1302 -0.2843
 6963W        W24487  10.689   8.775  12.685  0.0767 -0.0602  0.0188
 6964W        W24488   4.782   3.863   3.821 -0.3961  0.0667  0.0573
 6965W        W24489   7.753  10.277   4.940  0.5235 -0.1732  0.1723
 6966W        W24490  17.477   7.350  12.515  0.1563  0.0467  0.0633
 6967W        W24491   4.070  11.315   1.496  0.0431  0.3137  0.0491
 6968W        W24492  17.009  14.712   0.434  0.3267  0.2931 -0.1521
 6969W        W24493  13.334   6.448  12.912 -0.2442 -0.2652 -0.2566
 6970W        W24494  13.653   9.541   1.794 -0.1736 -0.0294 -0.0461
 6971W        W24495   1.712  15.590   1.668  0.1481  0.2685  0.1668
 6972W        W24496   9.768  13.556  14.552 -0.0447 -0.0695  0.1610
 6973W        W24497  13.352   1.799   2.907 -0.0029  0.3021  0.0791
 6974W        W24498   6.833   9.212   4.618  0.2423 -0.0491 -0.1725
 6975W        W24499   4.758  17.654  13.884 -0.1243  0.1199 -0.0140
 6976W        W24500   0.283   6.435   4.197 -0.1169  0.1731 -0.1921
 6977W        W24501  16.479  11.645  14.387  0.2386 -0.1448  0.1556
 6978W        W24502   0.611  13.224  13.947 -0.1268  0.1513  0.0622
 6979W        W24503  17.762   7.472   2.944  0.2040 -0.3483  0.0521
 6980W        W24504  14.430   4.671   4.684  0.0425  0.2153 -0.0186
 6981W        W24505   8.839   6.616   0.845 -0.0392  0.2061 -0.4421
 6982W        W24506  15.617   8.765  10.925 -0.1404 -0.0537  0.3542
 6983W        W24507   9.947  11.563  12.271 -0.1376  0.2489  0.3696
 6984W        W24508   4.276  17.408   3.198 -0.1976 -0.4769 -0.3307
 6985W        W24509   1.693  10.366  13.928  0.2368 -0.1180 -0.1118
 6986W        W24510  12.680  17.750  11.314  0.3353 -0.3554 -0.0091
 6987W        W24511  10.069  16.028   4.349  0.0432  0.2577  0.1396
 6988W        W24512  14.345   5.380   4.153  0.0937 -0.1355  0.1072
 6989W        W24513   7.814  14.015  13.896  0.1575 -0.0138 -0.3788
 6990W        W24514   1.867   3.318   1.944  0.0561  0.0839 -0.0421
 6991W        W24515   7.582   3.581  13.185 -0.0382  0.0616  0.0032
 6992W        W24516   2.287  10.638  12.680 -0.2594 -0.2217  0.0944
 6993W        W24517   0.418  14.850   3.020  0.2005  0.2796 -0.2742
 6994W        W24518  12.037   1.064  14.521  0.2326 -0.3199  0.0559
 6995W        W24519   8.279  12.108   2.512  0.1782  0.0344  0.0746
 6996W        W24520   4.990   2.975   4.487 -0.0994 -0.3610 -0.0234
 6997W        W24521   3.414  16.957   3.952 -0.1890 -0.2482 -0.0075
 6998W        W24522  17.028  10.839   4.929 -0.0399 -0.0628 -0.2667
 6999W        W24523   3.232   2.703   1.821 -0.0552  0.0140  0.0076
 7000W        W24524   6.888   6.962  14.050  0.1423 -0.1702  0.1563
 7001W        W24525   9.864  15.655   1.731  0.1335  0.2750  0.1262
 7002W        W24526   3.310  13.878  12.304  0.0097  0.0358 -0.2122
 7003W        W24527  13.964   2.358   4.415 -0.0720  0.0220 -0.3520
 7004W        W24528  11.956  13.832  13.019 -0.4181  0.0203 -0.1598
 7005W        W24529   7.244   4.728  13.732 -0.2158 -0.0656  0.0172
 7006W        W24530  16.055  10.043  11.359 -0.0382 -0.2603  0.2602
 7007W        W24531  17.063  15.217  11.068  0.1244 -0.0742 -0.1376
 7008W        W24532   1.770  13.809   0.650  0.3090 -0.1353 -0.3948
 7009W        W24533   3.145   7.883   1.345 -0.0411 -0.2716  0.1496
 7010W        W24534  11.931   9.638   4.680  0.0207 -0.3199  0.1053
 7011W        W24535  10.742   0.501  15.722  0.1537 -0.0876 -0.3625
 7012W        W24536   1.348   9.622  12.671 -0.0025  0.1507  0.0780
 7013W        W24537  11.233  15.786   4.286  0.2817 -0.0846 -0.1820
 7014W        W24538   2.979  16.528  14.598  0.0976 -0.4322 -0.0689
 7015W        W24539  15.656   3.976  14.715  0.1755  0.0018 -0.0070
 7016W        W24540  12.448  15.743   3.922 -0.2610 -0.0358 -0.0768
 7017W        W24541   2.472  14.046  10.572 -0.1436  0.2166  0.1628
 7018W        W24542   2.939   4.568   5.070  0.2401  0.4268  0.0051
 7019W        W24543   7.183   0.645   4.868 -0.0438  0.3873 -0.0650
 7020W        W24544  10.036   9.553   1.816 -0.1783 -0.1299 -0.0395
 7021W        W24545  15.354  11.674  15.741  0.0213 -0.1044  0.1257
 7022W        W24546  11.732   5.890  14.365  0.1821  0.1243  0.2877
 7023W        W24547   0.249   4.887   1.035  0.2588  0.0400  0.1363
 7024W        W24548   3.143  18.002  14.339  0.1685  0.0736  0.2345
 7025W        W24549   9.798  10.642   0.306 -0.0401  0.2838 -0.0334
 7026W        W24550  13.700   2.412   2.217 -0.1517  0.0743 -0.2345
 7027W        W24551  14.466   8.943   1.989 -0.0206  0.2229 -0.1131
 7028W        W24552   8.882   5.640   4.693 -0.1131  0.0157  0.2985
 7029W        W24553  11.354   6.030  12.086  0.0120 -0.0186 -0.1582
 7030W        W24554   4.675  15.112  13.613 -0.0175  0.3064 -0.1980
 7031W        W24555   3.328  16.625   0.714  0.1927 -0.1869 -0.0317
 7032W        W24556  10.735   6.695   0.619 -0.0818  0.3765 -0.1047
 7033W        W24557   5.270   5.955  10.929 -0.0262 -0.2478  0.2381
 7034W        W24558   3.673  14.466   1.887 -0.0508 -0.0003 -0.2396
 7035W        W24559  11.615  16.678  15.848  0.2410 -0.2124 -0.1138
 7036W        W24560  12.469  10.569  15.514  0.1020  0.5077  0.2345
 7037W        W24561   9.037  14.798   3.783  0.3443  0.1458  0.2133
 7038W        W24562   5.137   8.595   4.962  0.0120 -0.1387  0.1647
 7039W        W24563   2.579  18.002   1.773  0.2957 -0.0480  0.0242
 7040W        W24564  14.053   3.126  12.611 -0.0437  0.1011 -0.1285
 7041W        W24565  15.910  12.786   2.998  0.2602  0.1022  0.3374
 7042W        W24566  17.326   0.966  13.622  0.1978  0.1762 -0.1018
 7043W        W24567  10.401   3.588  14.447  0.0755  0.1974  0.0542
 7044W        W24568  12.620   9.330  15.573 -0.0725  0.0323 -0.0248
 7045W        W24569   0.807   7.351   1.310  0.1158 -0.0300 -0.1043
 7046W        W24570   4.611   3.011   0.327 -0.1730 -0.1157  0.0551
 7047W        W24571   3.864   6.747   4.207 -0.1151  0.0018 -0.2595
 7048W        W24572  14.078  15.650  15.447  0.2142 -0.0536 -0.5058
 7049W        W24573   6.588  13.266  12.931 -0.1261 -0.3019  0.1523
 7050W        W24574  10.988  13.059  11.185  0.0694 -0.1849 -0.0366
 7051W        W24575  12.719  10.982  10.380 -0.0103 -0.0078 -0.0514
 7052W        W24576   1.971   5.305  13.456 -0.2400 -0.0113 -0.1545
 7053W        W24577   0.732   9.235   1.254 -0.0619  0.0722 -0.4035
 7054W        W24578   8.563  11.039   5.656 -0.0505 -0.2675 -0.2658
 7055W        W24579   6.690   8.080  14.295  0.0606  0.0286 -0.0149
 7056W        W24580   4.165   3.091  11.606  0.7524  0.0257  0.0161
 7057W        W24581   4.003   4.863  11.204 -0.3606 -0.0291 -0.2902
 7058W        W24582   3.591   0.167   0.095  0.4521  0.1670  0.0202
 7059W        W24583   0.763  10.012   3.654  0.0619  0.0417 -0.1876
 7060W        W24584   8.880  11.989   4.133 -0.0243 -0.4998 -0.0495
 7061W        W24585  13.249   7.539  13.082 -0.0199  0.1677  0.0560
 7062W        W24586  17.714   3.179  14.488  0.0351 -0.2534 -0.1290
 7063W        W24587   1.273   2.929   0.872  0.1572  0.1486 -0.1008
 7064W        W24588  12.904  17.874  14.032  0.0011 -0.0255  0.0199
 7065W        W24589   1.038  14.041   3.883  0.0119  0.5504 -0.3514
 7066W        W24590  13.695   7.790  15.498  0.0082 -0.0502 -0.1800
 7067W        W24591   8.678  17.492  15.341 -0.2092  0.1139 -0.2116
 7068W        W24592   3.698   2.539  13.961 -0.0516 -0.2219  0.0593
 7069W        W24593  16.447   0.153   2.562  0.0051  0.3095  0.4536
 7070W        W24594   2.910   7.433   0.148 -0.1631  0.0573 -0.2714
 7071W        W24595   2.096  15.284  15.515  0.1269  0.1950 -0.0882
 7072W        W24596  17.366   1.957  14.311  0.1641  0.0100  0.0604
 7073W        W24597  13.298   4.257   0.093  0.1033 -0.3423  0.0440
 7074W        W24598   8.888  12.515  11.153  0.0100  0.2332  0.0659
 7075W        W24599  10.091  15.626  11.810 -0.0353  0.0284  0.2878
 7076W        W24600   8.225  13.834  13.552 -0.0396  0.0254  0.1629
 7077W        W24601  16.161  13.164  11.529  0.2842  0.0134  0.0113
 7078W        W24602  11.099  16.248  11.940 -0.2192  0.0133 -0.0699
 7079W        W24603  17.409  17.651   2.629 -0.5040  0.3692  0.2887
 7080W        W24604  15.411   8.672   0.223  0.2733  0.1627  0.1715
 7081W        W24605   7.686   9.636  14.050 -0.0996 -0.1645  0.2036
 7082W        W24606  17.417   5.662  14.723  0.3237  0.2538  0.0600
 7083W        W24607  12.512   1.793   0.113  0.2521  0.0462 -0.1453
 7084W        W24608  12.510   5.344   2.802 -0.1558 -0.0894  0.0523
 7085W        W24609   2.525  10.323   3.199 -0.3724  0.0349 -0.2187
 7086W        W24610   8.795  15.921   1.279  0.1594  0.1626  0.0471
 7087W        W24611   3.630  15.859   5.645 -0.0196 -0.1076 -0.0775
 7088W        W24612  14.389  12.477   2.573 -0.2103  0.2172  0.0267
 7089W        W24613  10.868  13.009  12.765 -0.1650  0.0796 -0.1801
 7090W        W24614   3.203  14.694  11.730 -0.1148  0.1885  0.0617
 7091W        W24615  12.375  14.249  15.220  0.0323  0.2356  0.0546
 7092W        W24616   6.084  14.502  14.713  0.1401 -0.0719  0.0961
 7093W        W24617  16.545  10.775  11.593 -0.0996 -0.0421 -0.0051
 7094W        W24618  10.476  17.939  12.472 -0.0215 -0.0856  0.1977
 7095W        W24619  17.243   8.745   4.815  0.1363  0.2971  0.0227
 7096W        W24620  16.154  13.362   3.931  0.0035  0.1748 -0.0787
 7097W        W24621   6.422  17.215  12.209 -0.2478 -0.1751  0.1708
 7098W        W24622  12.766  16.364   2.396 -0.0121 -0.0335  0.2427
 7099W        W24623   6.454   3.754  13.191 -0.0991 -0.0664 -0.0085
 7100W        W24624   8.433  13.158  10.406 -0.1281  0.1786  0.3079
 7101W        W24625   5.090   9.604   2.470 -0.0125 -0.3545  0.0518
 7102W        W24626   3.663   7.908   2.611 -0.2836  0.0097 -0.0460
 7103W        W24627  10.861  12.682   2.140 -0.0567 -0.1264 -0.1556
 7104W        W24628  11.658   2.036  11.978  0.1364 -0.0253 -0.2001
 7105W        W24629   9.705  17.938  12.802  0.0384  0.0967 -0.1601
 7106W        W24630  13.688   3.549  15.749 -0.0274  0.0461  0.0175
 7107W        W24631  16.046   3.658  14.604  0.1857  0.1009 -0.1131
 7108W        W24632   2.421   1.771  14.197 -0.0720 -0.2232  0.1898
 7109W        W24633  14.734  14.556   4.089 -0.3919 -0.2626  0.0018
 7110W        W24634   3.034   1.106  14.810 -0.0726  0.3287  0.4049
 7111W        W24635  16.207  11.343   1.214  0.0048  0.0349  0.1486
 7112W        W24636  12.111   1.451   0.049 -0.1598  0.0178 -0.2014
 7113W        W24637   2.979   2.714   3.463  0.0970  0.0742 -0.4117
 7114W        W24638   9.671   9.580   1.485 -0.0688  0.0614 -0.2115
 7115W        W24639   2.743   2.631  15.018  0.0761 -0.3880 -0.0138
 7116W        W24640   0.346  14.743  14.300 -0.1345 -0.1521 -0.1764
 7117W        W24641  15.994  10.049   5.039  0.3729  0.2419  0.0176
 7118W        W24642  15.462   9.447  14.101  0.2743  0.0406  0.0130
 7119W        W24643  14.669   5.346   1.767 -0.3863  0.1296  0.0356
 7120W        W24644  14.515   2.909  14.959  0.0260  0.0893 -0.0912
 7121W        W24645  15.017  11.049   1.643  0.2081 -0.2571 -0.2584
 7122W        W24646  16.633  10.888  12.857 -0.1247 -0.1545 -0.0577
 7123W        W24647   9.623   5.262   4.736 -0.0374 -0.1942  0.2234
 7124W        W24648   0.446   1.372   3.683 -0.0919  0.0251 -0.3026
 7125W        W24649  13.353   6.441  15.133  0.1378  0.0411 -0.1819
 7126W        W24650  16.198   2.701   1.155  0.1137 -0.0567 -0.2311
 7127W        W24651   9.779   6.539  11.300  0.2539  0.3406 -0.1133
 7128W        W24652  14.709  17.795   2.662  0.1670  0.0356 -0.5580
 7129W        W24653  17.993   0.655   2.678 -0.0530 -0.1240 -0.0079
 7130W        W24654  12.494   6.440  13.882  0.1552  0.0288 -0.0637
 7131W        W24655  14.293   2.980   4.459 -0.2870  0.1928 -0.1347
 7132W        W24656   7.307  11.874  13.635  0.0110  0.0874 -0.8005
 7133W        W24657  17.906   7.684   4.166  0.1200  0.1332 -0.4845
 7134W        W24658   9.341   0.522  14.263 -0.1694  0.0252  0.1094
 7135W        W24659  13.307  14.123  12.329  0.3380  0.1203  0.3286
 7136W        W24660   3.077  17.800   3.630  0.3237 -0.0220  0.1114
 7137W        W24661  16.225   5.206   3.028  0.1809  0.1430  0.4808
 7138W        W24662   0.472  16.183   1.532  0.1148 -0.0380  0.0802
 7139W        W24663  16.417   7.914  12.565 -0.2173 -0.2418  0.1232
 7140W        W24664  13.638   8.802  13.425  0.0803  0.1612  0.0726
 7141W        W24665   2.062  16.663  14.310 -0.1121  0.1530  0.1432
 7142W        W24666   1.357   2.902   3.838  0.0032 -0.0468 -0.2085
 7143W        W24667  12.937   9.890   0.932  0.0253 -0.2525 -0.1104
 7144W        W24668   5.537  12.638  12.776 -0.3327  0.3279  0.3237
 7145W        W24669  12.871   1.470  11.462 -0.3203  0.2575  0.0608
 7146W        W24670  14.265   7.157  11.903 -0.4536 -0.5313  0.3020
 7147W        W24671   2.883   3.944   0.677  0.1460  0.2886  0.0593
 7148W        W24672  16.761   2.140  16.084 -0.1745  0.2016  0.2305
 7149W        W24673   8.441   9.809   3.492 -0.0241  0.0263  0.0446
 7150W        W24674  15.281  14.374  11.523  0.3371  0.0614  0.0083
 7151W        W24675  16.618   1.753  15.728  0.0546  0.2477  0.1341
 7152W        W24676  17.537   0.585   3.994  0.1983  0.0544 -0.1977
 7153W        W24677   8.226   2.766  14.722  0.0603 -0.0198  0.1710
 7154W        W24678   4.505   8.624  15.393 -0.2298 -0.0027 -0.0794
 7155W        W24679   3.387  11.682   4.424 -0.1995  0.1764  0.0348
 7156W        W24680  10.875  13.608  14.790 -0.2926 -0.0027 -0.1109
 7157W        W24681   1.840  14.942  13.018 -0.0165  0.1170  0.0284
 7158W        W24682  12.236   7.161   2.212 -0.0589 -0.2666 -0.1489
 7159W        W24683   5.503   0.671   4.815  0.0213  0.0268 -0.0443
 7160W        W24684  17.577   6.110   3.171  0.0896 -0.0594 -0.0688
 7161W        W24685  12.300  14.514   1.297  0.3855 -0.1610  0.2116
 7162W        W24686   6.978  16.816   3.774  0.2434  0.3895  0.1214
 7163W        W24687  12.632  16.665   3.257  0.0489 -0.1143 -0.2752
 7164W        W24688   2.521  17.633   1.383 -0.1905  0.1981 -0.1167
 7165W        W24689  11.765  14.560   3.659  0.0691  0.2047  0.2626
 7166W        W24690   9.312   9.711   1.859 -0.2014 -0.0782 -0.1160
 7167W        W24691   5.023  12.464   3.580 -0.4090 -0.2634 -0.2913
 7168W        W24692   4.447   3.382  13.548  0.1014 -0.2519 -0.1249
 7169W        W24693  16.134  12.018   4.059 -0.0249 -0.3232  0.1027
 7170W        W24694   7.177   0.282  15.384  0.0815  0.0704  0.1457
 7171W        W24695  17.764   1.718   4.058 -0.1485 -0.0237 -0.1961
 7172W        W24696  13.918  11.344   4.904  0.2144  0.2401 -0.1297
 7173W        W24697  15.618  10.816  14.242 -0.2629 -0.1128 -0.1267
 7174W        W24698  12.403  13.043   1.228 -0.0117 -0.1694  0.1388
 7175W        W24699   7.628   4.361   0.125  0.0006 -0.3964 -0.3407
 7176W        W24700   6.663   4.715   3.722  0.1637  0.1603  0.1855
 7177W        W24701   7.196   8.646   3.167 -0.1307  0.1784 -0.3671
 7178W        W24702   1.449  10.584  14.648 -0.2114  0.0484  0.3385
 7179W        W24703  14.954  14.906  11.621  0.0248  0.2543 -0.0920
 7180W        W24704   8.483  10.492   2.826  0.1690  0.4377  0.0088
 7181W        W24705   3.452  10.011  12.011  0.1106 -0.0791  0.1913
 7182W        W24706   9.058  12.842  13.802  0.0091 -0.1170 -0.1378
 7183W        W24707  16.952   0.496   5.091  0.0885  0.1264  0.4309
 7184W        W24708   4.332  17.564  12.624  0.1083  0.0363 -0.0506
 7185W        W24709  10.468  17.112  12.974 -0.1333 -0.0109  0.4627
 7186W        W24710  17.268   6.378   3.653  0.2573  0.0252 -0.3799
 7187W        W24711  14.529  15.199  15.856 -0.2308 -0.0209  0.2178
 7188W        W24712   9.356   6.914  15.322 -0.2269  0.1827  0.3392
 7189W        W24713  14.421   1.003   2.991 -0.2527 -0.0364 -0.0550
 7190W        W24714   5.133  11.958  13.629  0.2821  0.2271 -0.1383
 7191W        W24715   9.620  10.982   1.575 -0.0787  0.0879 -0.0476
 7192W        W24716  14.275   4.654  10.497  0.3278 -0.2160  0.1145
 7193W        W24717  17.270   9.894   3.240  0.2518  0.0933 -0.4893
 7194W        W24718   3.491  17.285   2.809  0.0254  0.2675 -0.0007
 7195W        W24719  17.656  18.136  13.622 -0.4389  0.0783  0.0355
 7196W        W24720   2.111   6.586   5.827 -0.2408  0.0150  0.0760
 7197W        W24721   8.503   4.794  11.171 -0.2129 -0.2223  0.1239
 7198W        W24722  13.148  15.627   0.898  0.3578 -0.0845 -0.1179
 7199W        W24723   7.259   3.425   1.123 -0.0103  0.0203  0.2432
 7200W        W24724  17.872  13.290   0.863 -0.0706  0.0914 -0.1165
 7201W        W24725   5.187   4.756  14.943 -0.2347  0.2847 -0.1121
 7202W        W24726  13.043  11.140  14.581  0.0899 -0.1777 -0.3121
 7203W        W24727  13.832  14.855  13.052 -0.0731  0.1249  0.1794
 7204W        W24728  12.373  10.108  12.832 -0.0982  0.0077  0.1799
 7205W        W24729   9.523   5.396  13.306  0.3836 -0.0289  0.3890
 7206W        W24730  12.215  13.462  13.976  0.4850  0.2700 -0.0262
 7207W        W24731  12.024   7.596   2.330 -0.1072 -0.0187  0.4018
 7208W        W24732   9.261   4.900   0.941 -0.1703 -0.2265  0.2799
 7209W        W24733   9.134   6.567   4.165 -0.0730 -0.0144  0.0726
 7210W        W24734   8.339  12.140   0.458  0.2393  0.2173 -0.2050
 7211W        W24735  14.739  18.099   2.221  0.1539  0.0730 -0.1534
 7212W        W24736   0.758   9.768  16.059  0.0876  0.0000  0.3708
 7213W        W24737  14.142   6.094  14.947  0.2565 -0.0765  0.2229
 7214W        W24738  13.255  11.753  12.538  0.2538 -0.3037 -0.2077
 7215W        W24739  13.323  11.145  12.176 -0.1897 -0.0296  0.0690
 7216W        W24740   9.369   4.413   3.993 -0.0488  0.1508  0.5391
 7217W        W24741  14.267   4.842  15.378 -0.0213  0.2481  0.1435
 7218W        W24742  14.533   1.140   1.279  0.1079  0.3857  0.1097
 7219W        W24743  15.973  12.939   5.945 -0.2409 -0.1886  0.2097
 7220W        W24744   9.390  16.268   3.784  0.0462 -0.1108  0.3127
 7221W        W24745   1.969  17.432   4.312  0.0359  0.2115 -0.0560
 7222W        W24746  11.003   8.176   1.129 -0.1645  0.0682 -0.3784
 7223W        W24747  16.540  15.737  15.904  0.0309  0.2164 -0.0676
 7224W        W24748   7.646  11.238  15.017 -0.2080 -0.1598  0.0843
 7225W        W24749  16.869   3.138  11.601  0.2238  0.1598 -0.0027
 7226W        W24750  12.300   3.895   0.755  0.1974 -0.1496  0.2462
 7227W        W24751   3.518   5.791  12.157  0.1806  0.2208 -0.1278
 7228W        W24752   2.623   2.688  14.496  0.1991  0.0779  0.0078
 7229W        W24753  14.629   2.316   3.267 -0.2016  0.0981 -0.2053
 7230W        W24754  13.773   6.660  12.148 -0.1585 -0.0047  0.0272
 7231W        W24755  16.384   1.386  13.575  0.0473  0.0414 -0.1607
 7232W        W24756   6.811  12.686   3.030  0.2565 -0.0600  0.4037
 7233W        W24757   1.127  16.566  15.294  0.1358  0.0790  0.0094
 7234W        W24758  17.917  10.740   3.017  0.1632  0.0045 -0.2997
 7235W        W24759   4.534  10.799   0.127 -0.2308 -0.1863  0.1762
 7236W        W24760   8.850   1.112   3.255 -0.0581  0.0928 -0.2482
 7237W        W24761  10.933   1.300   0.458  0.2946  0.1335  0.2243
 7238W        W24762   8.803   7.248   5.912 -0.0422 -0.1477 -0.5094
 7239W        W24763   9.771   2.667  15.912  0.1523  0.2007 -0.0258
 7240W        W24764  15.914   1.048   1.222 -0.1581 -0.0591  0.0600
 7241W        W24765   4.833  13.159  11.607 -0.2047  0.1207 -0.1192
 7242W        W24766   3.479  17.130  13.296 -0.1105 -0.2337  0.2965
 7243W        W24767  10.520   5.882  15.197 -0.0887 -0.0609  0.0853
 7244W        W24768   4.415   9.666  12.163 -0.1831  0.0630  0.2145
 7245W        W24769   4.962   8.742   1.795  0.0991 -0.1738 -0.0090
 7246W        W24770  15.325   3.711  15.381  0.1065 -0.0607 -0.0917
 7247W        W24771  17.433  12.009  15.203 -0.1367 -0.3376 -0.1170
 7248W        W24772  13.303  10.062   4.531 -0.0686 -0.1105 -0.0170
 7249W        W24773   1.542  17.740  10.998  0.1538  0.0288 -0.1212
 7250W        W24774   8.285   7.264  13.694  0.3474 -0.2188 -0.1004
 7251W        W24775  12.149   9.784  14.366 -0.0181 -0.1930  0.1251
 7252W        W24776   4.759  12.719  14.454  0.0051 -0.0213 -0.1969
 7253W        W24777   7.619  12.693   3.234 -0.2613 -0.1789 -0.1954
 7254W        W24778   7.130  12.446   1.357 -0.0788  0.1472 -0.2259
 7255W        W24779  16.617  14.766   1.071 -0.0439 -0.1659 -0.1831
 7256W        W24780  13.004  11.390   1.999 -0.0109 -0.0403  0.0920
 7257W        W24781   0.630   4.080   0.610  0.0233 -0.0846  0.1047
 7258W        W24782   5.424  14.762   2.743  0.0950  0.1196 -0.0822
 7259W        W24783  18.005  11.391  13.215 -0.0960  0.0139  0.1747
 7260W        W24784  17.061  17.662  11.971 -0.3830 -0.3326  0.1853
 7261W        W24785   7.953  12.011  13.104  0.2831 -0.0183  0.0083
 7262W        W24786   1.257  10.010  11.878  0.0659  0.3055 -0.3429
 7263W        W24787   1.813  17.190  13.368 -0.3483 -0.0767 -0.1122
 7264W        W24788   0.526  11.323  14.877 -0.1089 -0.0826  0.0073
 7265W        W24789  15.797   0.103   4.680 -0.0508 -0.1075 -0.0170
 7266W        W24790  15.953   9.683  13.908 -0.1162  0.1174 -0.1178
 7267W        W24791   4.401  15.033  11.781 -0.0336  0.1096 -0.3734
 7268W        W24792   0.278   3.724   1.785 -0.0709 -0.1635  0.4704
 7269W        W24793  12.672   6.266  12.600  0.1614  0.3054 -0.1478
 7270W        W24794  11.205   9.653  12.245  0.2017  0.0977  0.2351
 7271W        W24795   5.566  15.116   0.157  0.1482  0.5401 -0.3648
 7272W        W24796   6.883   3.945   0.532  0.1008  0.2353 -0.0433
 7273W        W24797  18.083   0.431  14.313 -0.0787  0.1793  0.0098
 7274W        W24798   2.212  17.564  15.337  0.0719  0.2064 -0.0644
 7275W        W24799   5.116  14.784   2.353 -0.1557 -0.3403 -0.1875
 7276W        W24800   1.115   4.741  11.632  0.3484 -0.2573 -0.2222
 7277W        W24801   5.940  15.261   4.374 -0.3919  0.1580  0.1649
 7278W        W24802  17.708  14.789  14.793  0.0740 -0.2973  0.0146
 7279W        W24803  15.082   2.823  15.733  0.2525 -0.1308 -0.1715
 7280W        W24804  12.133  15.834   2.346  0.3272 -0.1633  0.0747
 7281W        W24805   1.084   4.951   4.046  0.0114 -0.0185  0.0719
 7282W        W24806   4.223  13.936  10.564 -0.0023  0.1673 -0.1549
 7283W        W24807   0.449   1.686   2.475  0.2091  0.2408 -0.3197
 7284W        W24808  10.967  14.264  12.051  0.1234 -0.1696  0.0869
 7285W        W24809   5.359   0.994   0.539  0.2420  0.2857 -0.0656
 7286W        W24810   5.720   8.075   5.901  0.0346  0.3446  0.1062
 7287W        W24811  11.579   5.992   1.666  0.0687 -0.3739 -0.2656
 7288W        W24812   5.520   2.754  12.192 -0.2877  0.1932 -0.0409
 7289W        W24813  15.909  15.203   4.054  0.1270 -0.0904 -0.1039
 7290W        W24814   8.544   9.023  15.107 -0.0955 -0.0481 -0.0248
 7291W        W24815  17.263   9.305   3.925 -0.1077  0.0316  0.3774
 7292W        W24816   4.014   7.435  14.747  0.0208  0.1750 -0.0444
 7293W        W24817  16.915  15.156   4.413  0.4112 -0.1645  0.0836
 7294W        W24818   9.738   0.038  15.107  0.3092 -0.3559  0.1304
 7295W        W24819   1.182  11.949  11.715  0.0313  0.4176  0.1851
 7296W        W24820   1.909   6.302  11.658 -0.1252 -0.0016  0.0267
 7297W        W24821  14.840   7.160  12.689  0.2460 -0.0247 -0.1099
 7298W        W24822   2.100  11.340   5.082  0.4183 -0.2644 -0.2394
 7299W        W24823   9.753   2.211   2.528 -0.2693  0.1473 -0.2661
 7300W        W24824   8.958   3.193  11.706 -0.2749 -0.0974 -0.0941
 7301W        W24825  13.880  17.077  15.521 -0.0556  0.1079 -0.1952
 7302W        W24826  12.180   4.386  12.890  0.0314  0.4289 -0.0050
 7303W        W24827   9.357  10.038  12.277  0.0961 -0.2587 -0.4034
 7304W        W24828   0.778   4.929   4.500 -0.1713  0.0933 -0.3152
 7305W        W24829   2.130   1.428  12.247 -0.0639 -0.3638 -0.2362
 7306W        W24830  16.669  13.586  13.124  0.0476  0.0565  0.1961
 7307W        W24831  11.710   8.470  13.654 -0.0118 -0.0898 -0.2646
 7308W        W24832  12.756  11.939   4.848  0.0763  0.3796  0.0192
 7309W        W24833   6.033   8.350  13.910  0.0491 -0.0835  0.1752
 7310W        W24834  11.505   8.690  16.052 -0.3637  0.1350 -0.1143
 7311W        W24835  12.161   6.320   2.588  0.0090  0.2646 -0.0707
 7312W        W24836  17.227  12.417  13.607  0.4245  0.3394 -0.2894
 7313W        W24837  15.621   8.549   6.019  0.1248 -0.3439 -0.1474
 7314W        W24838  15.907  12.404  13.443  0.0898 -0.0597  0.0547
 7315W        W24839  17.328  18.029  14.006  0.0785 -0.1020 -0.1068
 7316W        W24840   1.262  17.527   0.905  0.2340  0.1614 -0.1809
 7317W        W24841   5.510  13.253   1.033 -0.1368  0.3192 -0.1285
 7318W        W24842   7.641  11.241   1.825 -0.0274 -0.3558 -0.1002
 7319W        W24843  11.082   1.018  15.479 -0.1095  0.4434  0.3976
 7320W        W24844   4.114   2.222  11.100  0.0412 -0.1125 -0.5375
 7321W        W24845   6.420   3.405  12.499 -0.2912 -0.0240  0.2954
 7322W        W24846   1.111   5.642   2.074  0.0133  0.0272  0.0664
 7323W        W24847   1.362  12.643  12.381 -0.1831 -0.1226 -0.2607
 7324W        W24848  15.498  14.855  12.755  0.0353  0.2652  0.2030
 7325W        W24849   6.085   2.045   2.107 -0.0646  0.2810 -0.0348
 7326W        W24850   0.546  17.661  11.861 -0.0445  0.1270 -0.2622
 7327W        W24851   7.055   9.652  14.820  0.0651 -0.2475  0.0076
 7328W        W24852   6.600  14.974  11.895 -0.4835 -0.0146 -0.4585
 7329W        W24853  14.838   6.431  12.190  0.2012  0.1240 -0.0926
 7330W        W24854   6.542  16.850   2.833  0.1511 -0.0427  0.0539
 7331W        W24855   0.117   0.797   3.576 -0.1587 -0.1105 -0.0159
 7332W        W24856  18.126   7.283   3.265 -0.0032  0.0001  0.2874
 7333W        W24857   5.454  14.910  11.775  0.0278 -0.0051 -0.3015
 7334W        W24858   5.344   6.271  11.718 -0.0982  0.0248 -0.1854
 7335W        W24859  15.414   1.695   3.777  0.0671  0.0165 -0.0462
 7336W        W24860   7.758  11.749  15.345 -0.0524 -0.2332 -0.1073
 7337W        W24861  10.283   3.017   0.998  0.2359 -0.0424 -0.0860
 7338W        W24862  16.039   0.763   0.259 -0.4217  0.1950 -0.3495
 7339W        W24863   4.993   7.735   0.384  0.1360 -0.2206 -0.4239
 7340W        W24864  13.042  11.507   3.011  0.0402  0.0427 -0.1573
 7341W        W24865   9.356   2.598  13.126 -0.0351  0.2750  0.1746
 7342W        W24866  17.180   1.559   4.657  0.0811 -0.1558  0.0628
 7343W        W24867  15.123  13.376  14.408 -0.0288 -0.3410 -0.0559
 7344W        W24868  13.659   8.791  15.298 -0.2146  0.0574  0.1380
 7345W        W24869  12.753  12.697  11.977  0.2587 -0.3260 -0.0916
 7346W        W24870   8.177   5.743  13.200  0.0375 -0.1160 -0.1840
 7347W        W24871  14.371   8.670   0.236  0.4531  0.1077 -0.0005
 7348W        W24872   9.117  12.726   1.829 -0.0681  0.1482  0.0422
 7349W        W24873  10.458   8.546  11.542 -0.0022  0.2753  0.3939
 7350W        W24874  13.432  13.194   0.375  0.0052  0.3033 -0.1909
 7351W        W24875   0.322   8.159   4.424 -0.0193  0.1316 -0.0102
 7352W        W24876   2.397  16.244   5.480  0.0731  0.0433 -0.0923
 7353W        W24877  12.525  10.415  13.276 -0.0077 -0.1450  0.2465
 7354W        W24878   2.943   7.925   0.186  0.2163 -0.0227 -0.4041
 7355W        W24879  11.092  11.361  15.723  0.1417  0.1798  0.3113
 7356W        W24880  15.862  13.159   4.343 -0.0683 -0.0821 -0.1321
 7357W        W24881  10.550  14.256   0.942 -0.0130 -0.2642  0.4001
 7358W        W24882   9.918   7.373   3.871 -0.2032  0.1032 -0.4273
 7359W        W24883   0.616  17.957  11.366 -0.1368 -0.1725 -0.1679
 7360W        W24884   2.729  17.696   2.947 -0.1831 -0.0478 -0.0908
 7361W        W24885   6.004  16.939  16.057  0.1802  0.1130 -0.1087
 7362W        W24886   4.222   0.469  14.415 -0.2528 -0.0239 -0.0080
 7363W        W24887  17.820   6.083  15.998  0.0185  0.1723  0.0661
 7364W        W24888   7.177   3.953  14.006  0.0678  0.0378 -0.0452
 7365W        W24889   0.535   5.115  12.931  0.0133 -0.1810  0.2322
 7366W        W24890   9.896  12.868   4.076 -0.2080 -0.1829  0.0446
 7367W        W24891  14.526   3.126  12.414 -0.0388  0.1816 -0.0525
 7368W        W24892   4.420  15.627  11.876 -0.1430  0.1144  0.1423
 7369W        W24893  10.519  17.993   5.410 -0.2036  0.2764  0.2749
 7370W        W24894   0.814  12.928  11.749 -0.1098 -0.1539  0.1965
 7371W        W24895   4.621   6.097   2.200 -0.2283 -0.0143  0.1340
 7372W        W24896   6.564   9.508   4.926  0.1382 -0.1425  0.2034
 7373W        W24897  11.571   8.187  13.999  0.2024 -0.1803 -0.0453
 7374W        W24898   5.237  14.562  14.825 -0.1154  0.0467 -0.2062
 7375W        W24899  17.533  12.082   0.100  0.2184 -0.1577  0.2422
 7376W        W24900  11.506   4.503   1.437  0.0296 -0.1424  0.0656
 7377W        W24901   4.224   3.398  12.563 -0.4099 -0.1874  0.3813
 7378W        W24902  17.809   2.573   5.183 -0.0662  0.0878  0.2525
 7379W        W24903  11.307  16.755   2.177  0.5576  0.1524  0.1566
 7380W        W24904  16.348   1.708  14.356 -0.1403  0.1081 -0.1892
 7381W        W24905  11.086  13.238  15.202  0.0252 -0.1353  0.0129
 7382W        W24906  15.940   3.531  11.692 -0.0730  0.0602  0.0528
 7383W        W24907   8.218   6.945   4.430  0.0938  0.0081 -0.0292
 7384W        W24908  11.968  17.057  12.231  0.0173 -0.0445  0.0533
 7385W        W24909  13.026  11.040   2.788 -0.1991 -0.3115 -0.1054
 7386W        W24910  14.221   5.285   2.159 -0.2157 -0.1767  0.1431
 7387W        W24911   9.824  12.996   5.093 -0.2452 -0.1618  0.0055
 7388W        W24912   0.707   7.957  13.090  0.1981 -0.1716 -0.2237
 7389W        W24913  11.485  17.194  13.133  0.0759  0.2668  0.2080
 7390W        W24914   1.381   9.390  14.912  0.2218  0.1084  0.2575
 7391W        W24915  14.107  16.089  15.711  0.3022  0.3175 -0.1030
 7392W        W24916  10.250   3.550  11.902 -0.0083 -0.1747 -0.5185
 7393W        W24917  17.692   4.925   0.389 -0.1181  0.0169 -0.4606
 7394W        W24918  14.649   1.557  15.523  0.0291 -0.1001  0.0943
 7395W        W24919   5.994  17.294   2.495  0.0197  0.0190 -0.0658
 7396W        W24920   0.231  14.797  13.122 -0.0934  0.2408  0.1450
 7397W        W24921   6.082  11.857  11.257  0.0792  0.0698 -0.0123
 7398W        W24922  16.272   3.869  14.165 -0.1001  0.0519  0.1487
 7399W        W24923  12.479   2.064   2.216 -0.0421  0.2460  0.0608
 7400W        W24924   2.059   3.448  13.858 -0.1402 -0.0747  0.1192
 7401W        W24925  17.219  18.111  14.727  0.2582  0.1181 -0.0667
 7402W        W24926   5.530   3.339   4.172 -0.4401  0.0794 -0.3519
 7403W        W24927  11.227  16.468  14.370  0.0817 -0.1152  0.0818
 7404W        W24928  16.776   5.280  14.721 -0.0359 -0.0324 -0.0414
 7405W        W24929   0.960   0.468  13.124 -0.0306 -0.0922 -0.1651
 7406W        W24930   2.801  12.543   4.566 -0.0464  0.0194  0.1265
 7407W        W24931  15.608   7.838   6.363 -0.1547 -0.6667 -0.3141
 7408W        W24932   0.797   1.256   3.346  0.1238  0.0602 -0.1859
 7409W        W24933  13.266   8.760   5.937 -0.0222 -0.0622  0.0494
 7410W        W24934   3.811   0.606  12.467 -0.1200  0.1320 -0.0747
 7411W        W24935   8.262   9.476   2.398 -0.1097  0.0673 -0.1246
 7412W        W24936   8.865  16.353  14.251  0.0053 -0.2623 -0.0745
 7413W        W24937   2.004  14.540  13.320 -0.0912 -0.1112  0.1591
 7414W        W24938  11.707  16.035  13.568  0.0176 -0.2743  0.1104
 7415W        W24939  10.347   4.590  12.557  0.2664  0.0368 -0.2106
 7416W        W24940   1.828  14.683  13.852  0.1360  0.3666 -0.0802
 7417W        W24941   0.990   2.138  14.721  0.2186  0.2644 -0.2405
 7418W        W24942  15.029   3.692   3.419 -0.1393 -0.2094  0.1921
 7419W        W24943  16.738   1.270   4.699 -0.4489  0.1675  0.0084
 7420W        W24944   6.691  17.148  15.370  0.0191  0.1466 -0.0531
 7421W        W24945   6.803  16.667  11.595  0.1014 -0.0230  0.0144
 7422W        W24946   0.881   5.325  15.719 -0.1864  0.0937 -0.1235
 7423W        W24947   9.298   3.916  11.820 -0.1851 -0.0484  0.0425
 7424W        W24948   4.418   2.529  13.412 -0.3874  0.0256  0.1612
 7425W        W24949   0.104  11.374  14.582  0.0573  0.4707 -0.0702
 7426W        W24950  12.688  12.083  14.483 -0.0265 -0.1364 -0.0662
 7427W        W24951  15.707  15.934  15.143 -0.3308 -0.2707  0.1551
 7428W        W24952  14.570   2.367  13.811 -0.1071 -0.2690  0.1901
 7429W        W24953   5.992  13.120   1.026  0.2184 -0.0237  0.3527
 7430W        W24954   3.995  16.700  11.574  0.0719  0.0063  0.1451
 7431W        W24955   6.843  14.607   3.739  0.2355 -0.0019 -0.0121
 7432W        W24956   6.433  17.557  11.853 -0.0304  0.0777  0.1279
 7433W        W24957   8.933   0.883  15.518  0.0639 -0.2455 -0.1014
 7434W        W24958   9.096   1.459  14.043  0.0311 -0.0733  0.1446
 7435W        W24959   8.116  12.961  12.980  0.1985 -0.0337 -0.2682
 7436W        W24960   9.178  15.618   0.403  0.1505  0.0227  0.1195
 7437W        W24961  14.134  15.383   1.152 -0.0736  0.3532 -0.3003
 7438W        W24962  10.194  10.070   1.639 -0.1731  0.0330 -0.2988
 7439W        W24963   2.219   3.302   2.410  0.1402  0.1026  0.0287
 7440W        W24964  14.132  14.802  13.486 -0.1964 -0.4817  0.1737
 7441W        W24965   0.755   3.500  13.103  0.4985 -0.1422  0.1481
 7442W        W24966  11.121  10.467  13.137 -0.0901  0.1892  0.1497
 7443W        W24967  14.529   4.917  12.389  0.0543  0.0732 -0.1376
 7444W        W24968   8.046   3.258   3.399 -0.0221 -0.0596 -0.3101
 7445W        W24969  15.804   7.243  15.326  0.0197  0.0995 -0.2756
 7446W        W24970   9.857  11.882   0.667  0.0678  0.2834 -0.0344
 7447W        W24971   8.751   4.234  10.484 -0.0218 -0.2148 -0.1014
 7448W        W24972  10.477  11.674  11.555  0.1320  0.0006  0.1285
 7449W        W24973   9.438  11.238  13.113 -0.3068 -0.1224  0.1226
 7450W        W24974   4.487  17.897   2.970  0.1195 -0.1767 -0.0944
 7451W        W24975   7.696   3.722  12.258  0.0243 -0.0284 -0.1623
 7452W        W24976  13.309  11.235  12.716  0.2058  0.0681  0.2997
 7453W        W24977   7.274  16.813   0.817  0.0685  0.1285  0.2276
 7454W        W24978  10.302   5.871   3.964 -0.3501  0.3485 -0.2125
 7455W        W24979  16.711   6.537  14.051  0.1013  0.0686  0.1045
 7456W        W24980  13.108  14.671   0.892 -0.0208  0.4855 -0.1182
 7457W        W24981   5.971  14.149  16.060 -0.2635 -0.0287  0.4850
 7458W        W24982   5.316   6.554  13.950  0.0589 -0.0291  0.1614
 7459W        W24983   0.288  10.084   2.437  0.0127  0.2897  0.0927
 7460W        W24984   4.065   9.306   0.313  0.1498 -0.0986 -0.2053
 7461W        W24985  17.750   7.509   3.473 -0.0725 -0.1749 -0.2408
 7462W        W24986  11.359   0.353  12.103 -0.1549 -0.2306 -0.0565
 7463W        W24987   8.774   3.127  12.617  0.3403  0.1003  0.0320
 7464W        W24988   1.326   7.515   0.070 -0.0045 -0.3259  0.0685
 7465W        W24989   3.256  16.579  11.913  0.2239 -0.1322  0.0375
 7466W        W24990   2.469   7.614   5.873  0.0511 -0.1263 -0.2764
 7467W        W24991   1.100   9.680   6.404  0.0925  0.0223  0.3497
 7468W        W24992   7.591  16.753  14.821 -0.1419 -0.1600  0.0274
 7469W        W24993   8.428  14.380  12.891  0.0472 -0.2104  0.2316
 7470W        W24994  15.168   7.129   0.132  0.3695 -0.1880 -0.2473
 7471W        W24995  11.489   3.737   4.339 -0.0349 -0.0677 -0.4554
 7472W        W24996   7.709  17.444  12.552  0.5979  0.1238 -0.1791
 7473W        W24997   9.966   2.195  13.787  0.0130 -0.0567 -0.2315
 7474W        W24998   7.382  16.100   4.713 -0.1226  0.3416 -0.3994
 7475W        W24999  16.502  11.780   0.117 -0.0689  0.1835 -0.0501
 7476W        W25000   8.011  13.989  14.920  0.2323  0.2311 -0.2413
 7477W        W25001   1.637  16.850  14.399 -0.2066  0.2975  0.1743
 7478W        W25002   0.364   5.254   0.097 -0.3721 -0.4689  0.2076
 7479W        W25003   8.155   7.321   3.560 -0.1478  0.3336  0.2445
 7480W        W25004   7.028   9.824   0.594  0.1543  0.0853  0.1603
 7481W        W25005   2.934   8.873   3.190  0.2849  0.0351  0.1922
 7482W        W25006   4.879  16.291  11.292  0.1817  0.1554  0.0319
 7483W        W25007   3.997   2.828  11.216  0.0037  0.3770 -0.0810
 7484W        W25008  15.307  16.155  15.383 -0.4039  0.0963 -0.0663
 7485W        W25009   4.394   6.185   1.279  0.0632 -0.1715 -0.1198
 7486W        W25010   9.043   1.575  11.194 -0.0466 -0.2249  0.2041
 7487W        W25011   4.593   9.789  11.166 -0.0336 -0.1035  0.1141
 7488W        W25012  11.768   5.360   0.164 -0.0095 -0.2395 -0.0701
 7489W        W25013   8.066  14.748  13.138  0.3189  0.2828 -0.1951
 7490W        W25014   0.511   9.096   6.110 -0.2655  0.2930 -0.3074
 7491W        W25015   7.606  14.829   3.982 -0.0681  0.0618 -0.0405
 7492W        W25016   1.016   0.373  11.843 -0.0746  0.0731  0.2418
 7493W        W25017   3.828   9.512   1.822 -0.1339 -0.2357  0.2656
 7494W        W25018   3.078   9.701  12.239 -0.1339 -0.1505  0.3189
 7495W        W25019  13.370   4.886  15.842  0.0425  0.0107 -0.2296
 7496W        W25020  11.397   6.240  15.574  0.3631 -0.0597 -0.0281
 7497W        W25021   3.651  17.256   4.827 -0.1078  0.0726  0.2415
 7498W        W25022  16.322   5.102  14.566 -0.0647  0.0914 -0.0162
 7499W        W25023   1.418   7.685   1.830 -0.2505  0.0872 -0.0455
 7500W        W25024  15.317   7.163  12.391  0.0541 -0.0863  0.0054
 7501W        W25025  18.026   0.366   3.512  0.1897 -0.4628 -0.1326
 7502W        W25026   8.976   4.396  13.964  0.0606  0.2149 -0.3151
 7503W        W25027  15.033   3.961   2.490 -0.0393  0.4958  0.2867
 7504W        W25028  16.250  16.949  14.325 -0.2612  0.1036 -0.0458
 7505W        W25029  14.210   2.121   3.591 -0.2794  0.0640  0.2968
 7506W        W25030   6.700  17.958   4.462  0.2560  0.1840 -0.0347
 7507W        W25031   6.675  17.615  14.489  0.1946  0.0741  0.0101
 7508W        W25032   1.273   1.515  12.047  0.5838 -0.2888  0.0566
 7509W        W25033   9.484   7.889  15.503 -0.1312  0.1381  0.0714
 7510W        W25034  14.426  17.117  14.513 -0.1936 -0.1821  0.1468
 7511W        W25035  15.599   9.036   4.178  0.0085 -0.0200  0.0182
 7512W        W25036   8.020  10.585   3.916 -0.2191 -0.0917 -0.0331
 7513W        W25037   6.558  17.426   1.112  0.1307  0.0581 -0.0460
 7514W        W25038  12.106   2.781   4.436  0.2209  0.0615 -0.2216
 7515W        W25039   8.755  13.408   2.637 -0.3982  0.1388  0.0842
 7516W        W25040   2.014  17.919   4.491 -0.2870 -0.1054 -0.0391
 7517W        W25041   6.995   7.947   1.330 -0.0441  0.1856 -0.1893
 7518W        W25042   6.820  12.830   4.655  0.8710  0.1583  0.1297
 7519W        W25043   1.656   2.644  14.018 -0.1250 -0.2473  0.1108
 7520W        W25044   6.975   5.329   4.223 -0.1601  0.0346  0.0336
 7521W        W25045   0.499   8.878   2.049 -0.0451 -0.2556 -0.1454
 7522W        W25046  10.751  10.122  15.090 -0.3308  0.0795 -0.0152
 7523W        W25047  14.858  16.002  13.073  0.0333 -0.1166  0.0465
 7524W        W25048   0.440  14.138  13.515 -0.1452  0.0593  0.2770
 7525W        W25049   6.904  17.315  14.962 -0.3083  0.3106  0.0805
 7526W        W25050   3.911  11.657  14.481  0.0166  0.1932  0.1757
 7527W        W25051  17.400  10.515  15.368  0.0291  0.0420 -0.3334
 7528W        W25052  11.823  12.417   4.302  0.0733 -0.0615  0.0920
 7529W        W25053  14.107   2.076  14.761 -0.0253 -0.0455  0.1575
 7530W        W25054   1.446   4.612   0.419 -0.3204  0.0032 -0.1993
 7531W        W25055  14.052   8.468  14.411  0.0276 -0.1600  0.2744
 7532W        W25056   6.411   4.912   1.703  0.2201  0.1329  0.1306
 7533W        W25057   3.169  12.553  14.923 -0.1063  0.0832  0.0185
 7534W        W25058   4.572   8.292   2.523 -0.3508  0.1497  0.1922
 7535W        W25059   3.894  17.670   0.080  0.0963 -0.1002 -0.2122
 7536W        W25060   3.026   5.345  11.096  0.2673  0.1046 -0.1413
 7537W        W25061   1.946   5.199  12.500  0.1059  0.0704  0.3086
 7538W        W25062  16.474   2.379   4.171 -0.0773  0.0624  0.0506
 7539W        W25063   3.973   6.057  12.395 -0.0302  0.0286 -0.0640
 7540W        W25064  16.589  16.350  12.015  0.0501 -0.0210 -0.0620
 7541W        W25065   7.844   7.125  13.845  0.2354  0.1179  0.0497
 7542W        W25066  17.104  16.203  15.198  0.0147 -0.0898 -0.2613
 7543W        W25067  14.154   4.592   0.374  0.1053 -0.0103 -0.2864
 7544W        W25068   9.671  12.790  11.717  0.0727 -0.1913 -0.0926
 7545W        W25069   1.753   2.879   0.969  0.1135  0.0959 -0.1082
 7546W        W25070   5.655  11.690   5.653  0.0766  0.0645 -0.0777
 7547W        W25071  16.515  12.574   2.426  0.1173 -0.2317  0.1801
 7548W        W25072   5.322  15.208   2.486  0.1149  0.0567 -0.1150
 7549W        W25073   9.038   8.952   3.112  0.0841 -0.1719 -0.0843
 7550W        W25074  12.329   8.663   4.380  0.2041  0.1257  0.1090
 7551W        W25075  13.061  16.245  11.658  0.2938 -0.0100 -0.2375
 7552W        W25076   3.683   1.914  13.795  0.4771  0.1651  0.1585
 7553W        W25077   7.380  12.943  13.768 -0.2275 -0.2392  0.4127
 7554W        W25078   7.637   1.897  15.759 -0.0801  0.1608  0.0355
 7555W        W25079  12.948  10.551   5.354 -0.3049 -0.1180  0.1606
 7556W        W25080   5.772  10.174  15.249 -0.0937  0.0320 -0.3130
 7557W        W25081  12.209   6.969   6.099  0.2366  0.0089 -0.0023
 7558W        W25082   6.340   3.108   2.526 -0.2896 -0.2290 -0.0787
 7559W        W25083   3.680  16.279  11.895 -0.3791  0.1010 -0.0386
 7560W        W25084   3.752   1.310  11.677 -0.2418 -0.3369 -0.2615
 7561W        W25085  15.679   7.649   5.049 -0.1272 -0.1650  0.0796
 7562W        W25086  13.945   3.581   2.800 -0.0551  0.2821 -0.2383
 7563W        W25087  14.906   3.128   3.124 -0.4421  0.0839  0.0603
 7564W        W25088   7.926  15.598   1.205  0.0244  0.1997  0.3412
 7565W        W25089  16.802  17.389  14.825  0.1257  0.0482  0.1240
 7566W        W25090  13.533  13.188  10.743 -0.1256  0.0667  0.2484
 7567W        W25091   5.667  16.938   2.623  0.0655  0.1041  0.0706
 7568W        W25092   8.665  14.193   0.803  0.0562  0.1273  0.0309
 7569W        W25093   5.806  10.246  10.809  0.1682 -0.2809 -0.1953
 7570W        W25094   2.054   4.232   0.731  0.1209 -0.2441  0.1655
 7571W        W25095   4.181  10.160   2.445  0.0887  0.2453  0.0933
 7572W        W25096  18.032   7.569  15.629  0.2212  0.0685 -0.1192
 7573W        W25097  17.882   8.533   5.347 -0.0437  0.0202  0.5867
 7574W        W25098   5.477  15.783  13.770  0.1310 -0.0719 -0.1297
 7575W        W25099   6.141   4.369   2.931 -0.0122  0.2447 -0.0006
 7576W        W25100   5.781   4.706   3.159 -0.1759  0.1658  0.0624
 7577W        W25101   3.661  10.230   4.094 -0.0606  0.2690 -0.1175
 7578W        W25102  17.924   2.890   0.634 -0.0522 -0.0264  0.1182
 7579W        W25103   6.756   2.454  12.867  0.1924  0.1077  0.3566
 7580W        W25104   7.976   9.836  14.769  0.1869  0.1800  0.3590
 7581W        W25105  16.103  15.533  11.636  0.0543 -0.3903  0.0255
 7582W        W25106   2.296  15.620   2.960 -0.1500  0.0543 -0.1201
 7583W        W25107  10.428   9.224   0.031  0.1296  0.2161 -0.0395
 7584W        W25108  11.194   5.002  13.162  0.2565 -0.3092 -0.0262
 7585W        W25109  10.738   6.662  11.338  0.1757  0.3121  0.0324
 7586W        W25110   1.049  17.931  13.477 -0.0405 -0.2350  0.0844
 7587W        W25111   2.701  17.305   0.114 -0.0373  0.1392  0.2772
 7588W        W25112  10.306  11.880   3.871 -0.0496 -0.2111 -0.1189
 7589W        W25113   7.807   2.504  14.656 -0.0530 -0.0976  0.2060
 7590W        W25114   3.883   5.623  14.898  0.2446  0.0366 -0.0463
 7591W        W25115   9.480  12.018  11.897 -0.1529  0.2274  0.2421
 7592W        W25116   2.782   9.001  12.003 -0.0642  0.1701 -0.1604
 7593W        W25117   0.042  15.748  14.384 -0.1189 -0.0794  0.0496
 7594W        W25118  14.075  15.835   5.164 -0.2718 -0.2925 -0.1711
 7595W        W25119  11.173   2.446  14.122 -0.0585  0.2641 -0.0565
 7596W        W25120   2.022   8.916   3.848 -0.3664  0.1303  0.2312
 7597W        W25121   0.327  10.113  12.112  0.0628  0.4022  0.1626
 7598W        W25122   5.274   1.629  14.066 -0.0493 -0.1868 -0.0751
 7599W        W25123  12.755   7.751  11.653 -0.0253 -0.0181 -0.0662
 7600W        W25124  16.835  14.696   2.962  0.0966 -0.1799  0.2549
 7601W        W25125   0.855   6.553  11.908  0.0969  0.1483 -0.0988
 7602W        W25126   9.247   4.925  11.731 -0.0121  0.0608  0.0181
 7603W        W25127   9.845  14.259   2.967  0.1665 -0.0050 -0.1352
 7604W        W25128   5.036   4.870  11.457 -0.3134  0.1409 -0.1866
 7605W        W25129   2.282   0.706  14.303  0.1160  0.0602  0.1394
 7606W        W25130  12.289  14.345   4.229  0.3211 -0.0225 -0.0472
 7607W        W25131   3.071   4.524  14.101 -0.1856 -0.2703 -0.0424
 7608W        W25132  10.865   0.153   1.424 -0.2838  0.0022  0.0818
 7609W        W25133   3.192  14.437  12.987  0.0741 -0.2779  0.0718
 7610W        W25134   6.075   7.823   4.955 -0.1524  0.2472 -0.0266
 7611W        W25135  10.634   7.378  15.189  0.2517  0.1818 -0.1401
 7612W        W25136  17.065  16.434  14.738 -0.0602  0.0271 -0.0560
 7613W        W25137  10.572   2.039  12.357  0.0888 -0.1584  0.1463
 7614W        W25138   7.243   3.501   0.116  0.1093  0.2050  0.0157
 7615W        W25139  11.972  15.428  13.669 -0.3896  0.0279  0.2837
 7616W        W25140   7.831   4.319  12.597  0.2728  0.0624 -0.3156
 7617W        W25141  16.751   2.545  13.007 -0.1686  0.2320  0.1864
 7618W        W25142   7.982   9.099  12.339 -0.2665  0.1301 -0.2914
 7619W        W25143  11.943  12.718  11.807  0.1826  0.1438  0.0632
 7620W        W25144   5.843  11.262   5.829  0.1133  0.1907 -0.1866
 7621W        W25145   9.585  15.711  11.445  0.0255 -0.0888  0.1504
 7622W        W25146   0.737  15.262   1.142 -0.1819  0.0432 -0.0467
 7623W        W25147   6.708  18.182   3.991  0.1192  0.0203 -0.0912
 7624W        W25148   8.782   4.775   4.769 -0.0399 -0.0115  0.0482
 7625W        W25149  10.034   3.120  12.753  0.0400 -0.0997 -0.1840
 7626W        W25150  13.367  10.558  15.075 -0.1099  0.0140  0.1477
 7627W        W25151  16.292   1.545  10.474  0.0154  0.2358 -0.3286
 7628W        W25152  15.240  12.901   2.220 -0.2385  0.1901  0.0975
 7629W        W25153  11.303  17.778  15.279 -0.1332 -0.1244 -0.0719
 7630W        W25154  11.515   8.815   3.016 -0.3451  0.2058 -0.3038
 7631W        W25155   3.017   1.724  14.869  0.1977 -0.0188  0.0218
 7632W        W25156   6.868  15.410   3.166 -0.0301  0.1360 -0.3613
 7633W        W25157   5.673   4.029  14.427  0.0729 -0.4242  0.1081
 7634W        W25158  15.286   4.089  11.750  0.0279  0.2316  0.0311
 7635W        W25159  13.514  12.701   3.925 -0.1617 -0.0784 -0.2686
 7636W        W25160   4.287   1.476  15.389 -0.0249 -0.2859 -0.0792
 7637W        W25161  12.052   7.269   4.625 -0.2793 -0.1206 -0.0365
 7638W        W25162  14.574   8.259  13.303  0.1110 -0.2309 -0.0005
 7639W        W25163  14.835   1.383  12.242 -0.0712 -0.0425 -0.0820
 7640W        W25164  10.002   1.550   1.631  0.1242 -0.0866 -0.0978
 7641W        W25165   8.314  12.077   4.020 -0.0051  0.0703 -0.1831
 7642W        W25166  13.417  17.367  12.040 -0.1281 -0.0400 -0.2507
 7643W        W25167   9.922  18.038   3.426 -0.0977  0.1033  0.0142
 7644W        W25168  14.486  11.908   0.407  0.4035 -0.1878 -0.0820
 7645W        W25169   4.966   9.569  11.502  0.0483  0.2062 -0.0720
 7646W        W25170   5.363  10.295   3.339 -0.0584 -0.1502  0.5239
 7647W        W25171  14.657  16.442   0.725  0.1633 -0.0362  0.1132
 7648W        W25172  15.506  16.071  12.659 -0.1095 -0.0333 -0.2382
 7649W        W25173   2.521   9.837   1.670  0.2652 -0.0114  0.0417
 7650W        W25174  10.628  10.095   3.108  0.2987 -0.0106  0.0359
 7651W        W25175   0.772  15.491   3.916 -0.0588  0.2065 -0.0502
 7652W        W25176  15.784  16.070   4.330  0.5555 -0.2102  0.2391
 7653W        W25177  14.636   6.576   0.849 -0.1285  0.2534  0.3304
 7654W        W25178  17.288   5.913   1.970 -0.0207  0.3709 -0.2839
 7655W        W25179   3.777  16.493   0.915  0.1559  0.1690  0.0515
 7656W        W25180  12.720   6.606  13.413  0.1696 -0.2495 -0.1943
 7657W        W25181   1.321  13.220  15.907 -0.2431  0.2407  0.1861
 7658W        W25182  15.121  16.441  15.791 -0.1075 -0.0702 -0.0022
 7659W        W25183   5.318   8.088   2.396 -0.0461 -0.0068  0.2814
 7660W        W25184   0.127  10.337   4.735 -0.1859 -0.2225 -0.0684
 7661W        W25185   7.126  17.875  12.564  0.1190 -0.3072  0.0110
 7662W        W25186  18.077  15.389  11.437 -0.0306 -0.1282 -0.3607
 7663W        W25187  11.878  11.846  12.486 -0.0117  0.1472 -0.0592
 7664W        W25188   9.926   6.020   0.953  0.1275 -0.1737  0.1816
 7665W        W25189  10.425   4.993   0.653 -0.2777  0.1147 -0.1832
 7666W        W25190   4.796  16.112   3.344 -0.0953 -0.1118  0.2342
 7667W        W25191   0.847  13.224   4.201  0.0010 -0.2423 -0.0283
 7668W        W25192   9.237   9.530   0.175 -0.0716 -0.0881  0.0392
 7669W        W25193  17.076  15.461   4.760 -0.2615 -0.1838 -0.2135
 7670W        W25194   2.633   3.502  12.367  0.0175  0.3047 -0.1932
 7671W        W25195   4.236  14.552  14.714 -0.0742 -0.1484 -0.2099
 7672W        W25196  16.916   7.478  12.448  0.1339  0.1649 -0.5491
 7673W        W25197  15.644   1.770   2.779  0.0792 -0.0997  0.4073
 7674W        W25198  13.114  17.131   0.920  0.1752  0.1681  0.1296
 7675W        W25199   1.848   6.425  12.885 -0.0872 -0.1205  0.3392
 7676W        W25200  14.057  17.898  15.369 -0.1308  0.0400 -0.0236
 7677W        W25201  10.296  17.052  12.070 -0.0817 -0.0197 -0.0964
 7678W        W25202  13.291   7.288  10.516  0.1203  0.0549  0.2707
 7679W        W25203   0.831  13.554   0.951  0.0449  0.1010 -0.3049
 7680W        W25204  15.496  11.167  14.698 -0.2579  0.2099  0.3539
 7681W        W25205   9.906   1.090   0.305 -0.2915  0.0168  0.1853
 7682W        W25206   6.781  17.899  11.253 -0.0183 -0.2341 -0.1871
 7683W        W25207   9.109   3.212   3.767 -0.1463 -0.3571 -0.1453
 7684W        W25208   2.804  11.916   1.371 -0.1819  0.0553 -0.2028
 7685W        W25209   5.593   7.939  14.745 -0.0200  0.1384  0.1604
 7686W        W25210   9.456  16.876  14.896 -0.1205 -0.2116  0.1074
 7687W        W25211   9.869  10.280  11.612 -0.2025  0.0822  0.2883
 7688W        W25212   4.660   1.792   2.735  0.0120  0.1968 -0.0670
 7689W        W25213   0.830  16.570   0.189 -0.1317  0.0021 -0.1514
 7690W        W25214  17.901   7.873  12.622  0.2653  0.0073 -0.4334
 7691W        W25215   9.602   1.608   3.811  0.0217  0.1199 -0.2518
 7692W        W25216   9.587   3.705   2.372 -0.0043 -0.0262 -0.3091
 7693W        W25217   1.399  14.245  12.566 -0.0129 -0.4010  0.0423
 7694W        W25218   4.328   0.200   3.973  0.2331  0.3314 -0.2115
 7695W        W25219   0.876  12.963  15.949  0.0110 -0.2152  0.0663
 7696W        W25220   0.304   9.104  15.345 -0.0487 -0.0927  0.1384
 7697W        W25221  16.666   5.176   2.860  0.1438 -0.2338 -0.1789
 7698W        W25222   7.318  12.653   2.818 -0.1572 -0.1088 -0.2407
 7699W        W25223   6.165  16.097   3.150 -0.1941  0.0452  0.1235
 7700W        W25224  12.976  13.216  12.069  0.1424 -0.4383  0.0480
 7701W        W25225   7.601   4.107  13.605  0.1515  0.3066 -0.1111
 7702W        W25226   0.622   4.530  12.253 -0.2734  0.2353  0.1712
 7703W        W25227  17.724   4.576   0.859 -0.0268 -0.0361  0.1125
 7704W        W25228   3.927   4.516   5.205 -0.0943  0.1369 -0.1528
 7705W        W25229  11.395  13.637   1.221 -0.0052 -0.1268  0.1363
 7706W        W25230   1.553   8.447  15.018  0.0542 -0.1111 -0.1103
 7707W        W25231  13.118  11.941   3.273  0.2200  0.0754 -0.1314
 7708W        W25232  16.456  10.531   4.183  0.2193 -0.1034 -0.0059
 7709W        W25233  14.183   9.648   4.766 -0.0618  0.0791  0.1928
 7710W        W25234   3.598   6.325  12.107 -0.3148  0.0737 -0.2268
 7711W        W25235   7.408   4.995  12.169  0.1238  0.1313 -0.1256
 7712W        W25236   9.726  11.797  14.514 -0.0633 -0.0527 -0.0725
 7713W        W25237  10.529  10.141   0.663  0.1576  0.1203 -0.1742
 7714W        W25238  11.757  15.684  14.276  0.2146  0.1360 -0.1057
 7715W        W25239   4.721   3.196  14.653  0.1018  0.0861  0.0679
 7716W        W25240  16.589   6.728  15.482  0.2338 -0.3054 -0.1424
 7717W        W25241   1.133   8.715   4.821 -0.2395  0.3768  0.0076
 7718W        W25242   2.336   4.586   4.484 -0.0806 -0.3599  0.0627
 7719W        W25243  14.257   6.411   4.140 -0.1556  0.2327 -0.1046
 7720W        W25244  17.722   3.550  15.571  0.1460 -0.0494 -0.0613
 7721W        W25245   7.692   5.926   1.108  0.0403 -0.0989  0.2416
 7722W        W25246  12.217  12.658  12.252  0.0432  0.1397 -0.0098
 7723W        W25247   9.892  13.787  13.017  0.0459 -0.0763 -0.0878
 7724W        W25248  16.757   4.744  12.730 -0.2505  0.0002  0.2293
 7725W        W25249  11.155   3.866   1.536  0.1525 -0.0572 -0.1293
 7726W        W25250   9.924  11.788   1.188 -0.2709  0.2047 -0.2866
 7727W        W25251  17.025  12.404   4.112  0.1442 -0.0657 -0.1428
 7728W        W25252   8.436   0.830   2.593  0.0743 -0.3912  0.0892
 7729W        W25253   0.831  17.372  14.971 -0.0042  0.2878  0.0493
 7730W        W25254   5.747   9.932  12.163  0.0015  0.1446 -0.3635
 7731W        W25255  16.052  12.782   2.472  0.0521  0.0930  0.0515
 7732W        W25256  16.966   2.792   0.895 -0.0065  0.2707  0.3627
 7733W        W25257   2.534   8.560   3.120  0.0130 -0.0045  0.3513
 7734W        W25258   1.941   6.102   5.689 -0.4468  0.5039 -0.0921
 7735W        W25259   5.410   2.702   4.197  0.1038 -0.1224  0.1570
 7736W        W25260   4.358   8.807   0.035  0.1151 -0.0329  0.1051
 7737W        W25261   9.862  16.473  15.764  0.1472 -0.0073 -0.0269
 7738W        W25262   0.133   8.539   1.213  0.0006 -0.1108 -0.0143
 7739W        W25263  18.157   5.994   3.344 -0.1309 -0.0551  0.2232
 7740W        W25264   2.776   8.439   0.237 -0.3461  0.1382 -0.1487
 7741W        W25265  12.264  17.019  11.757  0.1268  0.0698 -0.2517
 7742W        W25266   8.001   0.293  15.488  0.1882 -0.2596 -0.1106
 7743W        W25267  11.641   6.845   4.966 -0.0366  0.1381  0.1044
 7744W        W25268   1.919  16.559   5.904  0.1812 -0.0590  0.0586
 7745W        W25269  13.655  12.687  12.267  0.0866 -0.1037  0.0128
 7746W        W25270  15.687   3.391   2.706  0.1319  0.2262  0.0145
 7747W        W25271   9.027  11.434  14.544 -0.0417 -0.2069  0.2218
 7748W        W25272   3.215   8.377   3.657 -0.2265 -0.1071 -0.0563
 7749W        W25273   4.732  10.288  10.977  0.0327  0.1274  0.0281
 7750W        W25274   5.025  14.694   4.819 -0.3584  0.0268 -0.1911
 7751W        W25275   3.840   8.934  15.829  0.3233 -0.1574 -0.0104
 7752W        W25276   8.209  12.695   3.333 -0.1819 -0.1172  0.0906
 7753W        W25277  14.434   4.647   2.518 -0.2210  0.3661  0.0757
 7754W        W25278   6.396   3.658  13.898  0.1021 -0.0371  0.0704
 7755W        W25279  17.479  12.848  15.312 -0.1543  0.0777  0.0989
 7756W        W25280   8.218  10.929  12.623  0.1382  0.0772 -0.3914
 7757W        W25281  11.104   7.117   1.257 -0.1815  0.2500  0.0267
 7758W        W25282  11.521   2.295  15.034  0.0512  0.0847  0.0412
 7759W        W25283   3.473   4.724   1.744  0.1763 -0.0730 -0.0978
 7760W        W25284  14.073  17.498  13.529  0.2731 -0.2214 -0.0229
 7761W        W25285   9.858   3.812  13.469  0.0224 -0.1484  0.2986
 7762W        W25286   0.006  10.774   1.862  0.1573 -0.1021  0.2366
 7763W        W25287  10.293  12.207  12.537 -0.0280 -0.3234  0.0568
 7764W        W25288   8.229  10.084   5.678 -0.4365 -0.0407 -0.0187
 7765W        W25289   8.298  13.441  11.350  0.0174  0.1907 -0.0377
 7766W        W25290  17.148   1.544  13.035 -0.2222  0.0698  0.0515
 7767W        W25291  12.329  12.951  15.509  0.1908 -0.2178 -0.0122
 7768W        W25292   3.907  17.160   3.927 -0.4220 -0.0917  0.0531
 7769W        W25293  12.603  15.904   2.293 -0.1391 -0.2031  0.0251
 7770W        W25294  10.828  13.332  13.631  0.4246 -0.0447  0.0218
 7771W        W25295   1.547  15.473  11.200 -0.0949 -0.2468 -0.2557
 7772W        W25296  15.382   9.835  14.931 -0.1206 -0.0763  0.0837
 7773W        W25297   2.906  12.348   1.124 -0.0773  0.2396 -0.0835
 7774W        W25298   5.658   4.413  12.080 -0.1381 -0.0721  0.1158
 7775W        W25299  11.140   5.257   1.054 -0.0621 -0.0805  0.2847
 7776W        W25300   6.625  11.182   3.992 -0.0659  0.1587  0.0713
 7777W        W25301  14.305   7.411  15.033 -0.2421  0.0026  0.1813
 7778W        W25302  15.258   1.883   2.319  0.1192 -0.2635  0.0347
 7779W        W25303   9.342   2.750   0.531 -0.0528  0.0957  0.0802
 7780W        W25304  13.039   1.788   4.391  0.0315  0.1362 -0.1350
 7781W        W25305  17.499  17.510   4.107  0.1125  0.0543 -0.2400
 7782W        W25306   9.728  14.822  11.516  0.0555 -0.1157  0.1365
 7783W        W25307   9.138   9.444   1.470 -0.0745 -0.0873  0.0666
 7784W        W25308  12.381   0.337   1.135 -0.2007  0.5317  0.1696
 7785W        W25309  17.526   6.469  15.283  0.0182 -0.1548  0.0386
 7786W        W25310   4.910   4.850   1.607  0.0021 -0.0597  0.0032
 7787W        W25311   7.387   5.287  11.710  0.2361 -0.2698  0.0650
 7788W        W25312  10.467  12.547   0.627  0.0419 -0.0399  0.0286
 7789W        W25313  10.326   9.421  11.556 -0.0127 -0.1124 -0.1199
 7790W        W25314   9.256   2.797   4.045  0.0273  0.1792 -0.1791
 7791W        W25315   0.285   4.546  10.564  0.1125  0.3298 -0.0228
 7792W        W25316   6.640  10.609   5.497  0.5033 -0.0386 -0.1189
 7793W        W25317  18.185  16.398   4.367  0.0228  0.0494  0.2852
 7794W        W25318   9.966  12.168  13.526 -0.2127  0.1371 -0.4353
 7795W        W25319   8.393  15.086   0.389 -0.0265  0.0137  0.0308
 7796W        W25320   4.375  16.765   3.149  0.0268 -0.3217 -0.1437
 7797W        W25321  16.777   4.337   3.963 -0.2676 -0.1523 -0.2090
 7798W        W25322  16.062   8.559   2.912  0.0992  0.1630  0.0850
 7799W        W25323   6.309  12.062   1.272  0.0049 -0.2227  0.1649
 7800W        W25324  13.355   1.280   5.023  0.0498 -0.0266 -0.1965
 7801W        W25325   2.407  12.115  11.077 -0.3055  0.0394  0.0276
 7802W        W25326  18.044   7.451   2.066  0.0301  0.0321  0.1961
 7803W        W25327   9.967  10.768   2.744  0.1703  0.0426  0.1515
 7804W        W25328   6.011   1.539  12.644  0.0059 -0.1972  0.0835
 7805W        W25329   9.222  15.721   1.142  0.1028 -0.0767  0.1514
 7806W        W25330   1.015   8.990  11.972 -0.2841  0.2035 -0.1673
 7807W        W25331   7.430   7.414   2.032  0.3264  0.1482 -0.4643
 7808W        W25332  12.943  13.275   4.273 -0.1443 -0.0675 -0.0039
 7809W        W25333  14.748   2.037  12.191  0.1198 -0.2564 -0.3587
 7810W        W25334  12.993  16.734  11.576 -0.0516 -0.1946  0.0700
 7811W        W25335  16.521   4.851   4.912 -0.0964  0.0193 -0.0257
 7812W        W25336  11.468  14.241   6.114  0.0524 -0.2408 -0.1037
 7813W        W25337  17.391  10.279   0.331 -0.0046 -0.2346 -0.2280
 7814W        W25338   4.044  16.980   1.315 -0.0464 -0.1105  0.2260
 7815W        W25339   4.152  10.220   1.158 -0.1004 -0.2004  0.1497
 7816W        W25340  17.955  17.945   5.108 -0.3862  0.1549  0.0545
 7817W        W25341  13.662   6.757   0.463 -0.1153  0.0654  0.2379
 7818W        W25342   6.356   6.850   3.149  0.1194  0.1178 -0.0902
 7819W        W25343  12.175   7.747   4.872  0.0445  0.0395 -0.1058
 7820W        W25344   8.255  12.353  12.559 -0.2056 -0.1745 -0.0802
 7821W        W25345  15.622  11.868   0.102 -0.3879  0.0663  0.1884
 7822W        W25346   7.599  14.005  11.534 -0.0896 -0.0271 -0.1860
 7823W        W25347   8.541   9.153   3.907  0.0011  0.3573 -0.1299
 7824W        W25348   5.815   7.990   3.259 -0.1847  0.0050  0.0263
 7825W        W25349  14.411  10.653   3.102  0.1002 -0.3103  0.0837
 7826W        W25350   9.479   6.180   2.489  0.2195  0.0279  0.0986
 7827W        W25351   4.398  11.391   4.421  0.0636 -0.0799 -0.1071
 7828W        W25352  10.871   8.821  15.232 -0.2020 -0.0803  0.0997
 7829W        W25353  12.948   6.466   0.726 -0.1918  0.1957 -0.3133
 7830W        W25354   8.716   5.574   5.148 -0.0692  0.1144 -0.1905
 7831W        W25355  16.646  15.205   3.492 -0.0595 -0.2678 -0.2729
 7832W        W25356  11.418  10.511  12.681  0.5059 -0.0687 -0.2604
 7833W        W25357  13.076   1.426   3.132 -0.2183 -0.0613 -0.2366
 7834W        W25358   2.701   2.884  12.033  0.1012 -0.0900  0.0233
 7835W        W25359   1.501  14.288  13.805 -0.0037 -0.0836 -0.1925
 7836W        W25360   7.881  16.453  16.026  0.3389 -0.1288  0.0225
 7837W        W25361  10.956  16.538  11.503 -0.2118 -0.1799  0.0349
 7838W        W25362   3.431  15.360   4.026 -0.0775  0.1651  0.0663
 7839W        W25363   3.184   0.077   3.077  0.0573  0.1870 -0.0010
 7840W        W25364  15.424  13.077   4.714 -0.2582  0.1089 -0.1345
 7841W        W25365  16.986   5.001  12.145 -0.1667  0.0939  0.1212
 7842W        W25366  17.829   0.936   5.083 -0.1382  0.1116 -0.2045
 7843W        W25367   2.815   9.473  13.840  0.1563 -0.0059  0.0140
 7844W        W25368  11.779   7.950  10.593 -0.0004 -0.2498 -0.0923
 7845W        W25369   5.217   4.967  13.483  0.0332 -0.0880 -0.2261
 7846W        W25370  10.298  17.153   0.156 -0.0163  0.3871 -0.0612
 7847W        W25371   3.775   8.946  12.925 -0.2190  0.2306  0.1466
 7848W        W25372   8.811   6.070  10.416  0.1723 -0.0284  0.0678
 7849W        W25373   5.759   9.454   1.573  0.0120 -0.2381  0.1031
 7850W        W25374   0.320  13.286   0.789  0.2259  0.0471 -0.2225
 7851W        W25375  11.814  15.255   0.674  0.2245 -0.2287 -0.2047
 7852W        W25376  17.321  13.269   1.406 -0.1591 -0.1488  0.3486
 7853W        W25377   1.213   9.977  13.831  0.1027 -0.1239  0.1183
 7854W        W25378   9.728  15.073  14.184 -0.1055  0.1114 -0.1235
 7855W        W25379  10.459   8.693   2.524 -0.0372  0.0225  0.2281
 7856W        W25380   4.720   7.786   9.874  0.0041 -0.1356  0.4500
 7857W        W25381   9.840   9.762   0.570 -0.3107 -0.5860 -0.2636
 7858W        W25382   1.045   2.632  15.618 -0.0958  0.2133 -0.4548
 7859W        W25383  12.827  15.608  16.061 -0.0089 -0.1288  0.5002
 7860W        W25384  12.008  16.285   1.188  0.2350 -0.0369 -0.1018
 7861W        W25385   1.207   5.432  12.847  0.3056  0.0707  0.1830
 7862W        W25386   4.301   4.539  13.981  0.1973 -0.1252 -0.1509
 7863W        W25387  13.021   4.504   4.501 -0.1178  0.0372 -0.0883
 7864W        W25388  17.091   8.035   2.397  0.2052  0.0147 -0.2362
 7865W        W25389  11.102   1.095   0.051 -0.4535  0.0088 -0.0192
 7866W        W25390  16.572   0.264  14.521 -0.1079 -0.0769 -0.1150
 7867W        W25391  12.045  13.905   0.249 -0.1272 -0.3459  0.2205
 7868W        W25392   6.048  14.326   2.253  0.1255  0.1652 -0.1094
 7869W        W25393  10.651   1.921   2.193  0.1213  0.0346 -0.0010
 7870W        W25394   1.877   1.820  13.773 -0.1617  0.0496 -0.1955
 7871W        W25395  18.052   2.996  13.625 -0.0558  0.1287  0.1996
 7872W        W25396  13.392   1.769  13.589 -0.1431 -0.1309  0.0215
 7873W        W25397  16.339  13.204   3.221  0.0500  0.0629  0.2620
 7874W        W25398   6.783   0.800   4.604  0.0168 -0.0322  0.0957
 7875W        W25399  16.534   0.282   3.630 -0.0608  0.0826  0.1150
 7876W        W25400   4.979   9.934  14.534  0.2108 -0.0701  0.2718
 7877W        W25401  12.659  11.354   2.732 -0.1485  0.0542 -0.2917
 7878W        W25402  14.103  11.177   6.321 -0.2567  0.2324  0.1047
 7879W        W25403   4.623  10.706   1.924 -0.2061  0.0254  0.0074
 7880W        W25404   6.525   5.839  14.364 -0.1441  0.0509  0.1018
 7881W        W25405   7.066   7.379  12.098 -0.0618  0.1797  0.1780
 7882W        W25406  12.073   5.926   1.706 -0.0654  0.1388 -0.1914
 7883W        W25407  16.540  11.814   0.632 -0.0703 -0.0003  0.1212
 7884W        W25408   1.316  14.286   0.408  0.2625 -0.0451 -0.1496
 7885W        W25409   9.101  10.409   4.604  0.0663 -0.2614 -0.0301
 7886W        W25410  10.327   9.431   5.559 -0.0670 -0.1143  0.2635
 7887W        W25411   6.401  15.869   2.607  0.0785  0.0651 -0.1605
 7888W        W25412   5.410   7.009   2.328  0.4833 -0.2229  0.0723
 7889W        W25413   5.326  10.674   0.955 -0.2311 -0.1973  0.1789
 7890W        W25414  12.633   5.364   1.684  0.0134 -0.0842  0.0150
 7891W        W25415   4.697   5.219  11.738 -0.0746  0.1120 -0.0583
 7892W        W25416   0.089  13.051  12.763  0.0367 -0.1403 -0.1447
 7893W        W25417   8.316  16.503   1.767 -0.2046  0.1816 -0.1061
 7894W        W25418  16.372  10.439   0.706 -0.2138  0.0012  0.1504
 7895W        W25419   2.524  13.255   0.696  0.0805 -0.0713  0.0662
 7896W        W25420  13.763   4.496  15.390  0.2443  0.1526 -0.0373
 7897W        W25421  10.646   1.330   4.244  0.2365 -0.2288 -0.3362
 7898W        W25422   0.896  11.895  12.689 -0.0054  0.2477 -0.0720
 7899W        W25423   2.459   5.284   0.430 -0.0455 -0.0520 -0.0368
 7900W        W25424  15.266   3.293  13.004  0.3275 -0.3543  0.1487
 7901W        W25425  13.737   7.181  11.881 -0.0320 -0.0488 -0.1057
 7902W        W25426   5.094  16.793   1.502  0.2204 -0.0083  0.3051
 7903W        W25427   2.456   6.714  15.022  0.1696 -0.2090  0.0101
 7904W        W25428  16.318  11.117  12.469 -0.2921  0.0427 -0.4817
 7905W        W25429   9.862  12.380  14.706 -0.0235  0.1168 -0.1625
 7906W        W25430  17.523   4.365  13.200  0.0639  0.1566  0.0066
 7907W        W25431  13.733   3.118   2.914  0.1065 -0.0581  0.0765
 7908W        W25432   9.239   6.610   3.636 -0.0401  0.2136 -0.0631
 7909W        W25433  16.589  14.266   3.025  0.0207 -0.1540  0.2314
 7910W        W25434   1.199   0.725   4.354 -0.0712 -0.4532  0.1106
 7911W        W25435   6.709   4.388   1.009 -0.0133 -0.1037 -0.0545
 7912W        W25436  13.827  13.914   2.383 -0.1602  0.0898  0.0123
 7913W        W25437  11.793  10.372  10.373 -0.0167 -0.0927 -0.1015
 7914W        W25438   7.212   0.427   0.759  0.2550  0.0827  0.0316
 7915W        W25439   1.650   3.149  13.897  0.0092  0.2113  0.0044
 7916W        W25440  11.547  12.102   6.478 -0.0206  0.3194  0.0777
 7917W        W25441   6.942   0.040  13.905 -0.0433 -0.0180  0.0845
 7918W        W25442   5.817   5.569   4.889 -0.1135 -0.0301  0.0074
 7919W        W25443   9.658   6.078  15.201  0.1051 -0.0032  0.1250
 7920W        W25444   3.594  11.776   0.972  0.0013 -0.1969  0.0322
 7921W        W25445   3.445   4.510   2.518 -0.0856 -0.0642 -0.0157
 7922W        W25446  14.185  16.583  15.837 -0.1953  0.0335 -0.0200
 7923W        W25447   4.730   1.384  14.046  0.2761  0.1177 -0.1663
 7924W        W25448  16.618  14.644   3.473  0.0417 -0.2640 -0.2669
 7925W        W25449  10.763  14.458  15.697  0.3174  0.0191 -0.0933
 7926W        W25450   1.427  14.266   3.697 -0.2521  0.2083  0.1491
 7927W        W25451   0.280   7.158   2.904 -0.0711  0.1511  0.1395
 7928W        W25452   0.803   8.971  15.434  0.2733  0.2753  0.1199
 7929W        W25453  14.074   8.171   0.086 -0.0861 -0.0577  0.0502
 7930W        W25454  10.077   8.802   1.875 -0.2494  0.1652 -0.3291
 7931W        W25455  17.649  10.858  12.767  0.0818  0.2105 -0.0706
 7932W        W25456  13.644   3.704   0.561  0.2310 -0.1324 -0.1212
 7933W        W25457  17.879  10.509  15.000 -0.2944 -0.2706 -0.1076
 7934W        W25458   7.954   3.037  16.083  0.0353  0.1501  0.1476
 7935W        W25459   6.220   3.988  13.543 -0.0159  0.0962  0.1891
 7936W        W25460   3.333   5.935  15.816 -0.0385 -0.1230 -0.1632
 7937W        W25461  11.738   9.025  15.774  0.3354  0.1805 -0.0014
 7938W        W25462  12.893  15.013  14.951  0.4643 -0.0533  0.0063
 7939W        W25463   1.723   8.585   3.393  0.2435 -0.1426 -0.0189
 7940W        W25464   0.231   2.780  12.471  0.0661 -0.2154  0.2420
 7941W        W25465   6.021   2.284  15.538  0.1624  0.1645 -0.1034
 7942W        W25466   3.341   9.663   5.530  0.0460  0.1045  0.3197
 7943W        W25467  13.434   7.641   0.148  0.0261  0.2007  0.3590
 7944W        W25468   4.055  17.927   2.633  0.0193 -0.1758 -0.1114
 7945W        W25469   1.650   0.328   4.599  0.1098  0.0315  0.1554
 7946W        W25470   8.635  14.432   5.669  0.1375 -0.0582  0.4173
 7947W        W25471   9.435  17.048   4.773  0.1258 -0.0158  0.4536
 7948W        W25472   1.182   9.681   3.265  0.1352  0.1928 -0.2572
 7949W        W25473  12.102   1.577   1.036 -0.0750 -0.0132  0.3214
 7950W        W25474  13.326  13.353  14.068 -0.0279  0.1058 -0.0258
 7951W        W25475   6.337   0.414   2.826 -0.0460 -0.1708  0.1371
 7952W        W25476   9.566   3.671   1.540  0.3255  0.2909  0.3228
 7953W        W25477   7.284  15.800  15.039 -0.0558 -0.1284 -0.2172
 7954W        W25478   4.407  12.378  12.788 -0.1258 -0.1828  0.0650
 7955W        W25479   4.174  11.638  15.397  0.3378 -0.1078 -0.0835
 7956W        W25480   2.597   2.480  13.359  0.0031 -0.2174  0.1760
 7957W        W25481   3.812   8.703   2.007  0.2412 -0.0647  0.1773
 7958W        W25482  17.698   6.159   2.381  0.1251  0.2627 -0.0544
 7959W        W25483   1.141  12.870  14.807 -0.2649 -0.2008  0.3233
 7960W        W25484  10.803   9.281  14.447 -0.1447 -0.0675 -0.0346
 7961W        W25485  14.746   6.158   1.107  0.4231 -0.0666  0.0021
 7962W        W25486  11.603  13.105   3.066  0.1133 -0.4109 -0.0102
 7963W        W25487  16.669  16.210   5.783 -0.0812 -0.1287 -0.0815
 7964W        W25488   8.040  17.132   2.279 -0.2075 -0.0933  0.3371
 7965W        W25489  12.569   1.533   2.048  0.2711 -0.2049  0.0444
 7966W        W25490   1.507  16.012   3.560 -0.1567 -0.1800  0.0578
 7967W        W25491   0.931   2.564  12.262 -0.1010  0.0416 -0.0871
 7968W        W25492  13.656  17.620  15.122  0.4266  0.0572 -0.0271
 7969W        W25493   9.320   2.600   0.065  0.0140  0.0373 -0.0207
 7970W        W25494   9.615   1.692   4.459  0.0739  0.2930  0.0428
 7971W        W25495   0.760  13.692  11.465 -0.2202 -0.0548  0.2157
 7972W        W25496  17.701   5.035   3.776  0.5768 -0.0113  0.4229
 7973W        W25497   1.975   3.360  15.770  0.1162  0.1009 -0.0916
 7974W        W25498  10.999  13.677   3.401  0.4025 -0.1519 -0.2411
 7975W        W25499   8.684  11.577   1.203  0.1051  0.0543 -0.2195
 7976W        W25500   9.290   9.045   5.045 -0.0987 -0.0402  0.0461
 7977W        W25501  10.372  10.006  14.513 -0.1777 -0.1359  0.0102
 7978W        W25502   2.055   0.222  14.230  0.0216  0.1991  0.0840
 7979W        W25503  13.058   6.079  14.819 -0.1491  0.0143  0.1748
 7980W        W25504  15.889   3.458  12.150  0.1683 -0.0523 -0.1462
 7981W        W25505  13.969  18.053  14.815  0.0895 -0.1038 -0.0713
 7982W        W25506   4.349  17.632  14.385 -0.0171 -0.0928 -0.1026
 7983W        W25507   9.774  13.236  15.676 -0.1436 -0.0172  0.0534
 7984W        W25508   3.162  15.928  13.637  0.2151  0.0444  0.3020
 7985W        W25509   9.637   2.087  14.738 -0.2218 -0.0258  0.0565
 7986W        W25510   2.812   5.757   2.435  0.2992  0.0029 -0.1380
 7987W        W25511  12.338  12.455   0.626 -0.0830  0.3141  0.2607
 7988W        W25512   7.285   3.785  11.885 -0.0925  0.1878  0.2323
 7989W        W25513  14.857   8.124  14.355  0.1539 -0.0837  0.3153
 7990W        W25514  11.718   6.998  13.809 -0.1868 -0.0469  0.3138
 7991W        W25515   2.272  10.634   2.857  0.3003  0.0882  0.0483
 7992W        W25516  14.175  11.276   4.468  0.2585  0.0875  0.1003
 7993W        W25517   9.309   1.029   2.612  0.1255  0.1797 -0.2800
 7994W        W25518   5.809  10.215   4.288  0.1669 -0.1711 -0.0851
 7995W        W25519   5.772   8.695   3.540 -0.1764 -0.1297 -0.2902
 7996W        W25520   9.280  12.063  15.969  0.3745  0.0202  0.0317
 7997W        W25521   1.033  10.874   0.317  0.1962 -0.3399  0.2007
 7998W        W25522  12.265  10.340   1.339  0.3155 -0.2315 -0.1006
 7999W        W25523   7.651  13.811   1.429 -0.0351  0.3796  0.1438
 8000W        W25524   3.621   5.967  12.731 -0.2248 -0.0349  0.2411
 8001W        W25525  10.197   8.898  13.456 -0.0539  0.1372  0.0430
 8002W        W25526   3.202  12.098  11.776 -0.2283 -0.0379  0.0388
 8003W        W25527   5.616   5.343  15.744  0.0239  0.0083  0.1010
 8004W        W25528   4.071   6.931  13.863  0.1085 -0.1847  0.2449
 8005W        W25529  12.901   9.400   5.230  0.0913 -0.1368  0.1617
 8006W        W25530   1.427  16.151  13.663 -0.0067  0.1425 -0.1544
 8007W        W25531   1.444   0.424  12.877 -0.0221 -0.0687  0.1665
 8008W        W25532   1.773   9.731  15.795 -0.1078  0.0697 -0.0681
 8009W        W25533   1.651  11.874  13.687 -0.0241 -0.1543 -0.0510
 8010W        W25534   1.001  12.655  15.279  0.2166 -0.0549  0.3267
 8011W        W25535  10.352  15.653   1.825 -0.0743  0.2522  0.0816
 8012W        W25536   6.049   1.447  12.147  0.2035 -0.0474 -0.1878
 8013W        W25537   0.575  17.685  12.972  0.0459 -0.1392  0.0317
 8014W        W25538   3.825  16.376  12.948 -0.1248 -0.0609 -0.2165
 8015W        W25539   5.963   8.528  12.348  0.1223 -0.4093  0.2113
 8016W        W25540   7.012  14.540  11.919  0.1931 -0.0430  0.0995
 8017W        W25541   8.609  13.652   0.393  0.1349 -0.1244 -0.3003
 8018W        W25542   2.716   8.233  15.556 -0.2286  0.1267 -0.2302
 8019W        W25543   3.171   0.989   0.028  0.1271 -0.1901 -0.1133
 8020W        W25544   9.477  14.203  13.823 -0.0047  0.0487 -0.3149
 8021W        W25545  14.777  13.775  13.272 -0.0880  0.0616 -0.1201
 8022W        W25546  10.065   8.094  12.115  0.1230 -0.4004 -0.1495
 8023W        W25547  12.662   7.252   0.560 -0.1446 -0.0820  0.1817
 8024W        W25548  11.716   1.154   2.528 -0.1138 -0.2997 -0.1746
 8025W        W25549   3.845  16.546   3.158 -0.1853 -0.4625  0.2002
 8026W        W25550   9.340   8.514   3.564 -0.0884 -0.0060  0.0949
 8027W        W25551   7.190   3.467   3.802  0.2601  0.0287  0.2005
 8028W        W25552   6.257   7.171   4.888  0.0652  0.1612  0.1786
 8029W        W25553   7.765  10.729  11.296  0.0897 -0.3279  0.1119
 8030W        W25554   5.716   8.388   4.322 -0.2382 -0.2397 -0.1643
 8031W        W25555   3.543   0.222  11.069  0.2063  0.0107  0.3747
 8032W        W25556  12.998   7.959  15.008 -0.1671 -0.2150  0.0394
 8033W        W25557  16.312   7.117   2.712 -0.1824  0.1329  0.1351
 8034W        W25558   7.268   7.381   2.874 -0.0572 -0.2099  0.2017
 8035W        W25559   2.407   6.079  11.501  0.1507  0.1346 -0.0957
 8036W        W25560  13.490  10.760   0.063 -0.0530 -0.2380  0.1714
 8037W        W25561   8.658  16.876   3.827 -0.1919 -0.3432 -0.1577
 8038W        W25562   6.748   4.133   2.062 -0.1862  0.0016 -0.2051
 8039W        W25563  16.560   5.399   1.848 -0.0290  0.0805  0.1750
 8040W        W25564   8.447   9.209   0.499  0.1413  0.1034  0.2538
 8041W        W25565   2.355  17.910   0.003  0.1979 -0.0967  0.0657
 8042W        W25566  11.726  15.354  12.104 -0.2612 -0.3277 -0.0335
 8043W        W25567  10.563   0.053  15.508 -0.0208 -0.2230 -0.0742
 8044W        W25568   2.786   5.842   5.419 -0.1673  0.0106  0.0999
 8045W        W25569   7.224  15.868  13.420  0.1539  0.0219  0.1392
 8046W        W25570   0.243  10.631   4.246  0.1402 -0.0529  0.1553
 8047W        W25571   4.506   4.371  11.351 -0.2281  0.1481 -0.0532
 8048W        W25572  17.177   8.506   2.298 -0.1513 -0.0339  0.1926
 8049W        W25573  13.788  12.892  14.687 -0.0479 -0.4274 -0.0154
 8050W        W25574  17.647  15.942   3.726 -0.0671  0.1600  0.2988
 8051W        W25575  17.350   5.256   1.419  0.1584  0.0905  0.2117
 8052W        W25576   2.676   3.822  11.990  0.3235  0.1859  0.1956
 8053W        W25577   0.683  17.699   0.048  0.3243  0.0172  0.1284
 8054W        W25578  13.841  16.029   3.766 -0.2024 -0.0656 -0.0308
 8055W        W25579  16.703  14.880  13.339 -0.0466  0.1222 -0.1219
 8056W        W25580  14.188  13.658  15.666  0.1284  0.2404 -0.0615
 8057W        W25581   8.078  13.672   1.769  0.1188  0.1023  0.2152
 8058W        W25582   8.004  13.824  11.352 -0.3364  0.1809 -0.1271
 8059W        W25583   5.417   4.913  15.395  0.0653  0.2443 -0.0620
 8060W        W25584  12.669   0.779   3.456  0.0602 -0.0856  0.0760
 8061W        W25585   2.016   6.197  14.208  0.2603  0.2748  0.0495
 8062W        W25586  11.703  16.426   2.282  0.0340 -0.1461 -0.2306
 8063W        W25587   4.302   3.830   1.002 -0.0383 -0.1962  0.2132
 8064W        W25588  15.731  14.011  12.802 -0.1436  0.1721  0.2728
 8065W        W25589  10.613  12.540  11.352  0.1137 -0.0112 -0.1222
 8066W        W25590  12.198  10.840   1.264 -0.0606  0.0094 -0.1000
 8067W        W25591  15.853   6.330   2.460 -0.3024 -0.1797  0.5777
 8068W        W25592   2.858  10.036  13.976 -0.1546 -0.2070 -0.0472
 8069W        W25593   1.987   5.110  11.437 -0.1083 -0.1923 -0.1947
 8070W        W25594  12.799   0.995   0.415 -0.0310 -0.0406  0.0661
 8071W        W25595   6.446   6.168  11.707 -0.1793 -0.1401 -0.1505
 8072W        W25596   5.819  12.757  13.212 -0.3715 -0.0937  0.2250
 8073W        W25597   9.479   6.826  13.324 -0.1898 -0.0732  0.2063
 8074W        W25598  10.649   6.171   1.740  0.1716  0.1792  0.0270
 8075W        W25599   1.583   7.042  15.332 -0.4158 -0.2287  0.2794
 8076W        W25600   3.462  10.218  10.635 -0.1997 -0.2698  0.0917
 8077W        W25601  16.000   1.919  15.859  0.1378 -0.1963 -0.2027
 8078W        W25602   5.810   8.853   4.371 -0.1226 -0.2047 -0.3025
 8079W        W25603  11.254  12.344   5.219  0.1123  0.2737  0.6663
 8080W        W25604  17.256  17.259   3.059  0.2135  0.0075 -0.3197
 8081W        W25605   6.576  16.060   1.014  0.0098  0.2346  0.2024
 8082W        W25606  12.794   0.954  12.762  0.2966  0.0810  0.0115
 8083W        W25607   1.336  12.714   2.046 -0.3132 -0.1217  0.0560
 8084W        W25608   2.060  12.688   5.305  0.1569 -0.1078 -0.1240
 8085W        W25609   4.319   3.966  12.247  0.4459 -0.3275 -0.0302
 8086W        W25610  16.338   5.669  13.636 -0.2326  0.1185 -0.2539
 8087W        W25611   1.755  18.006   1.973  0.0375  0.0842 -0.0620
 8088W        W25612   9.299  14.492   0.337 -0.0359  0.3343 -0.1020
 8089W        W25613   0.281  15.558   4.791  0.0908 -0.2383 -0.0965
 8090W        W25614   8.367  13.921   0.104 -0.0930  0.1763 -0.0165
 8091W        W25615  14.445   4.120   4.783 -0.3779 -0.0284 -0.2568
 8092W        W25616   2.150   2.841  14.117  0.2131 -0.0564  0.1780
 8093W        W25617   0.547   3.181   0.207 -0.0446 -0.0592  0.0814
 8094W        W25618  14.913   0.516   4.457  0.1663 -0.2272 -0.1703
 8095W        W25619   2.178  14.108  13.221  0.1146  0.1965  0.3219
 8096W        W25620  11.728  14.273   0.145 -0.0224 -0.1640 -0.0544
 8097W        W25621   0.439   4.093  12.044 -0.0834 -0.0982 -0.1608
 8098W        W25622  10.485   7.512  14.127  0.0145  0.3523 -0.2314
 8099W        W25623   2.348   9.370   5.352 -0.0969 -0.0154  0.0407
 8100W        W25624   5.003  12.153   2.406 -0.2966 -0.1809 -0.4187
 8101W        W25625   8.322   3.121   5.684  0.2088 -0.1597 -0.1452
 8102W        W25626   7.919  12.438   2.634 -0.1382  0.2244 -0.2199
 8103W        W25627   9.494   2.116  12.936 -0.0315  0.0692 -0.0261
 8104W        W25628   5.269  15.754  14.193 -0.0717  0.1131  0.1387
 8105W        W25629  17.199  17.212  13.834 -0.1411 -0.0199  0.0165
 8106W        W25630   6.340   8.777   4.274 -0.1504 -0.0326 -0.2639
 8107W        W25631   1.994   7.838  12.102  0.0185  0.0875  0.1618
 8108W        W25632   3.892  16.645  16.029  0.1545  0.1620 -0.0944
 8109W        W25633  16.333   4.494   1.027  0.1823  0.1973  0.0090
 8110W        W25634   4.196  17.520   4.115 -0.0328 -0.1186  0.0255
 8111W        W25635   3.588   6.629   3.745 -0.0739 -0.0998 -0.4182
 8112W        W25636  13.677   4.279  14.798 -0.2157  0.2367  0.2008
 8113W        W25637  17.209   2.224   4.125 -0.1636  0.0753 -0.1367
 8114W        W25638   3.325  16.364   1.157 -0.2328 -0.0087  0.0243
 8115W        W25639  15.921   4.178   1.303  0.0172 -0.1352 -0.0550
 8116W        W25640  10.225  15.517   1.323  0.3915  0.0104  0.2277
 8117W        W25641  17.680  14.129  12.861 -0.2347  0.0239  0.2177
 8118W        W25642   5.275   3.341  15.833  0.1814 -0.1912  0.2429
 8119W        W25643  18.087  14.367   1.366  0.1064  0.0853  0.0314
 8120W        W25644   1.309   9.618  11.344  0.0127  0.1542 -0.0478
 8121W        W25645  14.346  13.276   2.377  0.2950  0.0425  0.0548
 8122W        W25646   0.693   4.461   1.982  0.1902 -0.0012  0.2017
 8123W        W25647   5.143  14.217   1.728 -0.1742  0.1632  0.0874
 8124W        W25648  11.748   8.083   4.945 -0.0755 -0.1841 -0.1391
 8125W        W25649  10.898  16.381   3.767  0.2695 -0.0680 -0.1308
 8126W        W25650  15.708  17.651   3.079 -0.0301 -0.1035 -0.3220
 8127W        W25651   5.353  10.544  15.223  0.0036 -0.2198  0.0024
 8128W        W25652  10.039   7.176  14.180  0.0439 -0.3052 -0.1998
 8129W        W25653  17.727  15.997   2.737  0.2341 -0.0065 -0.3024
 8130W        W25654   2.051   6.670  14.597 -0.1409 -0.0936 -0.1219
 8131W        W25655  14.611   5.134  15.109  0.0328 -0.0755  0.0696
 8132W        W25656   8.426  16.989   0.494 -0.1114  0.0625  0.0666
 8133W        W25657   5.952  11.018  11.037  0.0542 -0.2101  0.2106
 8134W        W25658   9.742   8.716   1.034 -0.0796 -0.3409 -0.1364
 8135W        W25659   0.032   4.159  15.513 -0.0647  0.3286 -0.0476
 8136W        W25660  17.543   4.646   1.324 -0.2540  0.2681  0.0105
 8137W        W25661  17.136   6.952   5.325 -0.0060 -0.0029  0.2317
 8138W        W25662  13.140   6.005   3.425  0.1217  0.1694  0.0578
 8139W        W25663   7.321  12.383  13.778 -0.1108 -0.1414  0.1088
 8140W        W25664   0.182  16.389  13.749  0.2474 -0.1247  0.1930
 8141W        W25665   7.218   3.386  13.901  0.3782  0.0070  0.0237
 8142W        W25666  12.591  14.054   2.021 -0.1287 -0.1025  0.0279
 8143W        W25667   8.956   5.173   0.636 -0.1990 -0.0339 -0.0343
 8144W        W25668  16.374  12.824   4.434 -0.0100  0.0538 -0.4415
 8145W        W25669  12.550   9.704   5.439  0.3182 -0.1424 -0.1482
 8146W        W25670   3.712   4.885   3.661 -0.1327 -0.0591 -0.1597
 8147W        W25671  15.625   2.211   3.106 -0.2951 -0.1512  0.0562
 8148W        W25672  13.524  16.448   5.663  0.2042 -0.1527  0.0695
 8149W        W25673  16.856  18.121   2.271  0.0353  0.0081 -0.1817
 8150W        W25674   6.967  13.763  12.599 -0.3594 -0.0244 -0.2314
 8151W        W25675   2.667  14.928   2.651 -0.0938 -0.1636 -0.3451
 8152W        W25676   7.260   1.487  13.767 -0.1773 -0.1225 -0.0676
 8153W        W25677  12.447  17.153   3.938  0.2614  0.0858 -0.0041
 8154W        W25678   3.217  12.515  12.111  0.0189  0.2106 -0.3042
 8155W        W25679   8.657   6.776   4.348  0.0190 -0.1945  0.0580
 8156W        W25680   4.087  10.641  11.526 -0.2859 -0.2385  0.1410
 8157W        W25681   0.302  15.312   1.708 -0.0207  0.0106 -0.1734
 8158W        W25682   3.729   3.254   4.584  0.0364 -0.1063  0.0605
 8159W        W25683   3.241   5.549  13.717  0.5272 -0.0873 -0.2930
 8160W        W25684   2.253   4.136   1.187 -0.0295  0.1745 -0.0111
 8161W        W25685   8.388  14.366   0.361 -0.0262  0.0120 -0.0741
 8162W        W25686  14.264   7.526  10.519 -0.0410 -0.1708 -0.3342
 8163W        W25687  13.852  15.766  13.066 -0.4565  0.1299  0.2032
 8164W        W25688  13.519  15.042   2.771  0.2870 -0.1145  0.2152
 8165W        W25689   8.333   9.351   4.307  0.1876 -0.3102 -0.2641
 8166W        W25690   4.335   4.896   2.974  0.1564 -0.1733 -0.0494
 8167W        W25691   7.922  11.963   0.687  0.2260 -0.2552 -0.1021
 8168W        W25692   0.481  16.314   5.169  0.3668  0.2914  0.1329
 8169W        W25693   6.838   1.612   0.830  0.0194  0.0956  0.0211
 8170W        W25694   7.775  15.968  10.750 -0.2349 -0.0408  0.4629
 8171W        W25695  13.217   3.219  13.225 -0.0931  0.0630  0.0028
 8172W        W25696  10.290  10.061   0.206  0.0983 -0.0736  0.0057
 8173W        W25697  11.597  11.320  11.985 -0.0729 -0.0180  0.2016
 8174W        W25698   9.299   0.612  12.041 -0.0341 -0.1697  0.0453
 8175W        W25699  17.275   6.855   0.771  0.1255  0.1704 -0.0838
 8176W        W25700  17.298  13.762   5.051 -0.2359 -0.0588  0.0163
 8177W        W25701   3.201   2.472  12.672 -0.4195  0.0818 -0.0742
 8178W        W25702   6.708  10.711   2.331 -0.0233 -0.0323  0.1918
 8179W        W25703   5.105   6.791   3.682  0.1492  0.0239  0.0360
 8180W        W25704  10.823  14.710   0.870 -0.1523 -0.0595  0.3133
 8181W        W25705   4.736  16.119  15.169 -0.2609  0.0155 -0.2703
 8182W        W25706   1.151   9.524   5.185 -0.0111 -0.0608  0.0963
 8183W        W25707  11.710   9.689   3.563  0.0894 -0.0775  0.4474
 8184W        W25708   3.222  11.750  12.727 -0.1165 -0.0027 -0.3012
 8185W        W25709  17.419   9.585  11.985 -0.2310 -0.1377 -0.1124
 8186W        W25710   0.498  11.947   2.632  0.0018  0.1269  0.1980
 8187W        W25711  10.887   0.503  11.395  0.3778 -0.1987  0.2897
 8188W        W25712   7.228  10.248  15.016  0.3723  0.3145  0.0164
 8189W        W25713   0.320   5.810   2.907 -0.0895  0.1757  0.0030
 8190W        W25714   6.506   1.624  13.419 -0.1749  0.1240  0.1673
 8191W        W25715   7.462  11.107   0.496  0.2901  0.0456  0.1034
 8192W        W25716  17.886   2.517  11.712  0.0001 -0.2646 -0.2092
 8193W        W25717   7.522  16.491   2.515 -0.0613 -0.0980 -0.0192
 8194W        W25718   4.132   5.795  15.358  0.0969 -0.0221  0.1302
 8195W        W25719  12.556   2.901   4.265 -0.2873 -0.1716 -0.0715
 8196W        W25720   5.910   4.578   1.405 -0.1970 -0.2961  0.0427
 8197W        W25721   9.458   1.505   0.135  0.1386  0.2064 -0.1740
 8198W        W25722  12.189   5.220  15.938  0.0821 -0.0709  0.1161
 8199W        W25723   3.180   5.497  11.642  0.0934 -0.1092  0.0510
 8200W        W25724   1.136  16.609  11.267 -0.0343 -0.0961  0.2248
 8201W        W25725   0.132  14.055   4.101 -0.4211 -0.1177  0.0825
 8202W        W25726  12.196  10.655   4.684  0.0966 -0.0651 -0.3435
 8203W        W25727   2.619   1.114  13.726 -0.0310  0.4777 -0.2866
 8204W        W25728   9.522  10.865   5.929 -0.0654 -0.2877  0.2498
 8205W        W25729  13.744  11.883   4.829  0.0078  0.0147  0.2449
 8206W        W25730   9.588   8.444   5.117  0.1602  0.2584  0.0087
 8207W        W25731   6.560  10.971  11.079 -0.0799  0.0197 -0.0715
 8208W        W25732  11.549  13.996  15.770  0.1689 -0.1642 -0.2190
 8209W        W25733  15.493   0.663   0.242  0.0537 -0.1280 -0.0437
 8210W        W25734   8.485   0.243  13.758  0.2539  0.1275  0.0401
 8211W        W25735  11.047   4.157  12.230 -0.0581 -0.0838 -0.0710
 8212W        W25736   0.141   1.024   1.345  0.0508 -0.1099 -0.1310
 8213W        W25737  16.748  13.662  13.632 -0.4495  0.3724 -0.0913
 8214W        W25738  16.799  13.031  15.904  0.0410  0.1676 -0.3224
 8215W        W25739   9.527  16.355  12.962  0.2538 -0.0041 -0.1955
 8216W        W25740   1.138   3.984   0.605  0.2165 -0.0145 -0.4358
 8217W        W25741  13.879  14.102   0.877 -0.2704  0.0598 -0.2605
 8218W        W25742  11.023   0.653   4.280 -0.0424 -0.2348  0.2158
 8219W        W25743   2.568   5.490   4.485  0.1730  0.1139 -0.2629
 8220W        W25744  11.065   7.371   5.360 -0.1244 -0.2804 -0.0670
 8221W        W25745  12.585  16.523   1.465  0.2764  0.0538 -0.0831
 8222W        W25746  10.407   8.249  15.993  0.4099 -0.1485  0.1576
 8223W        W25747  10.315   6.356  11.480 -0.0312 -0.0325 -0.0565
 8224W        W25748  12.137   3.678   2.274 -0.1143 -0.0272 -0.2404
 8225W        W25749   5.180  12.138  14.908 -0.1149 -0.0162  0.0599
 8226W        W25750  10.518   2.179  12.951  0.1340 -0.2577 -0.0165
 8227W        W25751   8.441   5.892   0.612  0.2801  0.0737 -0.2328
 8228W        W25752   7.141   1.954   3.220  0.1419  0.0011 -0.0678
 8229W        W25753   5.017   7.734  13.167 -0.0329 -0.0498  0.1618
 8230W        W25754   6.832   8.260   2.649 -0.2147  0.1088 -0.0143
 8231W        W25755  13.527   5.923  11.670 -0.0771 -0.3191 -0.2591
 8232W        W25756   0.112  13.242   3.017 -0.1860  0.1379  0.1333
 8233W        W25757  14.911   9.549   3.077 -0.0411  0.0020 -0.3412
 8234W        W25758   2.118  17.254   1.568  0.0661  0.1876  0.0179
 8235W        W25759  12.751   6.862   3.778  0.0025  0.2183 -0.0448
 8236W        W25760  16.898  16.659  11.789  0.4127  0.0328  0.2680
 8237W        W25761   0.544   6.771   3.043 -0.0165 -0.0430  0.2092
 8238W        W25762  16.614  17.024  12.089 -0.0184 -0.0873 -0.1942
 8239W        W25763   3.151   5.565  15.448 -0.1642 -0.1405  0.2623
 8240W        W25764  11.057   3.758   2.628  0.0363  0.1871  0.2243
 8241W        W25765  14.185   8.166   2.722 -0.3205 -0.0412 -0.2524
 8242W        W25766   7.725  15.266   9.850  0.0214 -0.2133  0.2689
 8243W        W25767  12.698  16.178   4.202  0.3345  0.3263 -0.2356
 8244W        W25768   0.802  13.993   5.118 -0.0920  0.0918  0.0323
 8245W        W25769   3.387  12.306   4.612  0.0723 -0.1040  0.1610
 8246W        W25770  10.566  10.974   3.531 -0.0792 -0.0517  0.1900
 8247W        W25771   1.666  17.035   1.756 -0.0975 -0.1734  0.0266
 8248W        W25772   8.418   8.861  11.425  0.0530  0.2805 -0.0721
 8249W        W25773  10.462   7.175  13.063 -0.0278 -0.0669  0.0245
 8250W        W25774  13.763   3.409   2.308  0.1693 -0.1735  0.0320
 8251W        W25775   3.526  12.405   0.526 -0.1787 -0.1686  0.1074
 8252W        W25776   1.647  17.513   3.284  0.0109  0.4561 -0.1028
 8253W        W25777  12.935  16.431  13.066 -0.0273 -0.0532 -0.1109
 8254W        W25778  11.412   2.004   2.758 -0.1132  0.2084  0.2170
 8255W        W25779  16.288   2.362  12.508 -0.0238 -0.1656  0.1904
 8256W        W25780  13.108   8.786  15.111 -0.0139  0.2132  0.1706
 8257W        W25781   4.744  12.528   2.858  0.1464 -0.0472  0.4281
 8258W        W25782  11.043  15.973  14.557 -0.0980 -0.0905  0.3500
 8259W        W25783  17.492  14.508  13.574 -0.0026  0.0767 -0.1534
 8260W        W25784  14.725  12.219  11.634 -0.0981 -0.0120  0.4038
 8261W        W25785   9.045   8.950   2.110 -0.0561  0.0638  0.4405
 8262W        W25786   8.775  14.441  11.138 -0.0387  0.1359 -0.0131
 8263W        W25787   5.792  18.066  14.277 -0.0110 -0.3033  0.2043
 8264W        W25788  10.956   8.745   4.488 -0.1421 -0.3078 -0.0455
 8265W        W25789  14.406   3.658   3.347 -0.1306  0.0444  0.0622
 8266W        W25790   1.195   8.278   5.027 -0.3135 -0.0730  0.2128
 8267W        W25791  15.615  13.509   5.195 -0.1159 -0.0882  0.1076
 8268W        W25792  17.776  14.797   3.637  0.2642 -0.3451 -0.0571
 8269W        W25793   9.044   3.586   2.440 -0.0618 -0.2076 -0.1657
 8270W        W25794   8.006  11.582   4.093 -0.0445 -0.3120 -0.1011
 8271W        W25795   2.506   9.290   4.536 -0.0315 -0.2117  0.2162
 8272W        W25796   2.363   9.729  12.831  0.3757  0.1064 -0.2664
 8273W        W25797   7.367  15.661   3.840 -0.0440 -0.0511 -0.1876
 8274W        W25798  11.352   6.466   2.446  0.2179 -0.1776 -0.1071
 8275W        W25799  17.197   4.514  12.776  0.1787  0.1751  0.0942
 8276W        W25800  13.448   3.247   4.478 -0.0268 -0.1293  0.0458
 8277W        W25801   6.582  15.197   1.856  0.0648  0.0105  0.0227
 8278W        W25802  13.309  15.062   4.406 -0.1566  0.0585 -0.1281
 8279W        W25803   7.577   7.017  12.952  0.1939 -0.0355 -0.2620
 8280W        W25804   8.170  13.619  14.629 -0.2169  0.4760 -0.1647
 8281W        W25805  13.540   3.509  11.920  0.0301  0.4319 -0.0982
 8282W        W25806  11.477   0.938   4.013  0.2799  0.0003 -0.2380
 8283W        W25807   0.436  14.775   2.555  0.0308  0.1295  0.0700
 8284W        W25808   3.054  11.252  12.561 -0.0818 -0.2500 -0.0526
 8285W        W25809   8.486  15.603   3.258  0.1191 -0.0544  0.0044
 8286W        W25810  11.461  16.281   4.177 -0.0487 -0.0999  0.1671
 8287W        W25811  16.016   7.071  14.666  0.3396 -0.1922 -0.0430
 8288W        W25812   5.334  10.478   4.055  0.1002  0.0839  0.0681
 8289W        W25813  18.059  18.011   0.453  0.1547  0.2035  0.0179
 8290W        W25814  18.000  13.042   3.895 -0.0121 -0.2481 -0.0783
 8291W        W25815   3.277   6.930  15.313 -0.1538  0.1397 -0.1519
 8292W        W25816   0.555  12.857   0.998 -0.1801 -0.0458 -0.0526
 8293W        W25817  16.314   4.751  12.552  0.0998  0.0326 -0.1757
 8294W        W25818  10.028   7.235  11.561  0.2985 -0.0889 -0.0343
 8295W        W25819  11.079  17.756   3.294 -0.2440 -0.0799  0.0994
 8296W        W25820   7.847  12.082   3.881 -0.2653  0.1879 -0.4645
 8297W        W25821  13.135   0.824   4.718 -0.0544 -0.0575  0.5804
 8298W        W25822   1.866   9.563  14.825 -0.2869 -0.0722 -0.2166
 8299W        W25823   8.889  10.321  13.089  0.0126  0.0476 -0.1436
 8300W        W25824   4.434   3.410   0.724  0.1425  0.0107 -0.1138
 8301W        W25825  18.024   8.831   4.524 -0.1700 -0.0121 -0.0025
 8302W        W25826   7.943   1.164   3.394 -0.0793  0.0078 -0.0458
 8303W        W25827  12.949  10.578  10.141 -0.1187  0.1140 -0.2110
 8304W        W25828   0.589  16.678  13.356 -0.3142 -0.0770 -0.2744
 8305W        W25829   6.835  16.803  13.802  0.0027  0.0281  0.1089
 8306W        W25830  16.265   6.356  11.485  0.2936  0.1667 -0.2526
 8307W        W25831   6.086  15.112   1.978  0.0671 -0.3269 -0.1408
 8308W        W25832   0.382   7.842  11.447 -0.4952  0.0432 -0.1045
 8309W        W25833   3.653  10.584   3.610 -0.1266 -0.1064  0.0045
 8310W        W25834  14.788  16.669  12.673 -0.1264  0.0445  0.1590
 8311W        W25835   7.945   8.012   0.002 -0.1092 -0.0316 -0.1633
 8312W        W25836  17.145   7.434   2.309 -0.2584  0.2345  0.1282
 8313W        W25837  14.089  14.688  12.140 -0.1950  0.1647  0.1502
 8314W        W25838   9.938   1.703  14.269  0.0387  0.0153 -0.1546
 8315W        W25839   9.975   3.450  13.130  0.0174  0.1279 -0.0790
 8316W        W25840   3.603  12.904   0.679  0.1397 -0.1830 -0.1101
 8317W        W25841   7.413  10.966   3.215  0.2527 -0.0981  0.3209
 8318W        W25842   7.400   4.475  12.304 -0.0338 -0.1065  0.0391
 8319W        W25843   7.577   7.900  13.755  0.4499  0.1262  0.0381
 8320W        W25844   0.276   0.710   2.788 -0.2289 -0.2582 -0.2731
 8321W        W25845  10.808  16.134  14.117  0.1844  0.0963 -0.0718
 8322W        W25846   9.545   6.376  10.301 -0.1088 -0.0494  0.2181
 8323W        W25847   9.910   3.197  10.411 -0.0201 -0.1929  0.1388
 8324W        W25848   0.264  17.156  14.422  0.0064  0.0989 -0.0300
 8325W        W25849  14.749  12.707   3.757  0.1730 -0.0635 -0.1275
 8326W        W25850   9.687  12.972   1.717 -0.0034  0.0675  0.1667
 8327W        W25851  12.221  12.819  14.670 -0.1213 -0.1979  0.0650
 8328W        W25852  18.002  13.700  13.519  0.1618 -0.1200  0.1485
 8329W        W25853   2.424  11.432  14.299  0.1749  0.2449  0.2146
 8330W        W25854   1.604   9.109   3.514  0.0090  0.2686 -0.0656
 8331W        W25855   7.550   6.880   1.064  0.2780  0.0172  0.3100
 8332W        W25856   5.649   0.350   2.001  0.1898 -0.1859 -0.0867
 8333W        W25857   8.919  10.549   1.103 -0.1110  0.1968  0.1481
 8334W        W25858   0.590   7.684   1.031  0.2330 -0.1066  0.3730
 8335W        W25859  16.741  11.230   4.724 -0.0436 -0.0274 -0.0318
 8336W        W25860  12.749   2.623  14.265  0.2413 -0.1992 -0.0679
 8337W        W25861   7.581   2.122   3.349 -0.2421  0.0835 -0.0517
 8338W        W25862  11.340   3.387  14.258  0.0180 -0.4113  0.0898
 8339W        W25863   3.189   1.924  13.576 -0.0185 -0.0621  0.1006
 8340W        W25864  14.239   1.979  12.131 -0.0971 -0.0029  0.0494
 8341W        W25865   7.527  12.607  12.289  0.0146  0.1583 -0.0343
 8342W        W25866  17.392   7.640  13.435  0.2101  0.0477  0.2201
 8343W        W25867   3.334  14.470   0.044  0.2650 -0.0769 -0.0141
 8344W        W25868   4.229   8.415   3.623  0.1537  0.5197  0.1950
 8345W        W25869   2.356   5.575  13.785  0.1243  0.3813 -0.0978
 8346W        W25870  12.093  15.110   4.868 -0.0399 -0.0215 -0.2664
 8347W        W25871  10.894  17.830  15.499  0.1377  0.1975 -0.0699
 8348W        W25872   1.379  12.150  12.557 -0.0202 -0.1205 -0.2902
 8349W        W25873   1.690  18.116   0.279  0.2250 -0.1623 -0.3203
 8350W        W25874  11.041  15.705   0.140 -0.0808 -0.4926 -0.3169
 8351W        W25875   6.517   7.803  12.210 -0.0195 -0.4285 -0.1014
 8352W        W25876  10.425   4.127  14.163  0.1743  0.2490  0.2475
 8353W        W25877   3.248  10.797   2.754  0.0674  0.2880 -0.3229
 8354W        W25878   9.487  17.377  15.048  0.3014 -0.0077  0.2695
 8355W        W25879  11.731  10.428   6.208 -0.2241 -0.0195  0.1798
 8356W        W25880  10.385  15.966  13.153 -0.0749  0.0312 -0.1036
 8357W        W25881  14.318  10.069  10.553 -0.4474  0.0490 -0.0353
 8358W        W25882  11.929   2.992  14.961 -0.0356  0.3446 -0.0494
 8359W        W25883  14.442   9.329   3.711 -0.0047  0.0066 -0.0148
 8360W        W25884   6.323  17.118   2.038 -0.3662 -0.0153  0.2058
 8361W        W25885  12.287   6.378  13.413 -0.0034 -0.0311  0.0798
 8362W        W25886  17.803  15.260  12.665  0.0359 -0.0842 -0.0324
 8363W        W25887  14.047  12.617  12.792 -0.1986  0.1758  0.0832
 8364W        W25888   5.323  14.533  14.178 -0.0044 -0.2554 -0.0626
 8365W        W25889   6.059   8.491   4.653  0.0031 -0.1704 -0.0774
 8366W        W25890   6.700  16.323   1.826 -0.2971  0.1797 -0.1023
 8367W        W25891   3.807   3.835  14.302 -0.1088  0.0331 -0.1865
 8368W        W25892  15.335  13.106  15.234 -0.0463  0.1157  0.0265
 8369W        W25893   3.456   6.609  14.550 -0.1017 -0.0828 -0.0959
 8370W        W25894   5.876  13.324  11.563 -0.2289 -0.1569 -0.0043
 8371W        W25895   5.539   5.896   3.794  0.1922  0.0090  0.1491
 8372W        W25896  15.835   0.825   5.467  0.0214  0.4070 -0.1527
 8373W        W25897   8.042   7.222   4.855  0.3107  0.1117  0.0609
 8374W        W25898   4.159  16.931  14.124 -0.0194  0.0061  0.2236
 8375W        W25899  15.385  12.380   2.992 -0.2160 -0.2666 -0.1544
 8376W        W25900  17.169   3.486   0.259 -0.2951 -0.0272 -0.3328
 8377W        W25901   3.592  13.143   3.740 -0.2094  0.1379  0.0663
 8378W        W25902   8.522  12.551   1.613  0.0955  0.1457  0.1077
 8379W        W25903  15.779  11.305   1.491 -0.0703 -0.0739  0.2347
 8380W        W25904  12.467  15.825  15.749 -0.0918  0.1464  0.0197
 8381W        W25905   3.801  17.193   0.908  0.3747 -0.1043 -0.1667
 8382W        W25906  16.740   1.040   4.145 -0.0724  0.2318 -0.5306
 8383W        W25907  13.951   6.312   3.240  0.1111  0.0794  0.1867
 8384W        W25908   2.210  13.569  12.757 -0.2182  0.0229 -0.3292
 8385W        W25909   0.090  12.828  11.602  0.0708  0.0339  0.1660
 8386W        W25910   9.568  14.355   5.882  0.1473  0.0482 -0.0028
 8387W        W25911  13.574  13.617  15.228 -0.2491 -0.3472 -0.2161
 8388W        W25912  11.569  12.224   0.996 -0.1453 -0.0873  0.2678
 8389W        W25913   8.436   9.181  14.343 -0.2004  0.0998 -0.3722
 8390W        W25914   7.092  14.863  15.014 -0.3462  0.1005 -0.0540
 8391W        W25915  11.389  12.821   4.033  0.1000  0.0330 -0.0112
 8392W        W25916  12.098  15.845  13.881 -0.1360 -0.2584  0.1343
 8393W        W25917   3.339  13.037   3.337 -0.0603 -0.0088 -0.3174
 8394W        W25918  13.722  15.958   4.402 -0.2811 -0.0538  0.1402
 8395W        W25919   3.315  16.299  10.629 -0.0887  0.0043 -0.2854
 8396W        W25920  10.372   1.073  13.244  0.1396  0.3489  0.3315
 8397W        W25921   0.538   2.369  14.446 -0.2847  0.0574 -0.3212
 8398W        W25922   2.077  14.486  14.245  0.0458  0.3994 -0.0846
 8399W        W25923  10.098  10.671  15.067  0.2322 -0.1048  0.1086
 8400W        W25924   7.804  17.333   3.114  0.1607 -0.1997 -0.1091
 8401W        W25925  10.365   8.036  11.675  0.3575 -0.3840  0.2173
 8402W        W25926  17.635   9.311   0.355 -0.0480 -0.3112  0.0966
 8403W        W25927   7.389  12.065   3.618 -0.0548  0.0004 -0.0413
 8404W        W25928  13.705   6.895  15.011 -0.0669 -0.0180  0.1161
 8405W        W25929  17.769   8.487  12.027  0.3339  0.0955 -0.1084
 8406W        W25930   5.173  17.810   4.974 -0.0113  0.2143 -0.2788
 8407W        W25931  13.280  13.215   2.693 -0.3339 -0.0280  0.2253
 8408W        W25932  10.999  13.102   1.858  0.0180  0.1854  0.0207
 8409W        W25933   7.842  16.972   4.587 -0.0306 -0.0970  0.4650
 8410W        W25934  17.787   5.756   0.305  0.4372  0.1020  0.0790
 8411W        W25935  16.507   8.887   2.713  0.0702  0.0942  0.1524
 8412W        W25936  16.511  14.049   5.240 -0.1662  0.1006 -0.1987
 8413W        W25937  10.377   8.643  13.017  0.0720 -0.2042  0.1538
 8414W        W25938   4.811  17.352  13.493  0.0804  0.0963  0.1378
 8415W        W25939   6.645  15.048   0.371  0.1320 -0.1924  0.0737
 8416W        W25940  16.680  17.986  14.715 -0.0911 -0.1508 -0.0039
 8417W        W25941  11.105  13.921  12.931 -0.1470  0.1753  0.1917
 8418W        W25942  16.843  11.075  15.042 -0.0002  0.4250  0.0734
 8419W        W25943  10.903  14.709  12.417  0.2599 -0.0055  0.0951
 8420W        W25944   1.254   7.731  12.705 -0.5054  0.1052  0.1837
 8421W        W25945   2.802  13.979   0.093  0.1117 -0.0098 -0.1347
 8422W        W25946   3.816   1.437  13.753 -0.2086 -0.4646 -0.3609
 8423W        W25947   8.196   8.683   0.536 -0.2263 -0.0185 -0.1767
 8424W        W25948   3.639  13.160  15.831 -0.1889  0.0873 -0.2024
 8425W        W25949   7.981   8.773  13.424  0.2142  0.0518 -0.0236
 8426W        W25950   1.347  17.184  13.123 -0.1415 -0.3768  0.1142
 8427W        W25951   7.727   7.640   4.609  0.0250 -0.3486  0.3216
 8428W        W25952  15.484   6.991   4.617 -0.1156 -0.0122 -0.0684
 8429W        W25953  16.827   9.491   1.635  0.1296 -0.0927 -0.0865
 8430W        W25954   3.052  11.805   0.975  0.1037 -0.0840 -0.0021
 8431W        W25955   5.521  13.746   4.679 -0.0474  0.0069 -0.2902
 8432W        W25956   5.143   5.131  11.911  0.1898  0.3775 -0.1017
 8433W        W25957  12.254  14.727   5.198  0.1691 -0.0022 -0.0343
 8434W        W25958  15.346   3.707  13.711 -0.3097 -0.0130 -0.0910
 8435W        W25959   1.803   8.115  11.200  0.1774 -0.3805  0.0782
 8436W        W25960  15.083   2.222   1.901 -0.1076  0.1946 -0.1417
 8437W        W25961   1.837  14.604   3.885 -0.0067  0.1325  0.0586
 8438W        W25962   6.057  12.427  11.904 -0.2879  0.3998 -0.1079
 8439W        W25963  11.247  17.812  14.389 -0.0647  0.0069 -0.1430
 8440W        W25964   5.366   8.990   1.172 -0.1446 -0.0593  0.2335
 8441W        W25965  16.825   7.152   0.817 -0.0113  0.0021  0.1196
 8442W        W25966  11.257  17.566  12.321  0.0287 -0.1044 -0.2119
 8443W        W25967  10.258  14.899  14.995 -0.1855 -0.1365  0.1429
 8444W        W25968   3.638   9.646  14.803  0.0609  0.1643 -0.0085
 8445W        W25969  13.248  13.585  13.217 -0.0735  0.0719  0.3942
 8446W        W25970   1.917  12.746   2.260  0.1294  0.0568  0.4147
 8447W        W25971  12.995   1.174   2.730 -0.0564 -0.0722  0.0173
 8448W        W25972  11.603  11.056   0.509  0.0398  0.2091 -0.0545
 8449W        W25973  16.967  16.797   4.556  0.0209 -0.1310 -0.0480
 8450W        W25974  13.627  11.467   5.558  0.3121  0.0675 -0.1120
 8451W        W25975   5.757  12.235  14.619 -0.2693  0.2409  0.2151
 8452W        W25976  17.682   9.542   1.631 -0.0563  0.1212  0.0553
 8453W        W25977   8.896   0.795   2.875 -0.0654  0.3709 -0.2548
 8454W        W25978   4.295  17.017   0.147 -0.0598 -0.1699  0.1146
 8455W        W25979   4.331   2.141   5.722  0.0879  0.1445 -0.0975
 8456W        W25980   3.323  11.221  15.918 -0.3257 -0.1519  0.0143
 8457W        W25981  14.541   6.719   2.399  0.2319 -0.1372  0.0247
 8458W        W25982  17.709   4.959  13.650 -0.0229  0.2126  0.1705
 8459W        W25983   5.551  17.220   3.494 -0.2888  0.0373  0.1911
 8460W        W25984  15.893  16.646   2.137 -0.2017 -0.0226 -0.0659
 8461W        W25985  17.513  11.497  14.234 -0.2136 -0.3652  0.0276
 8462W        W25986  17.794  10.386   1.152  0.1405  0.1220 -0.3086
 8463W        W25987  16.480  13.791   4.011  0.0488 -0.1855 -0.0939
 8464W        W25988  10.914  10.503  15.538  0.6054 -0.2077  0.1070
 8465W        W25989  13.790   9.130  14.686 -0.1306 -0.1626 -0.2172
 8466W        W25990  10.945   2.555   1.496 -0.2315  0.0115  0.1319
 8467W        W25991   4.417  12.479  11.446  0.2800 -0.0280  0.3651
 8468W        W25992   6.680  11.857   0.680  0.0445  0.3261  0.1432
 8469W        W25993   3.705  12.747   1.861 -0.4283 -0.0458 -0.1902
 8470W        W25994   3.740  12.706   3.337 -0.3522 -0.0283 -0.1489
 8471W        W25995  13.778  14.225   0.252  0.1903  0.0889  0.2389
 8472W        W25996   7.567   9.833  10.146  0.3056  0.2639  0.1891
 8473W        W25997   8.303   5.007  14.445 -0.0145  0.4040 -0.2359
 8474W        W25998  10.396  12.846   3.370  0.0722  0.4832 -0.2231
 8475W        W25999  16.799  13.881   2.784 -0.0737  0.0418  0.2038
 8476W        W26000   3.659  10.752   1.401  0.4137 -0.1829  0.0498
 8477W        W26001  17.110  11.156   2.832 -0.0692  0.2551  0.0922
 8478W        W26002   7.286   9.726   5.463  0.4121 -0.0210  0.1029
 8479W        W26003   6.900   3.811  13.054  0.2065 -0.0526  0.4713
 8480W        W26004  13.593   5.292  14.943 -0.0385 -0.0165  0.2729
 8481W        W26005   9.244  16.841  15.778  0.1404  0.0039  0.2616
 8482W        W26006  10.657   1.866  14.781 -0.4147 -0.1077 -0.1081
 8483W        W26007   6.634  17.307  13.534 -0.0389 -0.2584  0.1601
 8484W        W26008   9.983   1.829  12.881 -0.1697 -0.1762 -0.1702
 8485W        W26009  14.145   1.999   1.509 -0.2885  0.3364  0.1224
 8486W        W26010   4.080  11.192   2.828  0.0469 -0.0570  0.2965
 8487W        W26011  13.749   1.901  13.949  0.3885  0.3423 -0.2247
 8488W        W26012   9.332   2.308   2.812  0.1404 -0.0946 -0.1299
 8489W        W26013   4.759   6.060   3.141 -0.3093  0.1332  0.1787
 8490W        W26014   0.504   0.962   0.548 -0.2087  0.0415 -0.2313
 8491W        W26015  12.296  13.737  12.105 -0.1750 -0.1956 -0.1263
 8492W        W26016   2.676   9.430   5.739 -0.1723  0.0702 -0.0926
 8493W        W26017  10.958  12.879  13.300  0.0638 -0.1681 -0.1075
 8494W        W26018  15.853   7.115   0.910 -0.1751 -0.0381  0.1145
 8495W        W26019  12.175   0.827  11.983  0.1925 -0.1243  0.3743
 8496W        W26020  11.766  12.454   3.698 -0.2805 -0.0708  0.0083
 8497W        W26021  15.003   3.674  12.798 -0.0468 -0.3509 -0.2591
 8498W        W26022   2.918   7.708  11.536  0.0172 -0.1489  0.0809
 8499W        W26023   8.758   0.388  11.111 -0.2123 -0.0487  0.1033
 8500W        W26024   3.594   7.420   2.306  0.0814  0.0147  0.2642
 8501W        W26025   3.915  10.065   2.003 -0.1632  0.2911  0.0729
 8502W        W26026   2.182   1.586  15.614 -0.0554  0.0318 -0.1468
 8503W        W26027   0.571   1.771   0.108 -0.0895 -0.1257 -0.1000
 8504W        W26028   9.321  16.908  13.600  0.1690 -0.0345 -0.2236
 8505W        W26029  10.602   5.619  11.351 -0.2446 -0.3289  0.1439
 8506W        W26030   1.329  18.029  14.383  0.0128  0.3724  0.1447
 8507W        W26031  13.446   6.214  14.543 -0.1227  0.1474  0.2476
 8508W        W26032  13.557  12.063   4.386  0.2346 -0.1025 -0.0535
 8509W        W26033   1.599  17.258  15.941  0.0288 -0.0489  0.1007
 8510W        W26034  12.771   7.849  12.551  0.1682 -0.0707  0.0406
 8511W        W26035   7.299   6.545  15.307  0.0241 -0.3633 -0.1284
 8512W        W26036   9.466   4.609  14.597  0.1826  0.2800  0.1862
 8513W        W26037   2.810   6.953   1.325 -0.3906  0.1105 -0.0318
 8514W        W26038  11.954   1.745  12.638  0.0539  0.2834 -0.4741
 8515W        W26039   6.601  10.308   0.895  0.1172 -0.0489 -0.2576
 8516W        W26040   9.696  13.377  13.847  0.0345  0.1942  0.0544
 8517W        W26041   2.065   1.554  14.462 -0.2274  0.3437 -0.3285
 8518W        W26042   4.399  16.962  11.782  0.1069 -0.1528  0.1375
 8519W        W26043   4.628  18.169   1.563  0.2157  0.1521 -0.2392
 8520W        W26044  15.892  12.460  10.368  0.1654  0.2518  0.3406
 8521W        W26045   1.178   6.400   1.503 -0.1185 -0.0160 -0.0044
 8522W        W26046   4.149   8.946  13.863  0.1353  0.1007  0.1008
 8523W        W26047   2.113   1.225  12.977 -0.2462  0.3850 -0.0581
 8524W        W26048  12.125  17.377  13.962  0.3588  0.2175 -0.0659
 8525W        W26049  17.628  17.438  15.454 -0.1112 -0.0356  0.1270
 8526W        W26050   0.452   3.610  14.917 -0.1421 -0.0614  0.1679
 8527W        W26051   3.705   0.185  12.799 -0.1308  0.0514 -0.4770
 8528W        W26052   1.602  13.833   4.445 -0.0437 -0.1274  0.1379
 8529W        W26053   3.006   7.017  11.517  0.0076 -0.0912  0.1807
 8530W        W26054  16.749   5.140   3.477 -0.1372  0.1700 -0.1790
 8531W        W26055   2.309  17.762   5.442  0.2826 -0.1751  0.3506
 8532W        W26056   2.316   5.085  15.360  0.1081  0.0550 -0.2316
 8533W        W26057   5.702  14.787  14.906  0.0703  0.0721  0.1980
 8534W        W26058   8.390  17.302   3.528  0.2239 -0.2505  0.2452
 8535W        W26059   5.200   3.895   3.292 -0.0534 -0.2114 -0.0541
 8536W        W26060   7.171  18.159  12.106  0.0614  0.1070 -0.2468
 8537W        W26061  12.350  14.839  12.933  0.0536 -0.1886 -0.1050
 8538W        W26062   3.482  16.639  13.157 -0.1527 -0.3504  0.2512
 8539W        W26063  11.332   8.220  14.831  0.0765  0.0281 -0.1388
 8540W        W26064  11.101   2.463   3.774 -0.0905 -0.1064  0.0727
 8541W        W26065  13.752   7.363   2.197  0.1105  0.0872  0.2787
 8542W        W26066  13.070   9.937   3.217  0.3088  0.3328  0.2037
 8543W        W26067   2.468  12.928   2.889 -0.0113 -0.1936  0.2538
 8544W        W26068   5.765   5.046   3.543  0.1040  0.0113 -0.0776
 8545W        W26069   2.528  12.895   5.389 -0.1700 -0.3292  0.0659
 8546W        W26070   0.748  16.660   1.515 -0.1989 -0.2297  0.0655
 8547W        W26071  17.106  17.181   2.563 -0.2741  0.1266  0.2335
 8548W        W26072   9.167   5.510  11.273  0.0873 -0.0772 -0.1311
 8549W        W26073   5.137  12.665  10.977 -0.0458  0.0487 -0.2467
 8550W        W26074  10.302   4.942   0.154 -0.3508 -0.1349  0.0324
 8551W        W26075   2.253  10.794  15.096  0.0677 -0.1403  0.1653
 8552W        W26076  15.766  16.272  15.577  0.3129 -0.0692  0.1048
 8553W        W26077  10.703  16.729  13.489  0.0161 -0.2480  0.0361
 8554W        W26078   6.651   9.094   4.025  0.1964 -0.3843 -0.1421
 8555W        W26079  17.355   0.164   2.087  0.0294 -0.0725  0.2228
 8556W        W26080  17.174   8.024   3.783  0.0121  0.1090  0.2792
 8557W        W26081  17.772  15.094   2.689 -0.1052 -0.2147  0.0113
 8558W        W26082  17.057  16.097   1.601  0.3703 -0.2702  0.0187
 8559W        W26083  13.448  16.279  13.861 -0.1579  0.1075 -0.0471
 8560W        W26084  14.456   6.979   1.169  0.1455  0.0301 -0.1124
 8561W        W26085   6.115   9.278  15.977 -0.0156  0.1343  0.0026
 8562W        W26086   2.112  16.203   1.097 -0.3531  0.1373  0.1917
 8563W        W26087  11.174   1.767   0.652 -0.0462  0.1711 -0.2670
 8564W        W26088   9.637  17.000   2.746  0.1695  0.3099 -0.1573
 8565W        W26089   0.174  17.083   3.730 -0.2065 -0.3655  0.0136
 8566W        W26090   8.788   1.846   0.255  0.1886  0.0239 -0.0805
 8567W        W26091   1.370  14.797   0.484 -0.2407  0.2477 -0.1146
 8568W        W26092   0.174  14.510  16.013 -0.1445 -0.1896 -0.1110
 8569W        W26093   0.348  15.670   1.313 -0.0122  0.1229 -0.0958
 8570W        W26094   0.967   3.256   4.372  0.0896 -0.0523  0.3581
 8571W        W26095   1.562   5.842   2.070  0.0198 -0.3347  0.0887
 8572W        W26096  13.798  17.353   1.826 -0.3491 -0.2012  0.1938
 8573W        W26097   7.080  17.766  11.753 -0.2614 -0.4642  0.0471
 8574W        W26098   1.846  11.946  15.519  0.1553 -0.2033  0.1682
 8575W        W26099   5.466  10.226   1.857 -0.0416  0.0416 -0.0054
 8576W        W26100   5.589  10.480  11.891 -0.0615  0.0873 -0.4083
 8577W        W26101  16.802   1.376   3.847  0.0472  0.2703  0.2415
 8578W        W26102   1.520  11.279   2.176 -0.0424  0.2037 -0.1095
 8579W        W26103  14.367  16.807  12.931  0.1147  0.1877  0.1880
 8580W        W26104   1.786  15.934  13.098 -0.1898  0.1145  0.1564
 8581W        W26105   2.478  16.679   1.120  0.1566 -0.1934 -0.2243
 8582W        W26106   9.347   1.471   2.388 -0.1052  0.0171 -0.1026
 8583W        W26107  13.862   5.893   1.364 -0.2560 -0.1373  0.1511
 8584W        W26108  17.543  11.421  11.778 -0.0669  0.1480  0.0159
 8585W        W26109   6.264  10.098   1.643 -0.0518 -0.1341 -0.0966
 8586W        W26110  13.695   7.009  15.503  0.0695  0.3318 -0.0340
 8587W        W26111   5.814  16.084   2.777 -0.3550  0.0023 -0.1389
 8588W        W26112   8.428   7.826   0.832 -0.0502  0.3377  0.0981
 8589W        W26113   3.180  12.431  11.298  0.3606 -0.2806  0.0604
 8590W        W26114   6.861  15.289  14.264 -0.1027  0.2620  0.4283
 8591W        W26115   6.253  17.084  15.602  0.2277  0.0557  0.1800
 8592W        W26116   6.344  13.252  15.427 -0.0507  0.0493  0.1804
 8593W        W26117   7.898   0.758   2.660 -0.0845 -0.0913 -0.0408
 8594W        W26118  11.113  11.734   3.655 -0.0375  0.1320 -0.1809
 8595W        W26119  10.662  13.194  14.973 -0.2025  0.1621 -0.1096
 8596W        W26120   4.919  14.795  14.418  0.1611  0.1491  0.1557
 8597W        W26121  16.611  13.186   4.185  0.1019 -0.2695 -0.2001
 8598W        W26122  12.381   3.453   4.051  0.0844 -0.0746 -0.0749
 8599W        W26123   3.076   4.445   0.666  0.0635 -0.3459  0.1462
 8600W        W26124  14.849  12.506  14.808  0.1016 -0.2066 -0.0730
 8601W        W26125  14.205  17.960  13.390 -0.2402 -0.2174  0.1543
 8602W        W26126  18.053   4.423   3.284  0.2926 -0.6417  0.0493
 8603W        W26127  15.222  13.847  14.676 -0.2686 -0.3056  0.0473
 8604W        W26128  12.374   8.959   2.311 -0.1108  0.2239  0.2698
 8605W        W26129   9.202  16.597   4.965  0.1291 -0.1005  0.1379
 8606W        W26130  14.648  17.217   0.828  0.2002 -0.1499 -0.3235
 8607W        W26131  10.167   9.516   4.851 -0.0252 -0.2340  0.1000
 8608W        W26132   9.606  14.115   1.634  0.1293  0.0288  0.0352
 8609W        W26133   9.194   5.699   5.170 -0.2728  0.0291 -0.0749
 8610W        W26134   1.649   8.210   4.267  0.0908  0.0501 -0.0750
 8611W        W26135  12.048  13.318   3.285 -0.1856  0.3832 -0.0359
 8612W        W26136  10.038  15.573   4.581  0.1489  0.2100 -0.1811
 8613W        W26137   2.790   4.721  13.611  0.1909 -0.1136 -0.3285
 8614W        W26138  11.182   5.933  13.162  0.3078  0.1209 -0.1475
 8615W        W26139   1.880   8.360  14.249 -0.0249  0.3264  0.2783
 8616W        W26140  14.008   7.844  15.145  0.0326  0.0769  0.1015
 8617W        W26141  15.872  17.509  13.185 -0.1020 -0.0496 -0.2332
 8618W        W26142   2.248   8.532   0.204  0.0925 -0.0495  0.3679
 8619W        W26143   9.865  16.803  12.262 -0.2889  0.0284 -0.2719
 8620W        W26144   8.633  10.185   4.674  0.1801  0.0478 -0.2792
 8621W        W26145  10.378   4.156   0.723 -0.1426 -0.1814 -0.1750
 8622W        W26146   1.473  12.837  14.348 -0.1012  0.1552  0.2233
 8623W        W26147   1.402  15.909   1.171  0.0222  0.0304  0.1521
 8624W        W26148  10.901   1.426  15.307  0.2492 -0.0513 -0.2156
 8625W        W26149   1.064   2.247   4.899  0.2837 -0.0838 -0.2924
 8626W        W26150  11.946  11.438   5.301  0.4240 -0.0885  0.0002
 8627W        W26151   3.958  16.246   3.940  0.0163  0.1011 -0.2616
 8628W        W26152   2.537  13.752   2.598 -0.3900 -0.1989  0.3650
 8629W        W26153   8.381  11.193   4.298  0.2071 -0.0740  0.0489
 8630W        W26154   4.221  15.329   3.208 -0.0514  0.1178 -0.1229
 8631W        W26155   9.312  14.877   1.938 -0.2230  0.1721 -0.2515
 8632W        W26156   9.510  11.285   5.004 -0.1773 -0.2020  0.1941
 8633W        W26157  13.865  17.825   1.745  0.1472  0.0048  0.0717
 8634W        W26158  11.360   4.228   1.883  0.0690 -0.0925  0.0129
 8635W        W26159   8.436  12.207   2.033 -0.3898  0.1025 -0.1045
 8636W        W26160   2.101   4.932   2.859  0.5592  0.0204  0.0148
 8637W        W26161   8.722  11.773   2.085 -0.0986 -0.0230 -0.0832
 8638W        W26162  17.851   9.983  10.674  0.1086 -0.1370  0.0898
 8639W        W26163   7.599   1.084   2.387  0.1246 -0.0215  0.0211
 8640W        W26164  13.702   2.647  13.434  0.0977 -0.0844  0.0078
 8641W        W26165   6.400   0.005  14.840  0.0122 -0.0282 -0.1268
 8642W        W26166   4.249   1.695   3.068  0.0931 -0.1250  0.1805
 8643W        W26167   6.113   1.836  11.838  0.4568  0.2118 -0.0692
 8644W        W26168   7.157   9.449   4.273  0.1321 -0.2024  0.1953
 8645W        W26169   4.868   4.332  12.451 -0.1402  0.0383  0.0515
 8646W        W26170  12.632   4.899   2.544 -0.1959  0.0862 -0.3499
 8647W        W26171   8.157   7.503   0.074 -0.1428  0.1124  0.0250
 8648W        W26172   7.652   1.019   3.001 -0.2175 -0.0839 -0.3580
 8649W        W26173  12.775   3.500  13.210 -0.2056 -0.2574 -0.0190
 8650W        W26174  11.074   8.275  15.298  0.1191 -0.4080 -0.1038
 8651W        W26175  16.243  12.801   1.841  0.1059 -0.0592  0.0697
 8652W        W26176   9.363  13.019  13.405  0.1088  0.1262 -0.4056
 8653W        W26177  11.282  16.195  12.903  0.0669 -0.1323  0.1129
 8654W        W26178  10.643   9.596   2.818  0.0323 -0.3168  0.3026
 8655W        W26179  10.683   3.265   3.536  0.1894 -0.0603 -0.0594
 8656W        W26180   3.163  15.446  10.043  0.0388  0.2273 -0.2904
 8657W        W26181  11.208   7.950   1.575 -0.0457 -0.0951 -0.2657
 8658W        W26182   7.878  17.281   1.299  0.1776  0.0416  0.0597
 8659W        W26183  12.278   3.333   1.343  0.1322 -0.1758  0.0235
 8660W        W26184   6.050  12.954   4.111  0.2843  0.0270 -0.0458
 8661W        W26185   2.067   9.175   4.322 -0.3052  0.0823  0.2390
 8662W        W26186  14.078   6.630   0.141  0.0429 -0.0443  0.3368
 8663W        W26187   0.457  14.637   1.771  0.1903 -0.0046 -0.1973
 8664W        W26188   6.415  14.467   3.910  0.0336 -0.1051  0.0934
 8665W        W26189  13.929   2.351  12.209  0.2865  0.2145 -0.0058
 8666W        W26190  17.328   4.205   0.852 -0.1107 -0.0464  0.1305
 8667W        W26191   7.411  13.588  11.660 -0.0012 -0.1218  0.0112
 8668W        W26192  13.795   5.528  13.741  0.3593 -0.1506 -0.1895
 8669W        W26193   9.705  14.476   2.463 -0.2021 -0.0082 -0.2184
 8670W        W26194   0.791   1.574  14.922  0.0760  0.1398 -0.0555
 8671W        W26195  11.662  13.088   0.013 -0.0092  0.5158 -0.0066
 8672W        W26196  14.310  11.388   1.108  0.0631 -0.0231  0.0204
 8673W        W26197   2.979   0.178   3.701  0.1417 -0.4040  0.0812
 8674W        W26198  12.406  17.522   2.606  0.0821  0.0054 -0.0811
 8675W        W26199   9.807  15.091  13.154  0.1955 -0.0770  0.3960
 8676W        W26200   9.515  10.573  11.354 -0.0813 -0.1257  0.0165
 8677W        W26201  12.367  12.435   9.965  0.4017  0.4010  0.1084
 8678W        W26202   2.652  16.087   1.777 -0.1279 -0.0417 -0.0425
 8679W        W26203   4.175  16.701   3.955  0.1468  0.4046  0.1259
 8680W        W26204   4.844   0.905  12.905 -0.0288 -0.3257  0.2775
 8681W        W26205   5.828   9.419  12.212 -0.0937  0.1600  0.0049
 8682W        W26206   4.829   4.581   0.927 -0.1475  0.3161  0.0066
 8683W        W26207  15.584  11.126   3.657  0.0811  0.2466 -0.0664
 8684W        W26208  16.891  12.436  15.722  0.3336 -0.3115  0.3148
 8685W        W26209   2.090  17.152  15.056  0.1954 -0.0401 -0.0526
 8686W        W26210   0.978   8.275  13.915  0.1732  0.0764  0.2894
 8687W        W26211   3.273  11.398   1.212  0.1840  0.1174  0.0694
 8688W        W26212  15.357   5.888   1.681 -0.3106 -0.3248  0.0337
 8689W        W26213  16.253  14.880   3.107 -0.2609  0.3438  0.0969
 8690W        W26214  17.398   7.107   0.290  0.1698 -0.1331 -0.1119
 8691W        W26215   9.911   5.290  15.633 -0.0763 -0.2531 -0.0108
 8692W        W26216   5.498   9.929   0.099 -0.0037 -0.0128  0.0771
 8693W        W26217   4.756   2.520   4.417  0.0908 -0.1193 -0.1371
 8694W        W26218  16.042  11.933  12.148 -0.1548 -0.2125 -0.0591
 8695W        W26219   2.060  15.839   5.550 -0.2003  0.2202  0.2300
 8696W        W26220  10.527  12.820  14.304 -0.0720  0.1106 -0.0708
 8697W        W26221  16.688  10.334  15.807  0.0318 -0.2601 -0.0544
 8698W        W26222   4.034   6.465  12.098 -0.1605 -0.2611 -0.2945
 8699W        W26223   9.616  14.625   1.295 -0.0405 -0.0859 -0.4675
 8700W        W26224   6.797   3.844  13.568  0.3425 -0.1300  0.1895
 8701W        W26225   7.437  13.686  11.142  0.0243  0.0610  0.1168
 8702W        W26226   2.246  10.790   1.324 -0.1432  0.3405  0.1553
 8703W        W26227   6.313   8.877  11.476  0.1720  0.1231 -0.2350
 8704W        W26228   9.935   6.117   3.387 -0.1350 -0.1821  0.0272
 8705W        W26229  11.495   9.435   4.821  0.0846  0.2104 -0.3027
 8706W        W26230  15.940  12.427  12.609 -0.2547  0.1580 -0.0075
 8707W        W26231   9.346  11.725   0.233 -0.2342 -0.1081 -0.0296
 8708W        W26232   7.512   0.992  14.861  0.2519 -0.0631  0.2053
 8709W        W26233   7.288   7.697   2.471  0.1514  0.2016  0.4154
 8710W        W26234  11.343   7.394  11.482 -0.0218  0.2207 -0.0746
 8711W        W26235  15.414   6.965  14.078 -0.0800  0.1120 -0.1771
 8712W        W26236   3.440   1.744   1.977  0.1406 -0.0474  0.6327
 8713W        W26237  12.563   0.899  15.735 -0.1318  0.1862  0.0970
 8714W        W26238   6.326   9.623  15.669 -0.2660  0.1474 -0.0792
 8715W        W26239   8.782   3.393   1.914 -0.0110 -0.4434  0.4197
 8716W        W26240  11.421   2.360  13.297 -0.0757 -0.0164  0.2924
 8717W        W26241   7.743  15.858  11.659 -0.0090 -0.1557  0.1409
 8718W        W26242   9.427   5.189   4.283  0.2048 -0.1239  0.1311
 8719W        W26243  10.152  10.905   0.602 -0.0764  0.3277  0.0248
 8720W        W26244  13.742  15.367  11.197  0.2190 -0.1263  0.1390
 8721W        W26245   2.094   4.601  13.901  0.0768 -0.3132  0.1182
 8722W        W26246  11.533  10.667   1.225 -0.0330  0.1314 -0.0150
 8723W        W26247   5.831   9.658  14.439  0.2838 -0.3532  0.2228
 8724W        W26248   1.734  16.328   4.171  0.2121 -0.1453  0.1611
 8725W        W26249   0.140  15.963   2.544 -0.1508  0.3957 -0.2437
 8726W        W26250   9.754   9.636   4.158 -0.1317 -0.0038  0.2694
 8727W        W26251   9.588   2.774  11.334 -0.0163  0.3621 -0.0033
 8728W        W26252   1.968  15.657   1.186  0.1741  0.1619  0.1164
 8729W        W26253   9.766   4.795  12.960  0.0410 -0.3730 -0.0994
 8730W        W26254  10.168   4.182   4.254  0.0879  0.0201 -0.1746
 8731W        W26255   7.719   1.993   1.694 -0.1203 -0.1062 -0.1342
 8732W        W26256   7.546   9.241  11.605 -0.1064 -0.3246  0.1003
 8733W        W26257   3.842   1.775  11.334  0.1240 -0.0654 -0.1775
 8734W        W26258   5.606   3.259  11.478  0.3566  0.0367  0.1643
 8735W        W26259   8.700  15.817  11.985  0.0299 -0.1047  0.1950
 8736W        W26260   0.292   9.037  12.537  0.1314  0.0878  0.2385
 8737W        W26261   7.705  14.380  11.867  0.1316 -0.0864 -0.0661
 8738W        W26262   4.558   0.312  13.426  0.1075 -0.1449  0.0733
 8739W        W26263   4.561   7.894   0.679 -0.0623 -0.0889  0.1359
 8740W        W26264  15.990   8.717   4.141  0.2167 -0.0688 -0.3313
 8741W        W26265   3.629  12.232  12.009  0.0357 -0.2839 -0.3676
 8742W        W26266   6.486  14.064   1.155 -0.0873  0.1614  0.0091
 8743W        W26267  12.743  15.228  12.615  0.0418 -0.2036 -0.2250
 8744W        W26268   9.554  10.188   0.813 -0.0872  0.2063  0.3433
 8745W        W26269  11.599  13.289  15.178 -0.0616  0.2110 -0.0129
 8746W        W26270  10.738   5.687  13.447  0.1603  0.2698  0.2081
 8747W        W26271   6.307  16.672  11.397  0.1775  0.2039 -0.1473
 8748W        W26272   3.387  10.823  13.972 -0.2605 -0.2383  0.1956
 8749W        W26273   3.082   2.894  11.673 -0.3154  0.1618  0.1115
 8750W        W26274  12.705   6.449   0.321  0.0889  0.6358 -0.1274
 8751W        W26275   4.851   9.222   3.407  0.3526 -0.1434  0.1685
 8752W        W26276  12.895   8.602   4.346 -0.1241 -0.1048 -0.0252
 8753W        W26277   1.987  10.454  14.741  0.0424  0.3015  0.1604
 8754W        W26278   3.309   6.632   4.385 -0.0525  0.2290 -0.1392
 8755W        W26279  15.811   2.554  15.120  0.0346 -0.3281 -0.1215
 8756W        W26280  17.653  12.751   3.368 -0.1956  0.1540  0.1702
 8757W        W26281  10.205  14.408   3.746 -0.0720  0.0939 -0.0913
 8758W        W26282  18.154   2.032  15.017  0.1616  0.1606 -0.1731
 8759W        W26283  13.033  12.681   3.799 -0.1642 -0.1334 -0.2754
 8760W        W26284   2.913  10.054   1.836 -0.1332  0.1015 -0.2382
 8761W        W26285   3.351   9.167   4.545 -0.0575  0.3499 -0.0161
 8762W        W26286   8.512  12.769   0.002 -0.0940  0.0611  0.1636
 8763W        W26287   3.361  11.244  13.609  0.2030  0.2114 -0.0711
 8764W        W26288   4.827  15.592  13.019 -0.1167 -0.2765 -0.3001
 8765W        W26289  12.223   7.659  11.653 -0.0659  0.2147  0.0160
 8766W        W26290   9.866   7.082  15.440  0.1287  0.0920  0.0973
 8767W        W26291  17.851   9.339  12.000  0.1616  0.2993 -0.3030
 8768W        W26292  16.264  13.012  14.566  0.2149  0.3410 -0.2852
 8769W        W26293   5.557  17.368  12.632 -0.1074  0.2476 -0.2505
 8770W        W26294   3.900   1.040   3.820 -0.1820 -0.1750  0.0622
 8771W        W26295  10.223  11.881  14.604 -0.0405 -0.0848  0.0198
 8772W        W26296  11.692  17.620   4.362 -0.0041  0.2636  0.2914
 8773W        W26297  12.036   0.234   2.713 -0.1049  0.2505  0.2675
 8774W        W26298   4.569   2.852  11.371 -0.1609  0.0145 -0.0903
 8775W        W26299  18.146   6.213   0.754  0.1209 -0.2198 -0.0422
 8776W        W26300  17.118   9.435  13.203 -0.0313  0.2107 -0.1471
 8777W        W26301   5.378  13.431  15.654  0.2227 -0.1008  0.0055
 8778W        W26302  10.815   5.943   2.979  0.0301  0.0722  0.1969
 8779W        W26303  17.914   4.410  15.192  0.1642  0.2558  0.0325
 8780W        W26304   6.068   7.770   2.165  0.3301  0.1054  0.0359
 8781W        W26305   3.693   0.090  13.735 -0.1669  0.0314 -0.0513
 8782W        W26306   8.616   5.825  14.910 -0.2212 -0.1576 -0.2303
 8783W        W26307   9.780   6.199   0.481 -0.0007  0.0021  0.1808
 8784W        W26308  17.574   7.862  11.557  0.0614 -0.0173 -0.0263
 8785W        W26309  16.241   5.798   3.045 -0.1826  0.4009  0.1797
 8786W        W26310   8.486  12.227  12.157  0.0476  0.0354 -0.1072
 8787W        W26311   7.726   6.330   3.820  0.2201  0.4784  0.0460
 8788W        W26312  11.800   6.400   0.078  0.0918  0.1306 -0.2777
 8789W        W26313  17.787   9.943   2.386  0.0648 -0.2217  0.1135
 8790W        W26314   5.239   1.603  12.532  0.0589  0.0458 -0.0151
 8791W        W26315   8.048   0.245   2.743  0.0495 -0.0348  0.3668
 8792W        W26316   4.346  16.541  14.425  0.1112  0.3180  0.1072
 8793W        W26317  13.794  13.748  11.516  0.1566 -0.0469 -0.1995
 8794W        W26318  10.655  15.266   0.125  0.2201  0.2389 -0.1395
 8795W        W26319   1.209   0.930  12.114 -0.3724  0.0515  0.1486
 8796W        W26320  13.588  13.383  13.561 -0.0655 -0.1943 -0.4768
 8797W        W26321  12.277   0.961   0.413  0.2318 -0.2890 -0.0815
 8798W        W26322   8.982   6.450   0.098  0.5135 -0.0259  0.2858
 8799W        W26323   0.937  14.662  12.137 -0.4112  0.1573 -0.2226
 8800W        W26324  12.819   7.817   1.703  0.0098  0.3041  0.3354
 8801W        W26325  13.752  14.332  12.153 -0.0181 -0.0049 -0.2261
 8802W        W26326   1.580  14.544  14.710 -0.0965 -0.3025  0.1316
 8803W        W26327   9.297   7.921   2.312  0.1580  0.2548  0.2522
 8804W        W26328  10.621   7.049   1.651 -0.3175 -0.1178 -0.2923
 8805W        W26329   1.075  11.225   0.649  0.2958  0.1307 -0.0840
 8806W        W26330  15.486   8.181  14.885  0.1399 -0.1682 -0.3271
 8807W        W26331  11.630   3.690   2.525 -0.2056 -0.2817  0.1080
 8808W        W26332   1.013  13.183   1.303  0.1242 -0.4280 -0.4148
 8809W        W26333   7.681   4.206   2.013  0.0318 -0.0639 -0.1157
 8810W        W26334   9.753   1.642  11.955  0.3979  0.1479  0.0020
 8811W        W26335  12.852  15.015   2.024 -0.1799 -0.2905  0.0133
 8812W        W26336   4.285  10.996   2.029  0.1259 -0.0834 -0.0886
 8813W        W26337   9.294   3.253  14.729  0.3860 -0.1719  0.0639
 8814W        W26338   9.447   6.776   4.743 -0.0260 -0.0557  0.0056
 8815W        W26339   0.078  16.238   2.026 -0.3896  0.0734 -0.2432
 8816W        W26340  17.060  15.429  15.078  0.3459  0.1080 -0.2388
 8817W        W26341   1.709   1.112  12.100 -0.0299 -0.0960  0.0632
 8818W        W26342   3.071  17.502  14.270  0.1490 -0.0751  0.3445
 8819W        W26343   0.758  17.431   0.967 -0.0164 -0.4205  0.1088
 8820W        W26344   7.686  17.618  13.127 -0.1085  0.0565  0.0972
 8821W        W26345  11.502  14.901  15.820 -0.4615  0.1025  0.0176
 8822W        W26346  11.247   1.982   3.248 -0.3065 -0.1118  0.1860
 8823W        W26347  16.024   8.889  14.939  0.1086  0.1250 -0.0790
 8824W        W26348   8.672   0.910  13.497  0.1189  0.0495 -0.3130
 8825W        W26349   1.418  12.311   1.192 -0.2177 -0.0681  0.0009
 8826W        W26350   7.671  11.832   1.989  0.1389  0.0576 -0.0372
 8827W        W26351   1.561  10.711   2.504  0.2026 -0.0148 -0.0996
 8828W        W26352   8.237   5.745   2.880 -0.1143 -0.4684  0.0084
 8829W        W26353  11.100   3.327  13.847  0.0083  0.1364 -0.0191
 8830W        W26354  12.323  15.509  15.400  0.1968 -0.0333  0.1000
 8831W        W26355  13.424   4.844   4.436 -0.2354  0.1421 -0.0497
 8832W        W26356   7.080   7.081   4.396 -0.0848  0.0551  0.5081
 8833W        W26357   3.405  16.915   3.232  0.1280  0.1215 -0.3617
 8834W        W26358  14.586  16.019  12.015  0.0147  0.2306  0.1826
 8835W        W26359   4.526  11.173  12.228  0.0107  0.2101 -0.1065
 8836W        W26360   0.485  15.895   3.656  0.1235  0.0209  0.0028
 8837W        W26361   7.310   0.290  13.071 -0.1092  0.4895  0.1055
 8838W        W26362  13.905   0.244   4.042 -0.0094  0.2488 -0.2608
 8839W        W26363  17.151   0.082   3.612 -0.0075  0.1317 -0.2319
 8840W        W26364   3.294  17.593   4.727 -0.1571 -0.2906  0.1577
 8841W        W26365   6.125  17.216  13.997  0.0880 -0.1051  0.0656
 8842W        W26366   8.909  16.577  14.820 -0.1305 -0.0235 -0.0757
 8843W        W26367   9.203   7.185   2.918 -0.4304  0.0261  0.0813
 8844W        W26368   1.347  16.415  11.724  0.0628 -0.0100 -0.0262
 8845W        W26369  12.602  15.620   2.720  0.0371  0.2927  0.0491
 8846W        W26370   8.513   7.149   3.104  0.1176 -0.1181 -0.0437
 8847W        W26371  10.205   7.856   1.135  0.1393  0.2779  0.5930
 8848W        W26372   6.277  17.007   4.247 -0.1551 -0.0531  0.1936
 8849W        W26373  12.541  10.257  14.646 -0.0262 -0.1964  0.1586
 8850W        W26374  13.944  17.372   5.654 -0.1568  0.1395  0.2432
 8851W        W26375  12.999   1.988  14.584  0.0232 -0.0767  0.1864
 8852W        W26376   2.492   0.004   4.611 -0.0499  0.0398 -0.3770
 8853W        W26377   4.487   0.365   4.473 -0.2539  0.0166  0.1027
 8854W        W26378  13.874   9.520  13.498  0.1200 -0.0763 -0.1408
 8855W        W26379  13.865  10.724   2.521  0.2902 -0.2721 -0.2839
 8856W        W26380   6.783  11.641   1.665 -0.2497  0.0640  0.1804
 8857W        W26381   0.670  17.125   4.053 -0.1394  0.1245 -0.1429
 8858W        W26382  14.270   7.924  14.697 -0.2253  0.3271  0.0275
 8859W        W26383   5.787  17.577  14.195  0.0746 -0.2954  0.1025
 8860W        W26384  14.228  15.722  14.988  0.2018 -0.0535 -0.5850
 8861W        W26385  15.072  12.730   4.707 -0.0124  0.0469 -0.1508
 8862W        W26386  14.731   0.898  15.255 -0.0850  0.0527  0.2945
 8863W        W26387  13.634   4.278  14.266 -0.0738  0.0719  0.0820
 8864W        W26388   1.252   5.515   4.771 -0.0820  0.0306 -0.0135
 8865W        W26389   9.325  15.829  12.868 -0.2289 -0.1552  0.0231
 8866W        W26390   4.618  11.138   1.651 -0.2009 -0.2547  0.2530
 8867W        W26391  10.030   5.047   4.549  0.0697 -0.0715 -0.0937
 8868W        W26392  17.294   8.725  15.308 -0.0971  0.1022  0.0050
 8869W        W26393   6.147  10.447   2.864 -0.0671  0.1020  0.0070
 8870W        W26394   1.021  11.277  13.353  0.0141  0.0690  0.0421
 8871W        W26395   2.916   3.381  11.953  0.0929 -0.0333 -0.2039
 8872W        W26396   4.590   8.466  12.637 -0.1603  0.0615 -0.0475
 8873W        W26397   1.217   4.530   1.846 -0.2075 -0.4827  0.1634
 8874W        W26398   1.837  13.939  12.357 -0.1467  0.1441 -0.1253
 8875W        W26399   1.527  12.140   4.540  0.0121 -0.2797  0.1803
 8876W        W26400   3.084  16.221   1.944  0.1636 -0.1699 -0.2839
 8877W        W26401   5.489  10.473  14.327  0.3071  0.2587  0.3146
 8878W        W26402   4.205   8.611  13.453  0.1944  0.0089  0.2875
 8879W        W26403  15.404  12.219  13.412 -0.1709 -0.2113  0.2517
 8880W        W26404   6.497  15.881   4.831  0.2352  0.3574 -0.1646
 8881W        W26405  14.556  13.973   4.401 -0.1155  0.0181  0.1076
 8882W        W26406  14.992   4.970   1.964  0.0683 -0.1671  0.2011
 8883W        W26407   2.185  11.137   1.033 -0.2564  0.0095  0.2854
 8884W        W26408  12.440  13.077   0.326 -0.0412 -0.3002 -0.1438
 8885W        W26409   6.941  10.958   0.713 -0.0140  0.0646  0.3101
 8886W        W26410   3.075  17.221   4.966 -0.2815 -0.1711  0.0341
 8887W        W26411  16.826   7.105   4.326  0.1599 -0.0238 -0.1596
 8888W        W26412   3.439   7.245   3.627  0.0070 -0.2344 -0.2952
 8889W        W26413   2.039   8.345   2.927 -0.1912  0.2236  0.0515
 8890W        W26414   6.636   6.496  12.036 -0.5338 -0.1919 -0.2579
 8891W        W26415   2.824  11.742  11.747 -0.1678 -0.1741 -0.0203
 8892W        W26416   0.585   9.296   1.767  0.0308  0.1761  0.0479
 8893W        W26417  17.730   6.561   3.985  0.0723 -0.0888 -0.2543
 8894W        W26418  16.584   6.313  11.918 -0.6143  0.0254  0.2385
 8895W        W26419   0.113   8.073   0.987  0.1402  0.1024  0.3742
 8896W        W26420  13.898   4.698  12.166  0.0842 -0.2936  0.0154
 8897W        W26421  11.167   1.445  15.742  0.1379  0.1192  0.2501
 8898W        W26422  11.532  16.684   2.723 -0.1209 -0.0809  0.1153
 8899W        W26423  13.525  17.878  12.720  0.1315 -0.0225  0.0322
 8900W        W26424  15.486   9.839  13.190 -0.0482 -0.2045  0.0868
 8901W        W26425  15.501  13.443  11.738 -0.0832  0.0428  0.0129
 8902W        W26426   8.242   9.559  12.228 -0.1859  0.1590 -0.1345
 8903W        W26427  12.618   4.929  14.962  0.0051  0.1416 -0.3146
 8904W        W26428   3.960   3.757   3.264  0.2080  0.1316  0.1765
 8905W        W26429  15.408   8.910   4.955 -0.0490  0.1956 -0.0912
 8906W        W26430   4.901  11.431   3.636 -0.1769 -0.2249  0.0327
 8907W        W26431   6.851  15.390  12.979 -0.0779  0.0094  0.1394
 8908W        W26432   6.245   0.887   4.573 -0.2243  0.0296  0.3573
 8909W        W26433  14.884   3.977   0.585  0.0494 -0.2702 -0.0824
 8910W        W26434   3.860   9.993   2.811  0.2972  0.1823  0.0769
 8911W        W26435  10.517  16.840  14.713 -0.0431  0.2547 -0.2865
 8912W        W26436   8.222  13.825  13.067  0.0198 -0.0718 -0.3348
 8913W        W26437  12.409  16.811  12.221  0.0365 -0.3387 -0.0173
 8914W        W26438  13.961  18.069   1.276  0.4077  0.2485  0.3252
 8915W        W26439   6.289   6.961   4.059 -0.3608 -0.2691 -0.0066
 8916W        W26440   6.785   8.566  14.406 -0.0203 -0.3724  0.1799
 8917W        W26441   6.482   3.279   1.781 -0.1551  0.0359 -0.1290
 8918W        W26442   1.774   1.490   2.331  0.0975 -0.2871 -0.1219
 8919W        W26443   5.434  17.631   4.487  0.0576 -0.0218 -0.2307
 8920W        W26444  13.380  15.870   1.733  0.1378  0.2139  0.0294
 8921W        W26445  13.373  12.879   4.954 -0.4275 -0.0994 -0.1372
 8922W        W26446   7.707   4.601  13.640  0.0254  0.1247  0.1486
 8923W        W26447  13.628  14.456  15.635 -0.0613  0.1784 -0.1235
 8924W        W26448   2.836   8.993   6.064  0.0548  0.0999  0.1802
 8925W        W26449   5.849  11.687  12.494 -0.0246 -0.0654 -0.2301
 8926W        W26450  16.508  13.467  14.814 -0.0633  0.1143  0.4909
 8927W        W26451  10.487  13.469   1.196  0.0071  0.0265 -0.0827
 8928W        W26452   6.996   1.565   4.558  0.1807 -0.2253 -0.0200
 8929W        W26453   0.817  11.120  14.199  0.0627  0.1096 -0.3355
 8930W        W26454   7.044   3.320  11.731  0.0103 -0.0349  0.1080
 8931W        W26455   5.158   6.543  12.109  0.1565 -0.0530  0.0736
 8932W        W26456   7.812   9.537  10.422 -0.1483  0.3749 -0.2084
 8933W        W26457  16.324   1.792  13.297  0.0951  0.0540 -0.1868
 8934W        W26458  17.108  17.756   1.201  0.0944  0.0069  0.3407
 8935W        W26459   8.014  13.174   1.840  0.1700 -0.0718  0.1953
 8936W        W26460   4.539  13.903   1.634 -0.1577  0.0894  0.2561
 8937W        W26461  12.286   3.019  15.437 -0.0912 -0.0543 -0.1000
 8938W        W26462   6.722   6.962  11.239  0.0087  0.3255  0.0486
 8939W        W26463  15.632   6.535   1.936 -0.1253  0.0778  0.0385
 8940W        W26464   1.983  10.299   3.345  0.1610  0.0700  0.0276
 8941W        W26465  11.373  13.157   1.508 -0.3282 -0.1772 -0.2515
 8942W        W26466   6.772  14.217   1.631  0.1252 -0.1433 -0.2243
 8943W        W26467   6.856  12.789   5.155 -0.0871  0.1508 -0.0177
 8944W        W26468   4.692   8.007  12.640 -0.1517 -0.0411  0.0947
 8945W        W26469   8.199  10.997   1.330 -0.2253 -0.0680  0.0833
 8946W        W26470   6.861  12.346  14.727 -0.0776 -0.2134 -0.2749
 8947W        W26471  16.455   7.513   0.610  0.0610  0.0283  0.2790
 8948W        W26472   4.525   2.151   0.510  0.2781  0.3259 -0.0196
 8949W        W26473   2.409   5.985   2.783  0.0392 -0.1967 -0.0391
 8950W        W26474  17.382   8.150  11.889  0.1778 -0.0026 -0.3089
 8951W        W26475   1.751   2.917  11.581  0.0520  0.0347 -0.0990
 8952W        W26476   0.627   6.728   1.362 -0.1643 -0.1809  0.2529
 8953W        W26477  17.625   2.775   4.808  0.2611  0.2663 -0.1569
 8954W        W26478  17.085   3.834   1.030  0.2654 -0.2670  0.1214
 8955W        W26479  13.136  10.323   0.984 -0.1969 -0.2540 -0.0419
 8956W        W26480   1.690  16.427  11.280 -0.0576 -0.3659  0.1820
 8957W        W26481  14.728   7.148   3.872  0.2446 -0.2092  0.0060
 8958W        W26482  16.226   6.109  12.230 -0.2477  0.1941 -0.3876
 8959W        W26483   7.626  13.852   0.539 -0.1872  0.1870 -0.0992
 8960W        W26484  17.514  15.555   1.859  0.1645 -0.3665 -0.0241
 8961W        W26485   2.804  15.827  14.101 -0.1145  0.0222 -0.0816
 8962W        W26486   9.222  15.337  12.701  0.1352 -0.0578 -0.1931
 8963W        W26487   8.027   6.513  10.759  0.0009 -0.1429 -0.0010
 8964W        W26488   0.692  10.131  14.393  0.0988  0.3229 -0.2995
 8965W        W26489   1.752  17.523  15.233 -0.2221  0.1365 -0.1844
 8966W        W26490   0.726   2.191  12.068  0.0998 -0.0988 -0.1029
 8967W        W26491  17.178  12.920  10.911  0.0238  0.2552 -0.4142
 8968W        W26492   6.790   4.436  11.415 -0.2623 -0.0068  0.1420
 8969W        W26493  17.311   7.641  11.933 -0.0523  0.0943  0.1903
 8970W        W26494   6.331   9.786  15.198 -0.2528 -0.0817 -0.0092
 8971W        W26495  16.756  10.395   5.090  0.2038  0.0150  0.3411
 8972W        W26496   6.552   8.591  11.070 -0.2247  0.0795 -0.0361
 8973W        W26497  14.221   9.405  13.884 -0.3123 -0.1470 -0.1714
 8974W        W26498  17.685   4.211  12.725  0.1092  0.4453 -0.2786
 8975W        W26499   8.169  14.187  11.685 -0.1310  0.0335  0.0717
 8976W        W26500  11.544  13.120   5.013 -0.0222  0.0594  0.2875
 8977W        W26501   0.169  11.803  13.381  0.3844 -0.0131 -0.3139
 8978W        W26502   0.458  12.936   2.332 -0.2585 -0.1213  0.1323
 8979W        W26503   8.426   4.309  11.351  0.4579 -0.1486  0.1430
 8980W        W26504   4.416  16.501  14.938  0.0066 -0.2373  0.0927
 8981W        W26505   8.386   6.453  15.487  0.0772 -0.1841 -0.0397
 8982W        W26506   4.464  16.556  11.506 -0.1250 -0.3952  0.0211
 8983W        W26507  16.309   8.443  14.183 -0.1177 -0.0604  0.2282
 8984W        W26508   6.374  12.121   3.477 -0.0533 -0.1724  0.0109
 8985W        W26509   1.332   3.448  15.052 -0.1723 -0.0163  0.0494
 8986W        W26510  11.638   6.397   0.985  0.3552 -0.4297 -0.1986
 8987W        W26511   2.465  13.216  12.981 -0.0613  0.2745  0.0741
 8988W        W26512   8.964   8.221   5.761 -0.1267  0.2468 -0.0971
 8989W        W26513  13.612  12.716  15.734 -0.3221  0.1128  0.2704
 8990W        W26514   9.065   2.439  12.130 -0.1432  0.2824  0.0602
 8991W        W26515   9.245   8.009   1.228 -0.1395  0.1928  0.0051
 8992W        W26516   6.996  10.328   0.007 -0.4490 -0.2097 -0.1155
 8993W        W26517   1.024   4.694   4.916  0.0004  0.0991  0.2043
 8994W        W26518   5.984   9.744  11.759 -0.0336 -0.1765 -0.3594
 8995W        W26519   6.950   1.272  12.557  0.1238 -0.0970 -0.1031
 8996W        W26520   3.007   8.793   1.839 -0.2185  0.2365  0.1261
 8997W        W26521   9.744   8.061  14.415 -0.0072  0.0582  0.2485
 8998W        W26522  11.272   5.810  14.636  0.0673 -0.2012 -0.1357
 8999W        W26523   3.311  11.204  11.041  0.0039 -0.0112  0.1359
 9000W        W26524  15.952  16.342   3.379  0.0548  0.0369 -0.0804
 9001W        W26525   8.671  11.101  13.723  0.2705  0.0564  0.1072
 9002W        W26526   8.271   7.727  12.274  0.2016 -0.2427 -0.2946
 9003W        W26527  17.021  17.217  14.380 -0.1467  0.3252  0.2413
 9004W        W26528  13.282   5.167  12.250 -0.0326 -0.0305 -0.0924
 9005W        W26529   4.607  15.157  13.079  0.5911  0.1597  0.0835
 9006W        W26530  12.691   7.454  15.676 -0.4127  0.1765 -0.2748
 9007W        W26531  16.421   6.928  14.299  0.0309  0.1378  0.1333
 9008W        W26532   5.743  14.805  11.356  0.0027  0.0954  0.0068
 9009W        W26533   1.066   3.163   3.436  0.0262 -0.1738  0.0307
 9010W        W26534   7.968   1.292  10.365  0.0976  0.0499 -0.3132
 9011W        W26535   2.332   8.495   4.921  0.0484  0.0919 -0.1521
 9012W        W26536   3.844   9.594   3.252 -0.0303 -0.1048 -0.0128
 9013W        W26537  18.142   6.283   3.887  0.2683  0.2226 -0.0112
 9014W        W26538   9.331  17.356  13.376 -0.0346  0.2281  0.1787
 9015W        W26539  11.025   2.066   1.083  0.1398 -0.1371 -0.1476
 9016W        W26540   5.971   8.722  14.245 -0.0737 -0.2795 -0.0588
 9017W        W26541   6.352   2.446   0.681 -0.4303 -0.1028 -0.1118
 9018W        W26542  12.873  10.556   2.018 -0.0713  0.0588 -0.4126
 9019W        W26543  16.339   1.232  13.019  0.1201 -0.1187  0.0190
 9020W        W26544   5.843   8.825  13.228 -0.1339 -0.2883  0.0142
 9021W        W26545   3.278   0.858  14.292  0.1523  0.2369 -0.0382
 9022W        W26546  12.308  18.012  11.580  0.0357  0.2668  0.0298
 9023W        W26547  14.509   1.105  11.923 -0.3542  0.1102  0.1394
 9024W        W26548   1.604   2.867   2.092 -0.1692  0.0817 -0.2540
 9025W        W26549  14.100  17.217  12.752 -0.1372 -0.0916 -0.1020
 9026W        W26550   6.217  16.237  10.691  0.0567 -0.1885 -0.3239
 9027W        W26551   3.211  10.953  14.447  0.0515  0.0761  0.0511
 9028W        W26552   3.500  13.182  13.156 -0.1616 -0.1609  0.2333
 9029W        W26553   3.317   1.081   0.552  0.2582 -0.1336 -0.1553
 9030W        W26554  10.546  13.078   3.762  0.1317  0.0311 -0.1042
 9031W        W26555   6.273  13.961   4.014 -0.2556  0.1174 -0.1539
 9032W        W26556  13.079  15.982   2.141 -0.0251  0.1066 -0.2781
 9033W        W26557   2.435  11.668  12.590 -0.3178  0.2698 -0.3465
 9034W        W26558   8.153  15.525   1.807 -0.0855  0.1758 -0.2627
 9035W        W26559   1.000   1.433   1.335 -0.1428  0.0746 -0.0749
 9036W        W26560   2.534  16.824  12.186  0.0583 -0.1261  0.1412
 9037W        W26561  10.305   6.061  11.958 -0.0566  0.1377  0.0988
 9038W        W26562  10.449  12.468   3.735 -0.0042 -0.1213  0.0528
 9039W        W26563   1.675   4.405   3.767 -0.0358 -0.1409  0.0242
 9040W        W26564  10.734   3.227   4.043 -0.2005  0.3511 -0.0852
 9041W        W26565  13.287  15.469   3.117  0.2358 -0.1814 -0.3426
 9042W        W26566   2.872   0.354  14.955  0.0620  0.1307 -0.0508
 9043W        W26567   7.259  17.596  13.376  0.4863 -0.0985  0.1201
 9044W        W26568   7.302   9.986   3.623  0.1492 -0.0175  0.0826
 9045W        W26569  14.356   1.990  11.119  0.0093 -0.1079  0.0964
 9046W        W26570   7.336   4.735  11.776 -0.1638 -0.0662 -0.1876
 9047W        W26571  15.834   0.513  15.932 -0.1815 -0.0193  0.0148
 9048W        W26572   3.837   7.543   3.742  0.1257  0.1619  0.0698
 9049W        W26573   1.418   2.279  15.814 -0.3408 -0.0231 -0.0305
 9050W        W26574  15.617   5.826   4.506 -0.2236  0.2824  0.1484
 9051W        W26575  14.478   8.978  11.750  0.1141 -0.0325  0.0762
 9052W        W26576   1.391   1.510  11.120 -0.1520  0.1240  0.2848
 9053W        W26577  11.235  17.827  11.190 -0.1516  0.1112 -0.1916
 9054W        W26578  11.095  10.468   0.984 -0.1891  0.0784 -0.1669
 9055W        W26579   3.054  13.045  12.328 -0.0754  0.0117  0.1829
 9056W        W26580  17.403  18.144  11.667 -0.0297  0.0170 -0.0810
 9057W        W26581  11.539   5.899  16.011  0.3051  0.1755  0.1854
 9058W        W26582   5.471   8.306   3.561  0.4253 -0.0341  0.1114
 9059W        W26583   6.082   5.308  12.398 -0.0655 -0.3792 -0.2767
 9060W        W26584  10.418   1.659   2.523 -0.0035 -0.2399 -0.2352
 9061W        W26585  10.392   6.026   1.056 -0.0113 -0.3584  0.0071
 9062W        W26586  10.447   0.113  15.995 -0.0760  0.0155 -0.3085
 9063W        W26587  11.620   9.494  14.308 -0.0941 -0.0694  0.0608
 9064W        W26588   2.818   6.195   4.927  0.1267  0.1531  0.1382
 9065W        W26589   4.964  15.854   0.183  0.2299 -0.0753 -0.3642
 9066W        W26590  10.106   8.406   1.428  0.0334 -0.1667 -0.2388
 9067W        W26591  13.145   9.114   3.633  0.2706 -0.5291 -0.2593
 9068W        W26592  11.126   4.074   0.172 -0.1224  0.1199  0.1751
 9069W        W26593   4.553  13.997   4.258  0.0185  0.1709  0.0430
 9070W        W26594   7.241  16.239  13.111  0.1844 -0.1519 -0.0116
 9071W        W26595  14.378   2.031  13.424 -0.0093 -0.0829 -0.0765
 9072W        W26596  14.133  18.016   3.014 -0.2592 -0.0530 -0.0566
 9073W        W26597  12.849  15.855   1.217 -0.1484 -0.3757  0.2841
 9074W        W26598   3.420  18.018   0.459  0.2469  0.1197 -0.0053
 9075W        W26599  14.169   3.337  13.237 -0.0625  0.0575  0.0415
 9076W        W26600  15.600   2.817  13.084  0.2683  0.0951 -0.1351
 9077W        W26601  16.560   9.562   5.562 -0.0685 -0.0215 -0.1225
 9078W        W26602  16.466  14.588   1.630  0.2987  0.1228  0.2305
 9079W        W26603  16.497   4.068   1.936  0.0383 -0.0553 -0.0805
 9080W        W26604   7.551   8.283  15.916  0.0119 -0.1112 -0.0147
 9081W        W26605  15.850  10.756   0.262  0.2960 -0.2255 -0.1641
 9082W        W26606  10.138   9.559  13.739  0.0870  0.1297 -0.1534
 9083W        W26607   2.942  17.860   0.004  0.1773 -0.1286 -0.1545
 9084W        W26608  13.682  10.391  14.690  0.1247 -0.0921  0.3158
 9085W        W26609  17.137   9.037  11.436 -0.0162 -0.1580 -0.3056
 9086W        W26610   8.636  15.868  11.370 -0.0757  0.2512 -0.0501
 9087W        W26611   9.655  14.250   3.512 -0.0643 -0.4902 -0.3218
 9088W        W26612  11.432  12.776  15.346 -0.1000 -0.3082  0.0076
 9089W        W26613  17.826  17.839  14.554 -0.2178  0.1604 -0.1338
 9090W        W26614  13.543   1.023  12.157 -0.1365  0.0369 -0.0591
 9091W        W26615   7.250  13.604   2.948  0.1084 -0.3741  0.0472
 9092W        W26616  12.609   8.224  14.740  0.0320 -0.0350 -0.2930
 9093W        W26617   5.000  10.972   0.055  0.1496 -0.3776  0.0673
 9094W        W26618  16.410   9.215  11.957 -0.0763  0.0916 -0.1351
 9095W        W26619  18.000   7.154  15.285 -0.1076 -0.1561 -0.0050
 9096W        W26620  13.696   6.769   5.271 -0.0196  0.0444  0.3716
 9097W        W26621   5.878   0.337   4.521  0.1997  0.2203 -0.0620
 9098W        W26622   9.248   6.297   2.067 -0.1897  0.2471  0.1511
 9099W        W26623   0.277   6.601  15.657 -0.1996  0.5476 -0.0011
 9100W        W26624   0.452   5.159   2.824  0.1648  0.0177  0.1328
 9101W        W26625   6.841   3.694  16.047 -0.0459 -0.1382 -0.0468
 9102W        W26626   4.122  11.318  14.131 -0.0269  0.1192  0.1261
 9103W        W26627   7.735   6.583  12.775 -0.0957 -0.3654 -0.0353
 9104W        W26628   7.315   9.628  10.972 -0.0835 -0.1453 -0.1410
 9105W        W26629  10.848   2.791  13.858 -0.0286  0.1574  0.0334
 9106W        W26630   2.556  10.665   5.521  0.2449 -0.2210 -0.0904
 9107W        W26631  18.057   1.657   3.577 -0.1117  0.0905  0.0304
 9108W        W26632  13.853   3.777   3.279  0.1751  0.4127 -0.0685
 9109W        W26633   4.676   5.501  15.910 -0.0046 -0.1755 -0.1360
 9110W        W26634   6.577   5.094  13.169  0.1575  0.2099 -0.2112
 9111W        W26635  12.729   6.847  15.207  0.0210  0.3572 -0.1439
 9112W        W26636   4.670   0.867  11.518  0.2104  0.0277  0.1543
 9113W        W26637   1.608  11.214  13.097 -0.0053 -0.0449 -0.0231
 9114W        W26638  17.386   5.321   5.030  0.0127  0.1823 -0.1886
 9115W        W26639   3.927  17.046   3.192 -0.0761 -0.0816 -0.2403
 9116W        W26640   8.778  15.303  12.025  0.0316 -0.3783 -0.1247
 9117W        W26641  12.463   9.789   3.051 -0.2106 -0.0856 -0.1662
 9118W        W26642  13.922   4.027  15.666 -0.0331  0.0236  0.0653
 9119W        W26643   5.932  14.974  14.430 -0.1034 -0.0239 -0.2080
 9120W        W26644   9.568  16.080   4.643 -0.0068  0.3094 -0.1984
 9121W        W26645  12.597  14.250   3.439  0.0654 -0.1313 -0.3673
 9122W        W26646   9.302   1.894  12.092  0.3581  0.1092  0.0254
 9123W        W26647  14.193  17.597  10.806 -0.0776  0.2153  0.1410
 9124W        W26648   9.702   3.426   3.238  0.1746 -0.1493 -0.3527
 9125W        W26649  14.638  15.632  13.809  0.1803  0.1533 -0.1198
 9126W        W26650  17.005  10.668   2.711 -0.0695  0.0867  0.0322
 9127W        W26651  13.130  11.589  14.196  0.1588 -0.0351 -0.0347
 9128W        W26652  15.481   6.851   2.505  0.0917 -0.0043 -0.1348
 9129W        W26653  11.904  10.201  12.912 -0.0650 -0.1141  0.4020
 9130W        W26654  12.859  10.963  10.880 -0.0737  0.1473 -0.1323
 9131W        W26655   1.711  12.543   6.027 -0.1134 -0.0886 -0.0699
 9132W        W26656   7.961   0.040  14.458 -0.1973 -0.0062 -0.1670
 9133W        W26657  14.074  14.205  11.073 -0.3237  0.1629 -0.0510
 9134W        W26658   8.335  11.665  12.181  0.0879  0.1053  0.0745
 9135W        W26659   9.956   8.456  13.327  0.2351  0.0659  0.0007
 9136W        W26660  11.959   0.147  11.437 -0.6297  0.0812 -0.0142
 9137W        W26661   8.163   4.561   3.630  0.2245  0.0556 -0.2165
 9138W        W26662  13.871  13.087  12.859  0.2597  0.0490  0.0862
 9139W        W26663   3.073   8.032  14.484  0.0884  0.0423 -0.1913
 9140W        W26664  12.686   8.354   2.503 -0.0514  0.1242 -0.0854
 9141W        W26665  15.151  11.531  13.857 -0.1480  0.0611  0.0084
 9142W        W26666  14.913   1.131   4.403 -0.1305 -0.1358  0.0808
 9143W        W26667   7.260   4.594   1.554  0.0107  0.0209  0.2279
 9144W        W26668   4.620   1.236  11.967 -0.2618  0.1127 -0.0514
 9145W        W26669   0.096   6.108   1.601 -0.2732 -0.0138  0.0882
 9146W        W26670   5.648   5.105  12.619  0.1024  0.0059 -0.2082
 9147W        W26671   0.596   3.319   3.521 -0.0134  0.3464 -0.0943
 9148W        W26672  11.166   7.562  12.677  0.0909 -0.0443  0.3419
 9149W        W26673   1.085  17.973   0.152  0.0398  0.3496 -0.3281
 9150W        W26674  14.111  14.393  14.225  0.0065 -0.2153 -0.2111
 9151W        W26675  17.492   9.762   1.129  0.0487 -0.2263  0.2529
 9152W        W26676   5.182  11.446   9.694  0.1756 -0.2345 -0.3348
 9153W        W26677   4.264  16.522  13.824 -0.3062 -0.0451 -0.3249
 9154W        W26678  15.171   8.376   4.468 -0.1774  0.1670  0.1758
 9155W        W26679   0.624  12.380   1.174  0.0577  0.0818 -0.0620
 9156W        W26680   8.909  10.149  14.135  0.0201  0.0061 -0.0092
 9157W        W26681   4.260  17.033   3.586  0.2846 -0.0091  0.1545
 9158W        W26682   2.279  11.495   4.324  0.0078 -0.0348  0.0644
 9159W        W26683   5.286   0.010  16.011 -0.1661 -0.1302 -0.3634
 9160W        W26684  10.699  14.001   0.114 -0.1557 -0.2006 -0.1203
 9161W        W26685   3.496  15.988   3.171  0.1982  0.1084  0.0284
 9162W        W26686   0.576   8.625   2.913 -0.0546 -0.2694 -0.0425
 9163W        W26687  13.935   9.849  12.521 -0.1894 -0.0476  0.1483
 9164W        W26688   2.882  15.494  11.150 -0.3259 -0.1173  0.1346
 9165W        W26689   4.238  12.841   2.353  0.1615 -0.4602 -0.1912
 9166W        W26690  12.615  10.232  16.055  0.1605  0.3032  0.0071
 9167W        W26691  13.247  11.952  11.681  0.1242 -0.2265  0.0029
 9168W        W26692  13.884  16.712  13.020  0.1570  0.1932  0.0690
 9169W        W26693   8.966   2.102  11.687 -0.2970  0.1463 -0.0783
 9170W        W26694  16.101   8.407   0.881 -0.3800  0.0741  0.0358
 9171W        W26695   1.348  17.496  13.517 -0.1176 -0.1976  0.3562
 9172W        W26696  16.471   5.832  15.283 -0.1285  0.1935 -0.0117
 9173W        W26697  14.084   0.013   0.705 -0.1481  0.1739 -0.0119
 9174W        W26698  16.241   5.655   4.426 -0.2138 -0.5326  0.0028
 9175W        W26699  17.355   9.823  14.591 -0.2411 -0.0142  0.0146
 9176W        W26700  15.215  16.712   0.067  0.0703  0.1018  0.1465
 9177W        W26701   8.231   2.129  11.094 -0.1406  0.0902  0.1599
 9178W        W26702  17.390  12.815  11.711 -0.1162 -0.0202  0.1076
 9179W        W26703   6.404   0.210   5.399 -0.0078  0.1385  0.2161
 9180W        W26704  13.683   5.391  15.777  0.0705  0.0898  0.1988
 9181W        W26705   7.336   2.864   0.737 -0.3299  0.0159 -0.2883
 9182W        W26706  17.017  16.139   3.951 -0.0104  0.4321 -0.4299
 9183W        W26707   0.044   3.071   4.550 -0.4010  0.0964  0.2304
 9184W        W26708   9.819   4.880   1.085  0.1479  0.2023  0.4167
 9185W        W26709   9.523  10.045  11.301  0.0269 -0.1222 -0.0614
 9186W        W26710   6.907   4.151  12.694 -0.0900 -0.3205  0.0503
 9187W        W26711  10.352  10.986  14.715  0.0675 -0.0319  0.2542
 9188W        W26712  16.143  11.951   2.994  0.0308  0.2526 -0.0025
 9189W        W26713   8.929  13.491  15.502 -0.1154 -0.0977 -0.0488
 9190W        W26714   8.417  15.050  12.333  0.3075 -0.0405 -0.0357
 9191W        W26715   2.994  17.250   3.038  0.0181 -0.1618 -0.0721
 9192W        W26716   5.532   4.248   1.470 -0.3436 -0.2145 -0.2038
 9193W        W26717  17.223  12.248   1.323 -0.2694  0.0435  0.0722
 9194W        W26718   6.917   4.927  16.087  0.1299  0.0898 -0.2729
 9195W        W26719  17.526   1.782   0.603  0.0906 -0.1102  0.2730
 9196W        W26720   9.400   6.244   4.682 -0.3303  0.0365  0.2125
 9197W        W26721  14.337   6.491  11.463  0.1036 -0.3013 -0.0483
 9198W        W26722   0.270   2.046   3.729  0.1783 -0.0485 -0.0804
 9199W        W26723  15.965   1.615   4.045  0.0086  0.3342 -0.0287
 9200W        W26724  12.169  16.638  15.842  0.0782  0.3658 -0.0238
 9201W        W26725   7.067   0.226   2.679  0.2219 -0.1642 -0.3354
 9202W        W26726   0.243  13.486  13.700  0.1926  0.1128  0.2365
 9203W        W26727   1.043   3.205   5.062 -0.0969  0.3691  0.1568
 9204W        W26728   0.123   4.732   6.253 -0.2202 -0.0595 -0.1433
 9205W        W26729  13.350   5.515  15.457 -0.1387 -0.3760 -0.1671
 9206W        W26730  13.739  17.317   5.171 -0.0906  0.0562  0.1743
 9207W        W26731   2.384   7.284  12.743 -0.1333 -0.0178 -0.0460
 9208W        W26732   1.271  11.823  15.826 -0.1636  0.0417 -0.1414
 9209W        W26733  14.109  10.427  12.873  0.0320  0.1076  0.0669
 9210W        W26734  15.158   2.182  15.601  0.3176 -0.1213  0.1910
 9211W        W26735   2.172  12.641  12.410  0.2858  0.0350 -0.0329
 9212W        W26736   0.557   6.881   4.803 -0.0448 -0.1472 -0.2043
 9213W        W26737  16.587  10.385   1.404  0.1182  0.0650  0.0005
 9214W        W26738  13.894  10.906  12.566  0.0813 -0.0700  0.1079
 9215W        W26739   9.536   9.536  11.278  0.1986 -0.1836  0.5538
 9216W        W26740  17.704   9.835  14.214  0.3046 -0.1191 -0.0257
 9217W        W26741   9.046   2.944  12.114  0.0344 -0.0113  0.1231
 9218W        W26742  15.875  17.094   1.147  0.2308 -0.0001  0.0271
 9219W        W26743  17.825  13.361   2.041  0.0170 -0.1391  0.0511
 9220W        W26744   9.082   2.399   1.330  0.1541 -0.0585 -0.3391
 9221W        W26745   2.660  12.628  10.314  0.1497 -0.0195  0.0066
 9222W        W26746  14.706  10.448  12.395 -0.1524 -0.1471  0.0310
 9223W        W26747   1.895  15.590   0.260 -0.1557 -0.3309 -0.0836
 9224W        W26748  16.820   4.255   0.865 -0.0213 -0.0065  0.1273
 9225W        W26749  15.266  10.120  15.379 -0.1644  0.0378  0.1888
 9226W        W26750   1.989   6.991   0.600 -0.1681 -0.0519 -0.2645
 9227W        W26751   6.078   9.061   0.686 -0.0186  0.0031  0.3323
 9228W        W26752   2.324   0.257  13.519  0.0583 -0.2886  0.1790
 9229W        W26753  10.010  10.998   1.150  0.3454  0.0585 -0.1365
 9230W        W26754  15.532  17.314  12.844  0.0306 -0.0048 -0.0631
 9231W        W26755   5.200   2.503   2.097 -0.1661 -0.0296  0.0129
 9232W        W26756   5.279  10.552   2.754 -0.1813 -0.1702 -0.2958
 9233W        W26757  10.053   1.419   3.900 -0.0093 -0.2285 -0.2959
 9234W        W26758   9.392   3.636  10.570  0.1232  0.0994  0.0175
 9235W        W26759   5.599   5.370  15.237  0.0983  0.0656  0.0193
 9236W        W26760   5.632   4.253  10.865 -0.2980  0.2728 -0.0363
 9237W        W26761   3.326   8.473  11.584 -0.1422 -0.4364  0.1425
 9238W        W26762  10.453   0.820   1.378  0.1850 -0.2987  0.2169
 9239W        W26763   4.697   8.343  11.907  0.0591 -0.1350  0.0432
 9240W        W26764  16.888   5.855   5.223 -0.1101  0.0304  0.0191
 9241W        W26765   8.704  14.894   4.787 -0.0262  0.3586  0.1745
 9242W        W26766   4.415   2.205   1.455  0.0574  0.0510 -0.2563
 9243W        W26767  12.352   0.382   4.464  0.2181 -0.1167 -0.0937
 9244W        W26768  12.664   5.480   0.609  0.2091  0.1310 -0.1114
 9245W        W26769   8.368   4.568   2.764 -0.4318  0.0649  0.0589
 9246W        W26770   6.652  14.668  13.602  0.1023  0.0392 -0.1154
 9247W        W26771   4.970   5.788  15.526  0.2251  0.0919 -0.0438
 9248W        W26772   4.692   8.727   0.698 -0.1968  0.3074 -0.2482
 9249W        W26773   3.125   4.001   1.791  0.1884 -0.0231  0.0151
 9250W        W26774   9.320  17.183   1.414  0.0900 -0.0722 -0.2301
 9251W        W26775  12.720  10.382   3.970  0.3328  0.0047  0.3735
 9252W        W26776  11.071  13.995   3.908 -0.1287  0.3059  0.2095
 9253W        W26777   4.815  16.874  12.145  0.0607  0.0905 -0.0080
 9254W        W26778   8.775   6.930  13.519  0.1332  0.0783  0.0793
 9255W        W26779  18.005   0.734   3.194 -0.0988  0.0007 -0.0675
 9256W        W26780   4.582   9.532  14.092  0.0481 -0.1529  0.1623
 9257W        W26781   7.104   9.184  14.848 -0.0038  0.0620  0.0781
 9258W        W26782   6.463   5.317  15.520  0.2509 -0.2070  0.0188
 9259W        W26783  14.000   3.311  12.025  0.0562 -0.1640 -0.2440
 9260W        W26784   0.156  13.460   2.133  0.2127 -0.4203 -0.0536
 9261W        W26785  18.037   2.580   4.612 -0.0480  0.2681 -0.2880
 9262W        W26786   7.831  16.826   5.689  0.4175 -0.0777 -0.1571
 9263W        W26787  14.445  18.052  12.554 -0.3997  0.1020 -0.3121
 9264W        W26788   5.186   6.632  13.451  0.1365 -0.0738 -0.1429
 9265W        W26789   6.117   4.737   0.554 -0.0416  0.1385 -0.1643
 9266W        W26790   5.534   2.329   1.729  0.0081  0.2010 -0.1429
 9267W        W26791  16.645   6.787  11.816 -0.0188  0.2140  0.0535
 9268W        W26792   5.050  16.735  15.916  0.1447  0.1030  0.5301
 9269W        W26793   5.822   5.860  12.330  0.1308  0.3280  0.1775
 9270W        W26794   5.714   1.555   1.268  0.0634 -0.3179  0.3581
 9271W        W26795  10.466  12.779   4.165  0.2684  0.2568 -0.2345
 9272W        W26796   4.866  15.527   5.368  0.2979  0.2140  0.0741
 9273W        W26797  16.324   7.808  16.003 -0.2227 -0.0842 -0.2671
 9274W        W26798  12.666  10.274  13.822 -0.1092  0.0820 -0.0301
 9275W        W26799   1.747  10.965   0.930 -0.0964 -0.0561  0.2594
 9276W        W26800  14.449   7.942  15.950 -0.1642  0.0775 -0.2451
 9277W        W26801   5.507   1.183  14.161 -0.0988  0.0547 -0.3881
 9278W        W26802  13.565  10.003   3.508 -0.5409 -0.0664 -0.1468
 9279W        W26803  15.747  11.280   2.555 -0.0903 -0.0205 -0.1140
 9280W        W26804   4.725   0.493   2.463  0.2618  0.1841  0.2654
 9281W        W26805   5.073   6.446   4.667  0.2213 -0.0593  0.0512
 9282W        W26806  10.834  10.023   0.162 -0.1003  0.1660 -0.2087
 9283W        W26807   0.583  13.086  15.170 -0.2514  0.3093  0.1175
 9284W        W26808   1.976   3.185   0.502 -0.2196  0.1015 -0.2990
 9285W        W26809  10.249   3.817   4.578 -0.0325 -0.0425  0.0852
 9286W        W26810  10.076  11.830  11.879 -0.0860 -0.3169 -0.0328
 9287W        W26811   3.405   7.318  12.239 -0.1309 -0.0129 -0.0249
 9288W        W26812  17.833   8.578   3.931 -0.3543  0.0879  0.4559
 9289W        W26813  12.642   9.784  13.628  0.0215  0.2143 -0.2532
 9290W        W26814  10.187  12.679   2.250 -0.1331 -0.0720 -0.0458
 9291W        W26815   1.674   9.458   2.393 -0.2785  0.1236  0.2901
 9292W        W26816   7.857   2.895  12.678  0.0127 -0.2509 -0.2000
 9293W        W26817   1.076  13.129   1.922 -0.0586  0.0328  0.2008
 9294W        W26818   4.353   4.956  15.319 -0.2778  0.1366 -0.0070
 9295W        W26819  13.049   6.444   4.624 -0.3347  0.2214 -0.2729
 9296W        W26820   0.888   8.958  16.043  0.1506 -0.2490  0.1185
 9297W        W26821  16.231  16.767  11.846 -0.0418 -0.1687  0.2157
 9298W        W26822   9.955   8.926   0.129  0.1634 -0.2633 -0.0192
 9299W        W26823  15.404  14.779  14.356  0.1188 -0.0027  0.2746
 9300W        W26824   9.514  10.517   1.820  0.3392 -0.1860  0.2328
 9301W        W26825   1.410   5.279   3.994  0.1160  0.2730  0.1554
 9302W        W26826  13.010   0.945  16.043  0.0339 -0.2469 -0.2170
 9303W        W26827  16.054   6.801   1.215 -0.2920  0.1861 -0.0485
 9304W        W26828   6.960   6.849  12.199 -0.2689  0.2812  0.3729
 9305W        W26829   3.325   8.396   2.735 -0.0248 -0.1303  0.2849
 9306W        W26830  13.719  10.648  13.179  0.0456 -0.3410  0.2689
 9307W        W26831  12.913  10.660  13.536  0.2356  0.2119  0.0152
 9308W        W26832  14.293  12.795   2.219  0.1599 -0.1040  0.0503
 9309W        W26833   7.236  12.388  13.038 -0.1391 -0.0556 -0.2199
 9310W        W26834   5.845  15.321  11.522 -0.0798  0.0730  0.2104
 9311W        W26835   9.573   0.106   3.149  0.0956  0.2791 -0.1511
 9312W        W26836  10.226  16.304  15.462  0.0513 -0.1198 -0.1699
 9313W        W26837   4.778   3.662   0.441  0.4131  0.0291 -0.1952
 9314W        W26838  14.985  17.164  16.064  0.1156  0.1575  0.1599
 9315W        W26839   2.577   1.409   2.150  0.1178 -0.1586  0.1573
 9316W        W26840   5.593  13.714  12.517  0.0596  0.1477  0.2317
 9317W        W26841   6.603   6.176  12.522 -0.1369  0.2344  0.0937
 9318W        W26842   8.303   1.457   4.054  0.0542  0.0691  0.4876
 9319W        W26843   6.606   2.782   3.484  0.0512 -0.1346  0.1756
 9320W        W26844   8.186   1.723  13.638 -0.2260  0.1490  0.1240
 9321W        W26845  11.629   8.394  12.396  0.1545  0.4559 -0.1763
 9322W        W26846   3.649   1.364   0.071  0.1365 -0.2100 -0.2024
 9323W        W26847  10.343   9.214   1.647 -0.1907  0.2371  0.0706
 9324W        W26848  16.079   6.636   0.734  0.2765 -0.3149  0.0718
 9325W        W26849   4.013  12.960   5.834  0.2941  0.0339 -0.0386
 9326W        W26850   2.730  10.717   4.649 -0.0804  0.0922 -0.0227
 9327W        W26851   2.165  16.493  13.749 -0.1447 -0.1710  0.2214
 9328W        W26852  13.860   5.599   3.856 -0.1524 -0.0715  0.1996
 9329W        W26853   5.212  13.393  12.362 -0.1795 -0.3326 -0.1518
 9330W        W26854   7.839  15.871   2.486  0.1989 -0.1533 -0.2501
 9331W        W26855   7.331  16.539   1.214  0.3397  0.1157  0.0600
 9332W        W26856  15.643  10.195   3.987 -0.0743  0.2714 -0.0752
 9333W        W26857   3.395   9.542   1.970 -0.2233  0.2139  0.1753
 9334W        W26858   2.429   6.493  14.051 -0.0230  0.1439  0.1356
 9335W        W26859   9.076   0.178  11.844  0.1288 -0.2275 -0.0334
 9336W        W26860  17.022  17.707  12.785 -0.3569 -0.3299 -0.1147
 9337W        W26861  13.200   3.976   3.814  0.3594 -0.4515  0.0541
 9338W        W26862   6.185  17.757   1.265  0.0369  0.3299 -0.0345
 9339W        W26863   9.322  16.466  13.941 -0.1368 -0.0974  0.0197
 9340W        W26864   4.979   8.409  12.352 -0.1402  0.0332 -0.3001
 9341W        W26865   2.928  11.314  11.465 -0.0073 -0.0959 -0.0638
 9342W        W26866  15.433   9.275  12.153  0.2518 -0.0106  0.1807
 9343W        W26867  12.295   7.153  14.022  0.0419  0.2641 -0.0298
 9344W        W26868   4.150   1.235   0.322  0.3136  0.2011  0.0881
 9345W        W26869   7.787  12.848   2.247 -0.0412 -0.3202  0.2175
 9346W        W26870   4.009  12.410   2.120 -0.1500 -0.1158  0.1583
 9347W        W26871   0.466   9.677   2.705  0.1686  0.1260 -0.3440
 9348W        W26872  12.044  12.417  15.480 -0.4048 -0.1029  0.3361
 9349W        W26873   4.429   8.548  14.345  0.0077 -0.0838 -0.1713
 9350W        W26874   3.453   5.352  15.091  0.0224  0.1681  0.1076
 9351W        W26875   0.167  17.001   0.806  0.2223 -0.3226  0.2271
 9352W        W26876  17.591   7.956  14.163 -0.1234 -0.1279 -0.2076
 9353W        W26877   7.669   7.462   0.245 -0.0126 -0.1276 -0.1656
 9354W        W26878   0.640   9.962  15.063  0.0506  0.0114  0.2841
 9355W        W26879   0.160   4.733   3.012 -0.2523  0.2160 -0.0863
 9356W        W26880  14.257  15.998  12.403 -0.1579  0.1478  0.1647
 9357W        W26881   3.871   1.046   1.021  0.1692  0.5043 -0.0379
 9358W        W26882   3.819  15.166   4.372 -0.0833  0.0304  0.0248
 9359W        W26883  12.809   8.927   5.053 -0.5515 -0.2109  0.0816
 9360W        W26884   2.848   5.779   1.062 -0.1011  0.0039  0.1850
 9361W        W26885   4.487  14.838  12.211 -0.0705 -0.2038 -0.1740
 9362W        W26886   8.622  16.475   4.281  0.0198 -0.3270  0.1738
 9363W        W26887   3.801  10.842  12.334  0.0282  0.0043 -0.0541
 9364W        W26888  13.376   6.070   2.090  0.0326 -0.1501 -0.0332
 9365W        W26889   0.652   3.471  14.037 -0.3105 -0.0900  0.4387
 9366W        W26890  13.610  12.830   0.720  0.0828  0.0948  0.4751
 9367W        W26891   1.066  12.363   1.527  0.1053  0.0307  0.1357
 9368W        W26892  14.497  10.697  11.492 -0.2008  0.1068 -0.3828
 9369W        W26893   0.928  14.246   3.489  0.0746  0.2656  0.0322
 9370W        W26894   7.279  12.806  12.758  0.1778  0.1905  0.3522
 9371W        W26895   1.679  16.430  14.024 -0.3536  0.1823 -0.1590
 9372W        W26896  16.823  10.000   3.381  0.0365 -0.1757  0.0251
 9373W        W26897  15.482  16.351   2.418  0.2354 -0.0913 -0.1341
 9374W        W26898   0.100  16.893  11.266  0.1056  0.0007 -0.0091
 9375W        W26899   8.336  14.182   2.426  0.0793  0.1887 -0.1000
 9376W        W26900  12.798   3.664   4.355 -0.1767 -0.2602 -0.0983
 9377W        W26901  11.047   6.990  11.146 -0.0191 -0.1688 -0.1922
 9378W        W26902  14.034   1.520   4.319  0.2785 -0.2717  0.1330
 9379W        W26903   9.795   8.742   3.623  0.3450  0.3734 -0.3334
 9380W        W26904  10.434  18.123  14.593  0.1110  0.1576 -0.1519
 9381W        W26905  17.854  13.344   1.346 -0.0109 -0.2105 -0.0369
 9382W        W26906   4.983   6.530  15.971 -0.1080 -0.3403 -0.1551
 9383W        W26907  12.543  11.083   4.631 -0.1647 -0.1250  0.0481
 9384W        W26908  15.811   5.419  12.841 -0.2152  0.2356 -0.2458
 9385W        W26909   5.867   1.427  11.678  0.2228  0.0321  0.1859
 9386W        W26910   3.259   2.853  15.287 -0.1354 -0.0418 -0.1586
 9387W        W26911  13.309  13.013  11.167 -0.0035 -0.2407 -0.0296
 9388W        W26912   6.176  15.198  12.372 -0.0552 -0.1389 -0.1930
 9389W        W26913   0.940   6.697   3.385 -0.1855 -0.4480 -0.2809
 9390W        W26914   9.537  10.220   0.225  0.3138 -0.0118 -0.2317
 9391W        W26915   1.453  13.791   1.893  0.1820 -0.0887  0.0945
 9392W        W26916   7.279   1.063   1.998 -0.0269 -0.0375  0.0239
 9393W        W26917  12.267  10.614  12.746 -0.1251 -0.1068 -0.2590
 9394W        W26918  11.327  12.779  14.751 -0.2748  0.3841  0.4102
 9395W        W26919   7.581  11.999   0.154  0.1872  0.0054  0.0012
 9396W        W26920  13.420  16.436  12.238  0.1791  0.0677  0.4250
 9397W        W26921  18.155   0.176   3.009 -0.0726  0.2567 -0.0038
 9398W        W26922   6.356   9.165  12.390 -0.1086  0.0694  0.5001
 9399W        W26923   1.756   1.627  12.027 -0.1038 -0.0026  0.0916
 9400W        W26924   7.093   6.776  11.689  0.3090 -0.4544  0.1257
 9401W        W26925  14.786   6.530   2.016 -0.3354  0.0891 -0.3274
 9402W        W26926   6.943  12.461  13.404 -0.1396  0.2785 -0.1598
 9403W        W26927  12.461  17.013  15.595  0.1317 -0.2407  0.3132
 9404W        W26928   7.816   8.952   2.091 -0.0148 -0.2681  0.2023
 9405W        W26929   9.061  10.932  16.096 -0.0192 -0.0073  0.1457
 9406W        W26930   2.441   8.322   4.436 -0.2495  0.0840 -0.0947
 9407W        W26931  13.853   7.518  14.661 -0.0289 -0.1023 -0.1438
 9408W        W26932   2.910  11.770   2.956 -0.0727  0.1222 -0.0936
 9409W        W26933  10.017  13.192   2.302 -0.1313 -0.0092  0.0282
 9410W        W26934   1.355  15.773   3.128  0.3338  0.0142 -0.0983
 9411W        W26935   8.512   9.764   0.116 -0.3101 -0.0720 -0.3161
 9412W        W26936   5.543   6.076   0.739  0.0996 -0.1609  0.3954
 9413W        W26937   3.667   6.395   2.559  0.3733  0.4657  0.3181
 9414W        W26938  15.168   8.058   2.960 -0.2219 -0.2304  0.1036
 9415W        W26939  11.697  10.050  15.154 -0.1809  0.0417 -0.0725
 9416W        W26940  17.616   2.457   1.571 -0.1701 -0.3252 -0.2083
 9417W        W26941  12.417  13.419   1.835 -0.1876 -0.0523 -0.0613
 9418W        W26942   7.886   8.317  12.415  0.1437 -0.2221 -0.0744
 9419W        W26943  13.531  18.022  11.271  0.1119 -0.2540  0.3585
 9420W        W26944   0.343   2.787   2.655 -0.0389 -0.2717 -0.4744
 9421W        W26945   5.627   1.818  12.253 -0.2037 -0.0921  0.1502
 9422W        W26946  16.031  16.547   1.642  0.1396 -0.0891  0.2008
 9423W        W26947  17.347   3.581   3.635  0.2800 -0.1324 -0.2050
 9424W        W26948  13.991   4.319   1.152 -0.2182  0.1769  0.1946
 9425W        W26949  13.971  14.952   0.808  0.1464  0.1057 -0.0162
 9426W        W26950  16.711   4.260  14.432  0.2171 -0.0287 -0.1156
 9427W        W26951  10.069  12.681  12.402  0.2458 -0.3400 -0.0411
 9428W        W26952  14.853  11.775   2.724  0.0156 -0.0689 -0.0474
 9429W        W26953  10.615   3.696  15.707  0.1611 -0.2908 -0.3594
 9430W        W26954   2.191   1.736   2.194  0.1360 -0.3881  0.1342
 9431W        W26955   1.017   2.941  15.133 -0.1809 -0.1436 -0.1649
 9432W        W26956  16.483   0.363   2.117 -0.0710  0.1137  0.1004
 9433W        W26957  10.770  14.619  14.021  0.0386  0.2619  0.4742
 9434W        W26958  12.760   6.262   1.635 -0.0300 -0.1342 -0.2324
 9435W        W26959  16.244   8.333   0.065 -0.0368 -0.0214  0.0828
 9436W        W26960   4.224   7.255   2.835  0.1295  0.0860 -0.2419
 9437W        W26961  11.246  12.701   1.786  0.0847 -0.0444  0.1000
 9438W        W26962  11.191   7.540   4.775  0.0691 -0.1153 -0.0868
 9439W        W26963  13.867   8.390   2.989  0.0120 -0.1960 -0.0862
 9440W        W26964  15.568   7.823  11.662 -0.1446  0.0133 -0.0260
 9441W        W26965  14.354   8.306  15.172 -0.4202  0.0118  0.1677
 9442W        W26966  16.498   2.967  12.051 -0.1021 -0.0770  0.0288
 9443W        W26967   5.338   9.956   0.690  0.0635  0.2056 -0.0206
 9444W        W26968  12.829   3.392   2.929  0.0494  0.0406  0.0254
 9445W        W26969   8.767   9.992   4.224 -0.2504  0.0627  0.1558
 9446W        W26970   0.962   9.224   4.702  0.2176 -0.4123  0.0193
 9447W        W26971  15.812  17.888  15.021  0.0959 -0.3977 -0.1093
 9448W        W26972   2.135   1.748  12.689  0.1314 -0.0211 -0.0339
 9449W        W26973   2.255   6.915  11.297  0.2267  0.0724  0.0038
 9450W        W26974  14.573   9.374   5.850 -0.2162 -0.1588  0.0607
 9451W        W26975   2.525  14.598  14.391 -0.1444 -0.1261 -0.0311
 9452W        W26976   7.785   5.058   2.158  0.0647 -0.2782 -0.2702
 9453W        W26977  11.094   5.085   3.941  0.1601  0.1675  0.1407
 9454W        W26978   1.786  15.999   4.609 -0.1748  0.3769  0.2787
 9455W        W26979   1.688   5.681  15.572  0.1209  0.2699  0.0067
 9456W        W26980   2.256   2.186  13.669  0.0503  0.0540 -0.1209
 9457W        W26981  14.298   0.653   0.032 -0.3038  0.0523 -0.1211
 9458W        W26982  14.751  12.264   0.170 -0.3551  0.2012 -0.0083
 9459W        W26983  11.026   9.375  14.010  0.3993  0.1537 -0.0607
 9460W        W26984   4.826   0.797   0.694  0.2106 -0.0785 -0.0290
 9461W        W26985   6.634   3.611  14.959  0.3113  0.2069  0.2200
 9462W        W26986   1.650  17.481  14.386 -0.2105  0.2938 -0.1868
 9463W        W26987  14.655   7.113   0.101 -0.0139  0.0464 -0.2913
 9464W        W26988  15.763   5.931   1.411  0.1853 -0.0445  0.1251
 9465W        W26989  12.542  15.500   4.451 -0.2136 -0.1892  0.4117
 9466W        W26990   5.117  11.090  10.362  0.1775  0.0309 -0.0713
 9467W        W26991  11.710  15.971   2.087  0.0472 -0.0505  0.2298
 9468W        W26992  13.400   6.319   3.741  0.0307 -0.3712  0.3069
 9469W        W26993  11.027  10.899  11.732 -0.0457 -0.1667  0.0374
 9470W        W26994   1.163  10.508  12.050 -0.0476 -0.3824 -0.0554
 9471W        W26995  10.517   3.520  11.442 -0.1534 -0.0328 -0.1280
 9472W        W26996   2.310   7.731  11.738 -0.2795 -0.0905 -0.0943
 9473W        W26997   4.855   7.875  16.052 -0.2237  0.0411  0.0232
 9474W        W26998  11.133   7.658   2.106 -0.3824  0.1001  0.0390
 9475W        W26999   5.865  17.967  13.772 -0.2481  0.0570  0.0139
 9476W        W27000   2.283   0.678  11.039 -0.1707 -0.2980 -0.0080
 9477W        W27001  13.222  14.945   3.126 -0.2742 -0.2612 -0.3012
 9478W        W27002   5.675   1.363  13.062  0.2004 -0.0159 -0.0486
 9479W        W27003   1.200   2.104  14.026 -0.0137 -0.1021  0.2986
 9480W        W27004  16.147  17.866  16.079 -0.1283 -0.0666 -0.0641
 9481W        W27005   4.354   7.843   2.089 -0.0624 -0.0818  0.0487
 9482W        W27006   4.592   5.845   0.982 -0.0813 -0.2355  0.1512
 9483W        W27007   0.300  14.171   5.013  0.1525  0.0511  0.2893
 9484W        W27008  10.932   1.495  12.288 -0.2406 -0.1184  0.0566
 9485W        W27009   5.748   1.405   4.403 -0.1440 -0.0692 -0.1233
 9486W        W27010   5.052  11.241  12.404 -0.0676 -0.0517  0.0145
 9487W        W27011   1.520   7.887   4.824 -0.1361 -0.1553  0.0524
 9488W        W27012   8.474  12.825  12.481 -0.1915 -0.2749  0.0161
 9489W        W27013  13.429   9.543   3.769  0.1403 -0.0586 -0.0573
 9490W        W27014  12.694   2.444   4.458  0.2839 -0.1446  0.0663
 9491W        W27015   3.754   8.571  11.907  0.0581 -0.1990 -0.0859
 9492W        W27016  17.551  10.776  14.721 -0.3338  0.0086  0.0792
 9493W        W27017   0.749  13.738   4.147 -0.0002 -0.2159 -0.0404
 9494W        W27018   1.955   4.689   1.580 -0.1519  0.2963 -0.2270
 9495W        W27019  10.423   6.297  13.090  0.1094  0.0843 -0.3545
 9496W        W27020  15.020  13.436   0.076  0.1902  0.1926 -0.0173
 9497W        W27021  14.779  14.163  14.542  0.1742 -0.0015  0.0433
 9498W        W27022   1.685  10.066   0.216 -0.3619  0.1638  0.1007
 9499W        W27023   7.650  14.881   2.734 -0.0600  0.0685  0.1955
 9500W        W27024   7.513  14.989  16.035 -0.1478 -0.1556 -0.0328
 9501W        W27025  17.583  12.492  14.960 -0.2506 -0.0297 -0.0278
 9502W        W27026   6.982  16.747   1.975 -0.2282  0.2056 -0.0538
 9503W        W27027  14.282   1.088  14.399 -0.1889 -0.1530 -0.0281
 9504W        W27028   0.373   8.444   0.809  0.3014  0.2107  0.0295
 9505W        W27029  10.505   6.465  13.928 -0.1894 -0.1345  0.1810
 9506W        W27030   0.646  14.615  13.445 -0.3624 -0.0852  0.2536
 9507W        W27031  11.246  16.771   4.411 -0.0570  0.7104 -0.0002
 9508W        W27032  13.465   9.626  14.474 -0.1965  0.0902  0.1639
 9509W        W27033  17.262  15.769   2.532 -0.0215  0.0476  0.0806
 9510W        W27034   4.578  15.314   2.881 -0.0708  0.0053 -0.2665
 9511W        W27035  14.976  13.221   4.484  0.0211  0.1542  0.1034
 9512W        W27036  17.975  12.990  15.417  0.2126 -0.2584 -0.0624
 9513W        W27037   7.834   1.979  11.319  0.0801 -0.2912 -0.1192
 9514W        W27038   9.881   7.580  14.740 -0.2363  0.0451  0.2514
 9515W        W27039  17.775   2.066  14.615 -0.0055 -0.1735  0.0049
 9516W        W27040   4.793  15.929   2.870 -0.0241  0.1147  0.0852
 9517W        W27041   9.099   9.168   3.996 -0.1041 -0.0688  0.2047
 9518W        W27042  12.003  17.285   1.200  0.0069  0.2362  0.3206
 9519W        W27043  16.607  10.956   4.367  0.0311  0.0907  0.2859
 9520W        W27044  13.078   6.784   0.367  0.1005  0.0227 -0.1067
 9521W        W27045   5.429   4.445   4.123 -0.2447  0.0439 -0.1116
 9522W        W27046  17.188  17.822   4.405  0.1561 -0.4104  0.0399
 9523W        W27047   8.923   4.212   3.427  0.1544 -0.1956  0.1322
 9524W        W27048  10.169   5.851  11.456 -0.1522 -0.0062 -0.1070
 9525W        W27049   8.677  10.701  11.103 -0.2453 -0.0382  0.3636
 9526W        W27050   8.388   0.838   3.178  0.1360  0.1129 -0.1922
 9527W        W27051  12.456   8.050  15.231 -0.1964 -0.2653  0.0553
 9528W        W27052   0.124   6.268   5.172  0.0631 -0.1096  0.0444
 9529W        W27053   8.891  12.498  14.533 -0.1558 -0.0388 -0.0035
 9530W        W27054   5.385   4.847   2.916 -0.0742 -0.2272 -0.4320
 9531W        W27055  12.432  11.394  15.205 -0.1792 -0.2905  0.5207
 9532W        W27056   7.555   8.432   5.636 -0.0440  0.0169 -0.0144
 9533W        W27057   9.987  17.316  14.933 -0.0118  0.1322 -0.1385
 9534W        W27058   5.905  16.048  12.545 -0.1345  0.1923 -0.0326
 9535W        W27059   4.040  14.948   5.098 -0.0963 -0.0798 -0.0776
 9536W        W27060  12.814  12.415   1.683 -0.0838 -0.0851  0.1265
 9537W        W27061   1.302   0.240   3.103 -0.1882  0.0733 -0.0340
 9538W        W27062  15.976  15.398  13.247 -0.1169 -0.2844 -0.0159
 9539W        W27063  17.491   9.731  13.326  0.1950 -0.3185  0.1596
 9540W        W27064   9.978   1.159  14.427 -0.1011  0.0167  0.0441
 9541W        W27065   2.574   4.344   0.582 -0.3098 -0.0965  0.0750
 9542W        W27066  12.145  10.157  15.852 -0.1260 -0.2995 -0.0324
 9543W        W27067   5.211  15.602  12.755 -0.0592 -0.2345 -0.1749
 9544W        W27068  17.661  11.907  13.261  0.3303  0.1895 -0.1280
 9545W        W27069   3.541  11.970  14.280 -0.0909  0.0636 -0.1637
 9546W        W27070  15.356   9.071  15.588 -0.2208 -0.0771 -0.3689
 9547W        W27071   6.569   0.999   4.208 -0.0270  0.0903 -0.0040
 9548W        W27072  15.857   4.995  12.572 -0.0520  0.3116 -0.1989
 9549W        W27073   0.965  16.251   1.671 -0.2030  0.3058  0.0628
 9550W        W27074  14.254  15.455   4.912 -0.1695  0.3652  0.0554
 9551W        W27075   3.221  10.232  12.405 -0.1273  0.0123 -0.2736
 9552W        W27076   7.383   2.342   1.890  0.2535  0.2838  0.1188
 9553W        W27077   5.495  15.335  14.067 -0.2206 -0.6017  0.3015
 9554W        W27078  16.077   0.523  11.823  0.0845  0.1309 -0.0175
 9555W        W27079  12.743   9.489  10.963  0.3479 -0.0650  0.3263
 9556W        W27080   8.785   2.678   0.369  0.2463  0.0181  0.1508
 9557W        W27081   7.075   1.645  12.239  0.1832 -0.1150 -0.1056
 9558W        W27082   2.066   1.222   2.577 -0.1017 -0.1878  0.0693
 9559W        W27083   4.116   5.058   1.164 -0.4207 -0.1997  0.1653
 9560W        W27084  11.308  14.664  12.053 -0.0506  0.3189 -0.2398
 9561W        W27085   2.678  18.159  12.189 -0.3112 -0.1054 -0.1260
 9562W        W27086   6.925  14.312   0.196 -0.0618 -0.1104  0.0239
 9563W        W27087   0.805  16.518  11.660  0.1974 -0.2036  0.2637
 9564W        W27088  17.565   6.499  12.123  0.1217  0.2479  0.3842
 9565W        W27089  11.207   0.567  15.383  0.1062  0.0501 -0.0421
 9566W        W27090  18.117   4.301   2.750  0.3141 -0.1138  0.1026
 9567W        W27091  12.291   2.855  10.229  0.0998 -0.0082  0.2129
 9568W        W27092   4.047  18.068   3.094 -0.0514 -0.1706  0.3157
 9569W        W27093   8.914   4.847  12.616  0.2425 -0.0068 -0.1872
 9570W        W27094   8.264   6.439  12.684  0.0075  0.1207  0.1712
 9571W        W27095  11.048   4.465  10.962 -0.1824 -0.0650  0.0047
 9572W        W27096  11.128  10.944   3.374 -0.4053  0.0271  0.1189
 9573W        W27097   3.011  13.338   3.045  0.1416 -0.2555  0.0773
 9574W        W27098  10.298   5.368  13.583 -0.3629 -0.0902  0.0638
 9575W        W27099  14.772  15.458  12.865 -0.2673 -0.1198  0.0339
 9576W        W27100   5.811  13.512   0.109 -0.0977  0.4701  0.0043
 9577W        W27101  14.620   7.842  15.030 -0.1887 -0.3889 -0.2259
 9578W        W27102   4.008  15.484   0.475  0.2002 -0.0086 -0.1896
 9579W        W27103  16.838  12.062   1.947 -0.0078  0.2959  0.0072
 9580W        W27104  10.674  15.028  14.351  0.2119 -0.0340  0.0395
 9581W        W27105   7.705   3.371   5.187  0.2013 -0.0871 -0.0490
 9582W        W27106   0.390  12.228  13.251  0.0632 -0.0026  0.1115
 9583W        W27107   2.967  13.998   3.475  0.2234  0.0208  0.0044
 9584W        W27108   1.182  10.384  14.223 -0.3994 -0.0386  0.1087
 9585W        W27109   1.288  15.886   2.672 -0.1702  0.1178  0.1926
 9586W        W27110   6.464   9.677   0.061 -0.0489  0.1399  0.0159
 9587W        W27111  11.365   3.578   0.341 -0.0195  0.3843 -0.2006
 9588W        W27112   8.613  12.104  14.310  0.0091 -0.1158 -0.1790
 9589W        W27113   4.682   3.764  16.040  0.3221  0.2544 -0.0749
 9590W        W27114   2.433   6.808   4.557 -0.4209 -0.0272  0.0929
 9591W        W27115  14.645   1.826   3.603 -0.2496 -0.0841  0.1840
 9592W        W27116  16.956  11.672  12.490 -0.1023  0.0370 -0.3073
 9593W        W27117  15.535  15.748   2.237  0.0381 -0.3760 -0.1181
 9594W        W27118  17.802  16.805   2.450 -0.1815  0.2796  0.0312
 9595W        W27119  14.205   7.395  13.391 -0.0973  0.3554 -0.1467
 9596W        W27120  17.363   6.076  12.388 -0.0508  0.1336  0.1224
 9597W        W27121  11.270   6.041   4.475  0.4073  0.1544  0.2323
 9598W        W27122   6.489  13.649  13.964 -0.0041 -0.1613  0.1011
 9599W        W27123  14.329   2.035  10.523  0.1196 -0.0177  0.0540
 9600W        W27124  16.736  15.744   3.588 -0.0802 -0.3749  0.1364
 9601W        W27125   6.586   0.503  12.584  0.2055 -0.0177 -0.0177
 9602W        W27126  11.308  12.185  16.016  0.1288 -0.1026 -0.1623
 9603W        W27127  10.373   9.847  13.401 -0.2211  0.2916 -0.0876
 9604W        W27128  10.861  12.016  13.749 -0.1647  0.1027  0.1904
 9605W        W27129   5.412   2.488  14.390  0.2279 -0.1655 -0.1088
 9606W        W27130  14.573   8.736  13.175  0.2207 -0.1099  0.2087
 9607W        W27131   2.082  12.345  15.861  0.2010  0.2359  0.0008
 9608W        W27132  15.550   3.018  15.080 -0.0368  0.1928 -0.2852
 9609W        W27133  15.238   1.529   2.817  0.0294 -0.0106  0.4054
 9610W        W27134   0.981   0.909   2.083 -0.3239  0.0019 -0.1839
 9611W        W27135   7.602  14.923  15.336 -0.0413 -0.0159  0.1206
 9612W        W27136  12.395  11.225  13.741 -0.1023  0.0617  0.0802
 9613W        W27137   1.667   8.808  15.609  0.1124 -0.2664  0.0056
 9614W        W27138   5.010   1.535  14.985 -0.0645  0.1204 -0.1145
 9615W        W27139  16.987   5.251  15.876  0.5307  0.1889 -0.0006
 9616W        W27140  14.268   2.468  11.424 -0.0939 -0.2153  0.2392
 9617W        W27141   6.733  15.382  11.631 -0.0768  0.2901  0.1161
 9618W        W27142   1.995  11.506  11.687 -0.0700 -0.2582 -0.2192
 9619W        W27143  12.517  14.784  13.558 -0.1921  0.1500  0.0298
 9620W        W27144   5.091  11.388  14.325  0.4484 -0.0592  0.2529
 9621W        W27145  15.767   6.216  15.347  0.2305 -0.0678 -0.1017
 9622W        W27146  13.614  13.663   0.180 -0.0137  0.0139 -0.1765
 9623W        W27147  16.770   9.824  13.255 -0.1673  0.1692  0.2300
 9624W        W27148  16.590  10.001   0.833  0.1498 -0.1383 -0.1872
 9625W        W27149  17.581  18.098   4.737 -0.0400 -0.0185 -0.0949
 9626W        W27150   1.854   0.904   2.297  0.0073  0.0284  0.1604
 9627W        W27151   5.496   3.633  14.669  0.1459  0.0898  0.1126
 9628W        W27152   3.287   8.964   2.740  0.0845  0.1837  0.1224
 9629W        W27153  15.466   6.861  11.438  0.1622  0.0360  0.0700
 9630W        W27154  12.499   7.328  12.395  0.2567 -0.1554 -0.1136
 9631W        W27155  16.859  10.539  12.515 -0.0292  0.2755 -0.0726
 9632W        W27156   2.344   6.893  15.721  0.0949  0.3645  0.0629
 9633W        W27157   7.751   7.386   3.135  0.2122  0.2241  0.0439
 9634W        W27158  14.340  10.144  13.239  0.0051  0.1090 -0.1226
 9635W        W27159  15.849  10.840  14.717  0.1431 -0.0337  0.4288
 9636W        W27160  12.992  15.381   4.667 -0.0404 -0.2386 -0.1554
 9637W        W27161  13.905  11.238  14.036  0.2862 -0.0547 -0.0421
 9638W        W27162  10.462  10.795  15.621 -0.1471 -0.1981 -0.1438
 9639W        W27163   4.427   7.617   4.498 -0.3163 -0.0610  0.0720
 9640W        W27164   9.174   3.615   0.201 -0.1348 -0.2286 -0.0044
 9641W        W27165  12.932   3.169  12.316 -0.0466  0.1896  0.4697
 9642W        W27166   1.445   5.911  14.588  0.1653 -0.1178  0.1187
 9643W        W27167   7.577  14.818   1.349 -0.0777  0.1491 -0.0120
 9644W        W27168   6.450  10.388   1.953 -0.0090  0.4231  0.1447
 9645W        W27169   0.273  11.410  12.674 -0.1937  0.1557 -0.1575
 9646W        W27170  13.744   7.041   6.116 -0.1420 -0.1780 -0.0004
 9647W        W27171   9.429   4.459  11.544 -0.0630 -0.0979  0.0906
 9648W        W27172   8.290   2.813   3.517  0.4112  0.1568  0.1538
 9649W        W27173   0.434  13.060  15.628  0.0052  0.1854 -0.2815
 9650W        W27174   8.648  13.369  11.716  0.1618  0.1665 -0.0773
 9651W        W27175  14.709   5.550  13.860  0.2719  0.1686  0.2988
 9652W        W27176   6.817   1.245   1.755  0.1331  0.0725  0.2987
 9653W        W27177   9.381   1.269   3.435  0.2398  0.2297 -0.3546
 9654W        W27178   7.237   7.131   2.459 -0.1136  0.2118  0.4537
 9655W        W27179   3.123   5.538   5.209 -0.1361 -0.5450 -0.1276
 9656W        W27180   9.510   2.419  15.289  0.0119  0.0931 -0.0738
 9657W        W27181   4.718  12.124   1.978  0.2962  0.0790 -0.0890
 9658W        W27182   2.546   6.510   1.292  0.1497 -0.0165 -0.1297
 9659W        W27183  15.605   8.227  15.393 -0.1430  0.0745  0.0251
 9660W        W27184  17.368   7.794   5.093  0.0994 -0.0040  0.1528
 9661W        W27185  17.054   0.809  12.264  0.0918  0.2460 -0.0692
 9662W        W27186  17.592  16.333  11.241  0.2225  0.1650 -0.0523
 9663W        W27187   0.170  12.236   4.906  0.3426  0.0763 -0.1758
 9664W        W27188   4.790   4.847   4.649 -0.0025 -0.1975 -0.0852
 9665W        W27189   7.445   6.535  11.437  0.0893  0.2576  0.0751
 9666W        W27190   4.769  12.823   1.040  0.1948  0.4566 -0.0065
 9667W        W27191   1.955  10.865   2.005 -0.0507  0.2596 -0.0579
 9668W        W27192   2.508   1.997  11.666 -0.1545 -0.0422  0.0475
 9669W        W27193   4.983   8.951   4.171 -0.0544  0.1835 -0.1145
 9670W        W27194  13.776   8.114  14.747 -0.1184  0.4538 -0.2413
 9671W        W27195  15.152   5.708   4.412  0.1060 -0.1025  0.1976
 9672W        W27196  10.674   9.522   5.173 -0.0130  0.0022  0.1113
 9673W        W27197  16.997   1.135   3.304  0.0146  0.1501  0.0073
 9674W        W27198  12.752  14.369   0.510 -0.2361  0.1784 -0.0877
 9675W        W27199   2.752   4.068   1.419 -0.2718  0.3010 -0.1197
 9676W        W27200  10.122  13.794   5.016 -0.2060  0.3802 -0.1089
 9677W        W27201  11.365  13.847  10.385  0.1454 -0.1509 -0.0407
 9678W        W27202   1.700  15.936   0.742 -0.0475  0.1206 -0.2306
 9679W        W27203   7.492  17.734   0.530  0.0923  0.0921 -0.2054
 9680W        W27204   1.444  15.721  13.945 -0.3387  0.0846 -0.2136
 9681W        W27205   5.987  11.655   1.187  0.1761 -0.3279 -0.0950
 9682W        W27206  13.335   0.866  15.429 -0.1837  0.1047 -0.0178
 9683W        W27207   0.779   4.736   3.705  0.1529 -0.0578  0.2286
 9684W        W27208  12.922  17.576   2.105  0.0597  0.0811 -0.0183
 9685W        W27209   6.713  12.753  15.225 -0.1683  0.1193  0.2366
 9686W        W27210  15.730  14.960   2.111 -0.0614 -0.1118 -0.4283
 9687W        W27211  10.620   6.453  15.460 -0.0065  0.0082 -0.0081
 9688W        W27212  12.521   1.862  14.838 -0.0163 -0.0742  0.2559
 9689W        W27213   4.256   8.578  11.705  0.0515  0.0981  0.2530
 9690W        W27214  17.454  17.737  15.041  0.1620  0.1561  0.1395
 9691W        W27215  12.780   7.047  13.803  0.4141  0.2532  0.3103
 9692W        W27216   5.525   6.155  12.711 -0.1101  0.0085  0.4223
 9693W        W27217  11.820  12.747  14.359  0.1502  0.1898  0.1144
 9694W        W27218  15.330   2.575  15.327 -0.0139 -0.0170 -0.2597
 9695W        W27219  14.307  17.615  14.750  0.0974 -0.1586 -0.1455
 9696W        W27220   7.887  14.180   0.187  0.0956 -0.1133  0.0042
 9697W        W27221   4.335  17.010   5.365  0.0332 -0.1252  0.1179
 9698W        W27222   2.382  11.184   2.223  0.0313  0.0658 -0.0431
 9699W        W27223   8.518   5.388   9.887  0.0618  0.2445  0.0460
 9700W        W27224  17.883   4.092   4.664 -0.2099 -0.0913  0.3393
 9701W        W27225  10.869  11.241   2.094 -0.3146  0.1043  0.1535
 9702W        W27226  15.905  11.480   2.046  0.0315  0.1260  0.0156
 9703W        W27227   1.744  11.687   4.318 -0.0745  0.1735  0.0362
 9704W        W27228  12.939   6.418   3.670  0.1449  0.0567  0.1778
 9705W        W27229  14.876   0.494  14.465 -0.3009  0.1345 -0.3178
 9706W        W27230  14.689  12.410   4.664  0.3125 -0.0209 -0.2166
 9707W        W27231   9.437   1.173  13.111 -0.1439 -0.1002  0.0028
 9708W        W27232   5.185   9.255   0.107  0.0407 -0.4897  0.1193
 9709W        W27233   8.019  15.239   2.818 -0.1855  0.0365 -0.4290
 9710W        W27234   8.880   0.087   0.002  0.2588  0.3308  0.1128
 9711W        W27235   0.685   0.402   0.265  0.0429 -0.1020 -0.2280
 9712W        W27236   3.634  13.374   2.566 -0.1430 -0.3517 -0.2938
 9713W        W27237   8.611  11.249   1.584 -0.0213 -0.1535  0.2258
 9714W        W27238   7.877  10.252   2.229  0.0256 -0.2992 -0.0822
 9715W        W27239   8.015   1.032   3.943  0.1256 -0.2520  0.0476
 9716W        W27240  15.528   0.957   0.823  0.0934  0.0425 -0.2041
 9717W        W27241   7.580  13.880   4.355 -0.1625 -0.0910 -0.2145
 9718W        W27242  16.356   7.255   1.053  0.3468  0.2331  0.0081
 9719W        W27243   3.931   9.812   0.227  0.1302 -0.1064  0.0816
 9720W        W27244  16.184  17.715  14.181  0.1787 -0.0598 -0.4994
 9721W        W27245   9.781  12.053   4.227  0.2489  0.3843 -0.4591
 9722W        W27246  13.004   8.093   2.121 -0.1233  0.3349 -0.1030
 9723W        W27247   5.107  11.316   2.435  0.0031  0.0298 -0.1792
 9724W        W27248   9.967   4.587  10.820  0.0771  0.0949  0.1213
 9725W        W27249   3.988   8.245   0.049 -0.1463  0.0595 -0.2456
 9726W        W27250  10.280  17.821  14.224 -0.0753  0.2259 -0.1043
 9727W        W27251  16.201   2.779  15.562  0.1563 -0.0474 -0.4082
 9728W        W27252  17.281  12.461   4.714 -0.3042 -0.3522  0.1875
 9729W        W27253  17.056  13.376   4.026  0.1340  0.0507  0.0982
 9730W        W27254   2.785   7.327   2.661 -0.2353  0.0330 -0.0144
 9731W        W27255  14.997  11.002   0.943 -0.2645 -0.1721  0.2663
 9732W        W27256   9.659   5.883   0.119  0.1334 -0.0926  0.4356
 9733W        W27257   5.994  16.895   9.910  0.4304  0.0975 -0.0164
 9734W        W27258  15.711   1.280   2.710  0.2824  0.1956 -0.0735
 9735W        W27259   7.757   9.184  13.771 -0.2051  0.3573 -0.3021
 9736W        W27260  12.409  13.603  14.659 -0.0688  0.1757 -0.0715
 9737W        W27261  15.600  12.471  11.717  0.0059 -0.0646  0.0268
 9738W        W27262  10.972   9.684   4.458  0.1817  0.1035  0.0045
 9739W        W27263  10.450   3.196  13.227 -0.1096  0.1370  0.0597
 9740W        W27264  10.843  15.489  11.515 -0.1244 -0.1139  0.0792
 9741W        W27265   1.887   5.253  15.707 -0.1582 -0.1896 -0.1507
 9742W        W27266  18.061  17.134   0.252 -0.3481 -0.0115 -0.0659
 9743W        W27267   1.663   1.166  15.874  0.1775 -0.0649  0.1878
 9744W        W27268   6.736  10.809  12.735 -0.1745  0.0116 -0.0298
 9745W        W27269   7.192   2.119   3.736 -0.1014 -0.0139 -0.1066
 9746W        W27270  11.033  12.947  13.833 -0.5357 -0.1964 -0.3771
 9747W        W27271  16.871  16.613   4.024  0.2226  0.1034  0.4873
 9748W        W27272   7.070   0.336  12.608  0.0951  0.0811  0.2698
 9749W        W27273   1.279  10.427   4.472 -0.5357  0.2903  0.0646
 9750W        W27274  15.924  17.617  13.685 -0.0892 -0.2198 -0.0638
 9751W        W27275  13.953  15.195  12.178  0.1090 -0.1862  0.1289
 9752W        W27276   1.311   8.733  12.926 -0.0348  0.0388 -0.3218
 9753W        W27277  11.660   5.416   0.972  0.0983 -0.2787  0.1242
 9754W        W27278  11.848   0.451  11.946 -0.1260  0.0736 -0.0052
 9755W        W27279   1.838   5.308   1.460  0.0372  0.0608  0.1187
 9756W        W27280   5.318  13.535   0.070  0.0344 -0.1174  0.0999
 9757W        W27281   1.877   3.910  11.794  0.2245 -0.0919  0.0883
 9758W        W27282   8.791  13.185   3.512  0.3210  0.1928  0.0560
 9759W        W27283  17.471  16.901  15.596  0.3367 -0.0867  0.0179
 9760W        W27284  12.482  11.204   2.007  0.2720  0.1031  0.3391
 9761W        W27285   5.009   7.247  11.089  0.5212  0.0151 -0.2470
 9762W        W27286   8.135  15.048  10.679  0.3310 -0.2744  0.1119
 9763W        W27287  10.936  14.803   1.425  0.2011  0.0086 -0.0855
 9764W        W27288  10.084   3.601   2.382 -0.0640 -0.2832 -0.2483
 9765W        W27289   1.022  10.188   4.123 -0.0029 -0.1175  0.1393
 9766W        W27290   9.027   8.519  11.239 -0.0400  0.1184  0.0098
 9767W        W27291  11.531   0.883   0.936 -0.3122  0.0183  0.1210
 9768W        W27292   1.229   7.376   4.977 -0.2909  0.0597  0.0784
 9769W        W27293   5.062  11.985   1.653 -0.2363 -0.1258 -0.0280
 9770W        W27294  17.577  14.844  13.946 -0.0034  0.4368 -0.0434
 9771W        W27295  13.013  12.780   1.989 -0.0737  0.3017  0.0261
 9772W        W27296  15.431   6.001   3.057  0.0984 -0.2402  0.0060
 9773W        W27297   3.595   9.702   4.075 -0.0179 -0.1245  0.0696
 9774W        W27298   7.656   4.209  15.306 -0.1206  0.1252 -0.0613
 9775W        W27299   8.392   2.534  15.207  0.0502  0.0326 -0.0741
 9776W        W27300   4.901  13.296  14.378 -0.1291 -0.0548 -0.1276
 9777W        W27301   8.810   5.432  10.936  0.4233 -0.1248 -0.1500
 9778W        W27302  16.302   2.992   5.056  0.2624 -0.1657  0.1824
 9779W        W27303  14.834  15.472  14.215 -0.0584  0.2740 -0.2858
 9780W        W27304   4.615   5.970  13.842 -0.0893 -0.2786  0.0251
 9781W        W27305  16.325   9.221   0.559 -0.0568  0.1542 -0.0117
 9782W        W27306   8.208  16.815   1.355 -0.0018  0.0349 -0.0781
 9783W        W27307   9.993   8.418   2.366 -0.1579  0.1486 -0.4071
 9784W        W27308   3.670   8.873  14.001  0.1176 -0.0160 -0.1529
 9785W        W27309   1.125  10.015  12.447 -0.1146 -0.0109  0.3309
 9786W        W27310  11.594   6.448  12.518  0.1077  0.4381  0.4204
 9787W        W27311  10.384   3.817  11.085 -0.0275  0.2094  0.2698
 9788W        W27312   9.126   7.500   2.105  0.2444 -0.4224 -0.1405
 9789W        W27313  11.950  17.729   3.355 -0.0425  0.0413  0.3925
 9790W        W27314  15.605   1.930  15.514  0.1712 -0.3256 -0.1267
 9791W        W27315   0.769   2.729   1.537 -0.0897  0.1566 -0.1104
 9792W        W27316  16.494   8.675   4.060 -0.0889 -0.2169  0.0257
 9793W        W27317  14.306  12.107  13.361 -0.3224 -0.4106  0.0874
 9794W        W27318  16.581   4.690   3.141 -0.1542 -0.2313  0.0856
 9795W        W27319  16.493  14.579  14.625  0.1643 -0.4084  0.0391
 9796W        W27320  17.797   2.680   1.123  0.1399 -0.0888 -0.1096
 9797W        W27321   9.931  11.122   4.629  0.0269  0.1555 -0.3680
 9798W        W27322  11.299   5.018   2.889  0.1413  0.3454 -0.2490
 9799W        W27323   4.252  10.727  12.424  0.0053  0.0576 -0.3737
 9800W        W27324  16.894   4.496   3.531 -0.1461  0.2380  0.4110
 9801W        W27325   8.340   6.248  11.058  0.1448  0.3167 -0.3107
 9802W        W27326   1.446   2.210  14.493  0.0624  0.1483 -0.1214
 9803W        W27327  15.825   6.765  12.935  0.2075 -0.2935  0.2375
 9804W        W27328   1.134   4.381   3.887 -0.2621  0.1227 -0.0930
 9805W        W27329   6.558  15.484  15.016  0.3671 -0.0381 -0.3422
 9806W        W27330   1.623   3.476   0.317  0.0448  0.0084  0.0758
 9807W        W27331  10.548  17.379   1.864 -0.2316  0.2464 -0.1981
 9808W        W27332  12.739   0.411   5.473 -0.0733 -0.2493  0.2229
 9809W        W27333  13.642   0.982  13.055  0.1696 -0.0912 -0.3918
 9810W        W27334   8.307   6.327  13.914  0.0697 -0.0660  0.1186
 9811W        W27335   5.774   7.541   4.621  0.1017 -0.0143  0.0572
 9812W        W27336  13.967  11.527  11.748 -0.3511 -0.2486 -0.4206
 9813W        W27337  16.984   5.084   3.929 -0.0077  0.0837 -0.1498
 9814W        W27338   0.777   4.875  15.933  0.0036 -0.1902 -0.3365
 9815W        W27339  13.076  12.737  12.890 -0.0539 -0.1575  0.0170
 9816W        W27340   2.602  11.057   4.238 -0.1050 -0.0449 -0.1101
 9817W        W27341   5.193   0.306   2.484 -0.0085  0.0458  0.1173
 9818W        W27342   7.425   1.954  12.529  0.0030  0.3751 -0.1478
 9819W        W27343  16.295   7.861  13.570 -0.0307  0.2053 -0.1139
 9820W        W27344  12.166   6.102   3.547 -0.0924  0.4070 -0.1052
 9821W        W27345  17.483  11.421  12.444  0.0469  0.1011  0.4936
 9822W        W27346  15.293   2.079  12.894 -0.0644  0.0984 -0.2627
 9823W        W27347  13.728   6.560   2.315 -0.0575  0.1644  0.2118
 9824W        W27348   6.138   6.819   0.340 -0.0383  0.0353 -0.4131
 9825W        W27349   1.110  11.221  13.845  0.1040  0.2415 -0.0900
 9826W        W27350   3.325   2.114  11.377 -0.0337  0.1923  0.1003
 9827W        W27351   9.228   7.484  12.202  0.0196 -0.1415 -0.2142
 9828W        W27352   5.613  16.506  12.441 -0.2525 -0.1276  0.1395
 9829W        W27353   9.449  16.377  14.832 -0.0228 -0.3754  0.1869
 9830W        W27354  11.459   4.610  14.969  0.0347  0.1729 -0.0601
 9831W        W27355   8.980   5.830   1.813  0.1450 -0.1501  0.2422
 9832W        W27356   7.588   4.606   3.295  0.1475  0.1386 -0.0789
 9833W        W27357   0.841   3.452  12.070 -0.0221 -0.0043 -0.1754
 9834W        W27358   2.071   3.965  13.651  0.2755  0.1199  0.1688
 9835W        W27359   2.859  13.735   2.049 -0.1608  0.1252 -0.0432
 9836W        W27360   3.439   6.697   5.650 -0.3123  0.1043  0.2380
 9837W        W27361  13.678   2.594  15.861  0.0987  0.1343  0.1919
 9838W        W27362   7.081   2.858  12.939 -0.0203  0.0736 -0.0817
 9839W        W27363  13.446   2.631   0.711  0.3187  0.0175 -0.0756
 9840W        W27364  18.138   2.426  14.424  0.2636  0.0930  0.0907
 9841W        W27365   9.347   6.239   1.518 -0.2571 -0.0438 -0.2783
 9842W        W27366   1.270   9.727  15.948  0.2216  0.0931  0.2863
 9843W        W27367   2.646   3.084  10.243 -0.2288 -0.1823 -0.2454
 9844W        W27368  13.543   9.447  15.845 -0.1148  0.0862  0.1962
 9845W        W27369   2.220   2.976  14.745 -0.0033  0.0494  0.1050
 9846W        W27370   1.506  12.419  11.580 -0.0484  0.0640 -0.0516
 9847W        W27371   7.395  14.008  12.527 -0.1036  0.2366 -0.1329
 9848W        W27372   6.260  17.927  12.136  0.1097  0.1021 -0.0355
 9849W        W27373   1.310   4.267  11.847  0.0568  0.0135  0.0119
 9850W        W27374   5.476   6.852   4.602 -0.2689 -0.1537 -0.1460
 9851W        W27375   1.765  13.180  14.777  0.2336 -0.0576 -0.1088
 9852W        W27376  10.468   2.679   2.529  0.1342 -0.4876 -0.2360
 9853W        W27377   1.392  17.014  12.649  0.3805 -0.1661  0.2190
 9854W        W27378   7.229   6.635  12.936 -0.0389  0.2424  0.3087
 9855W        W27379   4.164   1.874  12.439 -0.1221  0.0879  0.0841
 9856W        W27380  15.907  10.082   2.068  0.1259  0.0039 -0.0050
 9857W        W27381   7.196   4.138   1.854  0.0844 -0.0078 -0.0110
 9858W        W27382  13.664   5.288  13.197 -0.1591  0.0047  0.1190
 9859W        W27383  14.963   7.042   4.750 -0.1141  0.1806 -0.2731
 9860W        W27384   2.983   4.286   0.165 -0.1257 -0.2009  0.1154
 9861W        W27385  10.342  10.732   4.646  0.0067 -0.0613  0.2874
 9862W        W27386  15.076   8.787   0.619  0.2887  0.3553 -0.3614
 9863W        W27387   2.113   5.684  12.353 -0.1378  0.2071 -0.1070
 9864W        W27388  17.896   1.105   1.090 -0.2449 -0.3139 -0.0383
 9865W        W27389  16.878   6.391   2.057  0.1979  0.1008 -0.2310
 9866W        W27390   7.833   0.533   4.095  0.1083 -0.1907 -0.0004
 9867W        W27391   5.744  15.283  13.054 -0.0093  0.0876  0.1950
 9868W        W27392  13.022   6.619  12.510 -0.1497 -0.0552  0.2198
 9869W        W27393  15.484  13.966   5.009  0.0739 -0.0025  0.0273
 9870W        W27394  15.857   7.956   3.980 -0.0939 -0.2943 -0.2162
 9871W        W27395  10.814   3.558  13.255  0.0698 -0.3000 -0.1417
 9872W        W27396   0.972  11.110   1.118  0.1906  0.0296  0.0562
 9873W        W27397   8.846   6.125   9.829 -0.2148  0.1012 -0.1096
 9874W        W27398   1.504   0.099   5.050 -0.0170 -0.0485  0.1438
 9875W        W27399  16.963   7.105   6.329  0.0983  0.2161 -0.2739
 9876W        W27400   7.180   8.165   2.311 -0.0322  0.0942 -0.0655
 9877W        W27401  12.919  16.616  12.230  0.0581  0.0419 -0.2902
 9878W        W27402  13.295  12.402   3.487  0.0160  0.3983 -0.1548
 9879W        W27403  10.251   3.639  13.971 -0.3575  0.0524  0.2342
 9880W        W27404   5.390   8.302   1.962  0.2066 -0.0031  0.2004
 9881W        W27405  10.342  13.732   4.505 -0.1499  0.0689 -0.0959
 9882W        W27406   7.141  11.719   0.158  0.0666  0.0526 -0.0016
 9883W        W27407  10.506   7.919  15.488 -0.0443 -0.1266 -0.0328
 9884W        W27408   2.276   2.236  13.113  0.3061  0.0413  0.0606
 9885W        W27409  12.962   5.722  11.732  0.2554  0.0511 -0.0147
 9886W        W27410  14.679  13.349  13.615 -0.0993 -0.4270  0.2667
 9887W        W27411  16.105  13.510  13.947 -0.1834 -0.1036  0.1162
 9888W        W27412  15.063   2.632   2.971 -0.0035 -0.0914  0.2451
 9889W        W27413  13.604   8.940  15.796 -0.2543 -0.2517 -0.0711
 9890W        W27414  12.950   5.359  12.576  0.2797  0.0440 -0.2108
 9891W        W27415  17.353  12.831  13.371  0.0036  0.0188  0.0880
 9892W        W27416  14.487   4.230  13.668  0.2386 -0.1525  0.1778
 9893W        W27417   2.518  17.280   4.960  0.2833 -0.0337  0.0221
 9894W        W27418   5.199   0.420   0.663 -0.0352  0.0990  0.0423
 9895W        W27419  15.463  14.678   3.350  0.0830  0.1655  0.0947
 9896W        W27420  16.516   6.133  12.745  0.3274 -0.3150  0.0472
 9897W        W27421   6.318   8.180   1.265 -0.1792  0.2073 -0.0246
 9898W        W27422   8.449   9.060  13.467  0.0988  0.0677  0.2449
 9899W        W27423   8.643   3.724   1.504  0.1835  0.0176  0.1949
 9900W        W27424   7.104   5.822   5.701 -0.0068  0.2135  0.0581
 9901W        W27425   7.614   3.875   3.812 -0.0274 -0.5481  0.1504
 9902W        W27426   5.045   6.373   2.259 -0.1488  0.1066  0.2440
 9903W        W27427  11.583   5.605  11.868  0.0655 -0.0511 -0.0316
 9904W        W27428  10.070  13.918  14.420  0.0127 -0.2115 -0.1348
 9905W        W27429   8.883   4.902   5.703  0.0656 -0.0969  0.1103
 9906W        W27430  11.115   9.121   3.089 -0.3453  0.0750 -0.0619
 9907W        W27431  17.358  10.448   3.829 -0.1388  0.4197 -0.0749
 9908W        W27432  17.113  13.622  14.017 -0.2337  0.1793 -0.2798
 9909W        W27433   0.268   9.655   4.458 -0.2248 -0.0515 -0.2251
 9910W        W27434   3.318   7.895  14.997  0.2066  0.1556 -0.1864
 9911W        W27435  12.607  17.495  14.152  0.0448  0.0901 -0.0762
 9912W        W27436  12.069   6.940   1.236 -0.0377 -0.0294 -0.1028
 9913W        W27437   3.838   7.291   4.261 -0.0973 -0.3469  0.0624
 9914W        W27438   3.225  13.957   0.773 -0.0272 -0.0658 -0.1479
 9915W        W27439   1.017   2.865   0.151 -0.1226  0.2628  0.0986
 9916W        W27440   9.804   5.435   1.848 -0.1348 -0.1513 -0.0771
 9917W        W27441   5.614  11.367   0.484 -0.2822 -0.1080 -0.2134
 9918W        W27442   5.362   0.264  14.268  0.0756 -0.0951 -0.2381
 9919W        W27443  11.380  12.326   4.026 -0.0673  0.0968  0.0505
 9920W        W27444  13.822  17.726   2.220 -0.3515 -0.0667  0.1546
 9921W        W27445  13.895  18.163  13.024  0.2517  0.1594  0.2604
 9922W        W27446  16.837  17.905   0.430  0.2712 -0.0478 -0.0808
 9923W        W27447   1.762  14.771   2.121 -0.1642  0.1619 -0.1936
 9924W        W27448   8.623   2.755   1.385  0.3887 -0.0878 -0.0660
 9925W        W27449  14.514   9.979   4.805  0.2179  0.0103  0.1529
 9926W        W27450  13.421   2.166  11.644 -0.4675  0.5113  0.0949
 9927W        W27451  16.770  15.349  12.276  0.2565  0.4299  0.3009
 9928W        W27452   4.148   7.724   5.394  0.0979 -0.0348 -0.4773
 9929W        W27453   8.634  14.639  12.504  0.0836 -0.1803 -0.1904
 9930W        W27454  13.660  10.754  14.021  0.1532 -0.1360 -0.2203
 9931W        W27455   6.497  12.623   4.328 -0.1937  0.1571  0.2552
 9932W        W27456  10.424  15.306  14.075 -0.1837 -0.2918 -0.0784
 9933W        W27457   8.937   7.073  11.156 -0.1868 -0.1324 -0.1107
 9934W        W27458  15.793   9.434  13.078  0.0220 -0.1840  0.0185
 9935W        W27459  11.514   3.604   3.835  0.0249  0.3273  0.1590
 9936W        W27460  15.839   4.387  11.892  0.1578  0.1784  0.2464
 9937W        W27461   3.848   2.695   0.695 -0.1579 -0.2047  0.2396
 9938W        W27462  13.114  14.408   3.080 -0.2637 -0.1349 -0.1619
 9939W        W27463  17.069  14.821  13.839 -0.0569  0.0867  0.1599
 9940W        W27464  15.293  16.148  14.357 -0.0966 -0.1780 -0.0570
 9941W        W27465  15.387  10.703   1.563  0.5359 -0.1645 -0.3295
 9942W        W27466   5.628  11.539  13.048  0.0660  0.0346 -0.2066
 9943W        W27467  16.484   3.319   2.624 -0.1091  0.1895 -0.4115
 9944W        W27468   3.896  12.370  12.858  0.2059  0.1834  0.2224
 9945W        W27469  10.862  17.536  11.576 -0.1762 -0.4111  0.2506
 9946W        W27470  15.483  17.458   4.824  0.1919  0.2493  0.0378
 9947W        W27471   1.358  15.976   4.955  0.0054 -0.0126 -0.1484
 9948W        W27472   3.444  10.236  14.776 -0.3149 -0.3581 -0.1602
 9949W        W27473   4.074  15.390   2.746 -0.1029  0.1229  0.0946
 9950W        W27474   2.528  12.779  13.277  0.0026  0.1740 -0.0670
 9951W        W27475  17.378   7.614   0.156 -0.1982 -0.0439  0.1451
 9952W        W27476   6.319  13.500   1.231  0.0263  0.0108 -0.1026
 9953W        W27477  17.115   7.194  14.735 -0.1426 -0.2027  0.0139
 9954W        W27478   0.639  10.384  15.401  0.1196 -0.1382  0.1130
 9955W        W27479  11.702   4.550   3.912  0.1218  0.0573  0.0214
 9956W        W27480   8.899  14.883   4.265 -0.1389  0.2529 -0.5227
 9957W        W27481  10.526   4.418   1.375  0.1780 -0.0692 -0.1776
 9958W        W27482  16.991   6.444   3.112  0.4564  0.1940 -0.1538
 9959W        W27483  11.406   1.904  15.524  0.0390 -0.1242 -0.2337
 9960W        W27484   4.474   5.863  11.988  0.0057  0.0206 -0.1197
 9961W        W27485   6.726  16.435  12.889  0.3240 -0.3218 -0.0869
 9962W        W27486  13.315  11.580  15.191 -0.1585 -0.1248 -0.0424
 9963W        W27487  14.082   2.919  10.734  0.0225 -0.4003 -0.1296
 9964W        W27488  11.136   8.191   3.777  0.3689  0.0625  0.1142
 9965W        W27489   1.053  17.495  11.953 -0.1865 -0.3473 -0.0143
 9966W        W27490  12.404  13.808   0.571  0.1770 -0.1629  0.1655
 9967W        W27491   0.815  17.450   2.162  0.2196  0.0041 -0.1777
 9968W        W27492  11.564   3.134  12.807  0.0721  0.1027  0.3751
 9969W        W27493  13.201  12.289   4.055 -0.1965  0.1945 -0.0226
 9970W        W27494  12.822  11.429   5.842  0.0041  0.0621  0.2480
 9971W        W27495   1.451   6.363   0.613 -0.1515 -0.1175  0.3116
 9972W        W27496   0.945   9.085  14.862 -0.1622  0.0172 -0.0746
 9973W        W27497   8.553   4.176   1.766  0.1022 -0.0871  0.0496
 9974W        W27498   5.789   5.205  14.772 -0.3700  0.1095  0.0515
 9975W        W27499   0.511  11.842   4.600  0.0223  0.2214  0.4055
 9976W        W27500   1.172   7.868  13.239  0.1243  0.3655 -0.0108
 9977W        W27501   4.149  14.718   2.084 -0.1124  0.1130 -0.1206
 9978W        W27502   8.095   9.894  14.252 -0.1460 -0.0325 -0.1595
 9979W        W27503  11.296  13.015   3.479  0.5126  0.3071  0.0959
 9980W        W27504   7.045   1.469   3.216  0.0355  0.0684 -0.0574
 9981W        W27505   8.764   3.590   0.982  0.0529  0.3609 -0.0462
 9982W        W27506   9.972   9.694   5.274  0.2130 -0.0209  0.0307
 9983W        W27507  10.015  16.843  13.162 -0.1255 -0.0824 -0.1053
 9984W        W27508  17.575   2.945   1.473 -0.1250 -0.3827 -0.0416
 9985W        W27509   0.634  14.098  14.431 -0.3112  0.2184  0.1995
 9986W        W27510   6.045   0.589  11.674  0.1157 -0.5058 -0.0413
 9987W        W27511  17.516   3.718   0.879  0.0060 -0.2059  0.0479
 9988W        W27512   1.817  18.191  15.791 -0.1053 -0.1973  0.2134
 9989W        W27513  15.192   9.940   1.074  0.0942 -0.0241  0.0028
 9990W        W27514  16.491  11.953  13.672 -0.0499  0.1695  0.0368
 9991W        W27515  14.378   9.999  11.740 -0.1664 -0.0130  0.2165
 9992W        W27516   9.126   6.189  14.388  0.0872 -0.0012 -0.0584
 9993W        W27517   6.603  15.019   3.848 -0.0959  0.1630 -0.1077
 9994W        W27518  12.542   3.044   0.005  0.2212  0.1714 -0.0252
 9995W        W27519  14.044  16.979   0.115 -0.1083 -0.1730 -0.0941
 9996W        W27520   0.282   3.686  13.172 -0.1049  0.0620  0.0062
 9997W        W27521   1.093  12.881  11.375  0.3238 -0.1844 -0.2428
 9998W        W27522   4.035  12.060  14.225  0.0909  0.1222  0.0134
 9999W        W27523   6.030  15.101  15.807 -0.0988  0.2253 -0.1717
10000W        W27524  14.160  13.646  15.164 -0.0605 -0.0332  0.1328
10001W        W27525   7.203  18.035   3.642 -0.1805 -0.0612 -0.3795
10002W        W27526  12.238  16.145  13.424  0.0626  0.2812  0.1184
10003W        W27527  10.697   1.494   0.063 -0.3634 -0.3385  0.1802
10004W        W27528  17.219   7.128   4.627 -0.1372 -0.3226 -0.0081
10005W        W27529  12.088   6.037   0.752  0.0038  0.0080  0.3097
10006W        W27530   5.713   5.899  14.502 -0.1802 -0.1397 -0.2826
10007W        W27531   4.851  13.444   0.237  0.4490 -0.0092  0.1627
10008W        W27532  13.881   6.069  13.668  0.4479 -0.0342  0.1420
10009W        W27533   9.066   2.260  14.525  0.0977 -0.1513  0.0822
10010W        W27534   1.524   7.395  14.132 -0.0853 -0.0288 -0.2093
10011W        W27535   4.800  15.965   5.050  0.3454  0.1457  0.1674
10012W        W27536  11.202   4.465   0.492 -0.0045 -0.1230 -0.1057
10013W        W27537   2.213  12.715   1.368  0.3147  0.1101  0.1683
10014W        W27538   8.757   6.446  14.735  0.0246 -0.0102  0.3080
10015W        W27539  17.842  14.638   2.495  0.0176  0.1911 -0.0234
10016W        W27540  11.050   2.297   5.268 -0.1719  0.2605 -0.1865
10017W        W27541   2.243   8.638  13.575 -0.2755  0.0298 -0.2914
10018W        W27542  14.862  14.683   5.050 -0.1151 -0.2227  0.0069
10019W        W27543  12.797   3.420   0.256  0.0537  0.2205 -0.0357
10020W        W27544  17.213  17.026  16.021 -0.3931 -0.0109 -0.3228
10021W        W27545   8.724   2.922  14.926  0.1094 -0.0340 -0.0433
10022W        W27546   8.794   4.313   2.951  0.1007  0.0830 -0.3281
10023W        W27547  13.096   7.060   1.326  0.2097 -0.2776  0.0724
10024W        W27548  13.144   6.638  15.981  0.1169  0.0745 -0.2515
10025W        W27549  12.078  14.425  14.451  0.3169 -0.0862  0.1380
10026W        W27550  15.777   7.905   1.752  0.0046  0.1291  0.0412
10027W        W27551  17.936  18.096  11.852 -0.4966 -0.3153 -0.1935
10028W        W27552   8.142  15.482   3.727 -0.1989  0.0559  0.3379
10029W        W27553  16.288   4.728  13.652  0.1651  0.0845  0.2712
10030W        W27554   6.347   3.770   1.412  0.2186  0.2890  0.0083
10031W        W27555   9.036  12.992  14.564  0.1308  0.1797  0.2250
10032W        W27556   4.655  10.819  13.545 -0.2760 -0.0466  0.1683
10033W        W27557   2.262   4.871  13.558  0.0097 -0.4545  0.1392
10034W        W27558  14.734  14.732  12.089  0.1843 -0.0053 -0.0313
10035W        W27559   3.904  17.718  15.157  0.0610  0.0967  0.0515
10036W        W27560  12.800   2.969  13.312  0.0650 -0.1018 -0.2683
10037W        W27561   2.282  10.926   3.806  0.1901  0.1497  0.2161
10038W        W27562   9.800   4.698  11.270  0.1704 -0.1748 -0.3839
10039W        W27563   8.014   7.349  11.335  0.2300 -0.0347 -0.1083
10040W        W27564  12.686  14.677   1.590 -0.1617  0.1675 -0.0548
10041W        W27565   3.294  12.156  15.291  0.2312  0.5474 -0.0521
10042W        W27566  10.872  14.149   5.175 -0.1565 -0.0183  0.1164
10043W        W27567   9.380   4.431   3.470 -0.3224 -0.0978  0.1080
10044W        W27568  14.138  11.812  14.605  0.0735  0.0677 -0.1212
10045W        W27569   3.777  17.186  15.936  0.0164 -0.1737  0.0225
10046W        W27570   8.289  16.389  15.694  0.1854 -0.1476  0.5803
10047W        W27571  15.439  16.281  11.682 -0.2067 -0.0633 -0.2606
10048W        W27572  17.170  14.362   4.302  0.2827 -0.0563 -0.0009
10049W        W27573   0.363   2.355  11.568  0.1675  0.0229  0.2110
10050W        W27574  17.575   1.432   2.979 -0.0395 -0.1320 -0.2483
10051W        W27575   7.461  15.145  12.438  0.1379 -0.1251 -0.0144
10052W        W27576  12.317  17.587   3.690 -0.0915 -0.1174  0.1006
10053W        W27577   1.875   0.128   2.325  0.3040 -0.2521 -0.4804
10054W        W27578   0.298   7.322  14.957 -0.3421  0.1719  0.1671
10055W        W27579   8.303   7.157  14.167 -0.0315  0.1288 -0.1514
10056W        W27580  17.255   1.657   4.071 -0.1401 -0.0894 -0.0328
10057W        W27581  17.755   2.944   2.413  0.0746 -0.1010 -0.2409
10058W        W27582  15.172  13.640   1.404 -0.1567  0.2029 -0.2666
10059W        W27583   0.647  10.379   2.314 -0.3146 -0.0032 -0.1023
10060W        W27584  14.305  11.924   3.447  0.2014 -0.2871  0.1441
10061W        W27585   3.375  13.941  14.196  0.0900  0.0521  0.0117
10062W        W27586   7.370   0.754   2.730  0.0057 -0.2145 -0.5897
10063W        W27587  12.268  11.649  13.093 -0.3322 -0.2056 -0.0499
10064W        W27588  14.798   2.548   0.450 -0.1934  0.2216 -0.1145
10065W        W27589   3.925  12.476  11.593  0.1499  0.1300  0.1271
10066W        W27590   6.669  12.476   2.589 -0.0230 -0.1845 -0.1375
10067W        W27591  14.151  12.803  15.677  0.1078 -0.0460  0.1659
10068W        W27592  11.576  12.190   2.980 -0.0702 -0.0841  0.4594
10069W        W27593   3.612   1.698   5.355 -0.2475 -0.0280 -0.2227
10070W        W27594  16.729   4.526   2.182  0.0942 -0.1891  0.2053
10071W        W27595   9.130   1.063   0.700 -0.4175 -0.4159  0.1836
10072W        W27596  15.742  10.309  11.117  0.2047 -0.0062 -0.1216
10073W        W27597   8.594   0.282  14.881 -0.0607 -0.0784 -0.0532
10074W        W27598   3.259   0.409   1.249 -0.1783 -0.0136  0.1260
10075W        W27599   6.157  17.195  12.658  0.3510  0.3489 -0.3449
10076W        W27600  13.335   9.159   5.107  0.0275 -0.0288  0.0260
10077W        W27601   1.394   7.190   2.594  0.1818 -0.2042  0.0911
10078W        W27602   6.701  12.182   4.449  0.0824 -0.1158  0.1370
10079W        W27603  10.688  11.079   1.651  0.0854  0.0316  0.0942
10080W        W27604  13.025  15.224   2.737 -0.3028 -0.0889  0.0842
10081W        W27605   1.162   8.647  15.724  0.4560  0.0004  0.0272
10082W        W27606  11.323   5.677   1.304 -0.1593 -0.1349 -0.4173
10083W        W27607  16.024   1.014   0.696 -0.1094  0.0267  0.1400
10084W        W27608  17.817   3.456  12.729 -0.3411  0.2894  0.1810
10085W        W27609   8.340  12.619   1.082 -0.1235 -0.2261 -0.0164
10086W        W27610   9.975  14.008   2.594 -0.1557  0.1724  0.1661
10087W        W27611   9.716   3.812  15.734  0.3109  0.0869  0.0736
10088W        W27612   5.578   3.908  12.325 -0.1374 -0.0367  0.0323
10089W        W27613   9.423  16.084  13.595  0.2052  0.3364 -0.0142
10090W        W27614  17.134   4.111  14.216  0.1617 -0.1425 -0.0072
10091W        W27615  10.076  13.785   2.119  0.1467  0.0480 -0.1267
10092W        W27616   4.560   8.988  11.533 -0.1290  0.1379  0.0941
10093W        W27617   8.711  17.705  13.865  0.1429  0.1183  0.2822
10094W        W27618   6.320  11.942  15.527 -0.2613  0.3442 -0.4866
10095W        W27619   3.141  12.068   3.385  0.1925  0.2687  0.0007
10096W        W27620   4.879   0.372   1.622 -0.0550 -0.0012  0.0195
10097W        W27621   2.495   8.028   3.169 -0.1263  0.2906 -0.0334
10098W        W27622   8.677   7.540   2.776 -0.3575  0.1037  0.1185
10099W        W27623   4.463   1.661  14.945 -0.2565 -0.1651 -0.3032
10100W        W27624   5.199   9.046   4.668  0.1810 -0.2130  0.1094
10101W        W27625   3.965  15.695  10.338 -0.0403  0.0055 -0.0112
10102W        W27626  16.943  18.048  13.684 -0.0334 -0.1541  0.0280
10103W        W27627   4.323  13.928   5.322  0.0105 -0.0975 -0.2722
10104W        W27628   0.061   1.431   1.681 -0.0869 -0.0567  0.0992
10105W        W27629  17.878   4.115  14.772 -0.1600 -0.2119 -0.1095
10106W        W27630  16.684   8.502   3.119  0.0719  0.2183  0.0971
10107W        W27631  11.389   9.761   2.545  0.4328  0.2332  0.0459
10108W        W27632  16.838   9.056   5.133  0.3152  0.0554  0.0393
10109W        W27633  18.042   9.869   1.866  0.2523 -0.3825  0.1097
10110W        W27634  17.637   5.954   0.729  0.0208  0.1179  0.0253
10111W        W27635   1.331   4.003  13.094  0.0176 -0.3445 -0.3592
10112W        W27636   7.431   9.514  14.562 -0.1235 -0.0528  0.0345
10113W        W27637   9.241  13.605  12.062  0.3203  0.2671  0.1028
10114W        W27638   1.151   1.696   0.894  0.1044  0.1916 -0.1704
10115W        W27639   4.193  13.622   3.531 -0.1735 -0.0230 -0.3274
10116W        W27640   6.481  14.778  14.357  0.1212  0.1196 -0.0513
10117W        W27641   2.004  16.090   3.718 -0.0236  0.0774 -0.0269
10118W        W27642  10.846  16.855   3.514  0.1670 -0.1238 -0.0105
10119W        W27643   6.546   0.926  11.718 -0.3757 -0.1550  0.0176
10120W        W27644   0.085  12.427  13.641 -0.3239  0.0943  0.0237
10121W        W27645  11.453   2.449   5.456 -0.1517 -0.3118 -0.3259
10122W        W27646   2.355   3.319   0.080  0.3801  0.1310  0.0862
10123W        W27647   4.746  10.764   5.173 -0.1186 -0.0265 -0.0757
10124W        W27648   1.833  10.570   0.601 -0.1719  0.2307 -0.1122
10125W        W27649   6.393   7.680   0.410  0.0117  0.0310  0.0828
10126W        W27650  14.050  13.105   4.096 -0.3592  0.3528 -0.2348
10127W        W27651   4.730   5.250  10.282 -0.3879 -0.2487  0.1710
10128W        W27652   0.764  15.409  10.997  0.2843 -0.4898 -0.2358
10129W        W27653   9.839  14.843   4.478 -0.2250  0.1710 -0.1405
10130W        W27654   8.140  17.537  12.801 -0.0779  0.0771 -0.2141
10131W        W27655   1.577  12.426  13.745  0.1590  0.1175  0.1685
10132W        W27656  10.450  10.445   3.418  0.1728  0.1010 -0.0774
10133W        W27657  10.976   0.068  15.187  0.0117 -0.4446  0.0199
10134W        W27658  15.593  16.969  12.497 -0.1036 -0.0806  0.0547
10135W        W27659   3.002  17.309  11.992  0.4013  0.2658 -0.1230
10136W        W27660  13.486  15.843  11.171  0.0767  0.0739 -0.0934
10137W        W27661   4.302   2.569   0.507 -0.1061 -0.4790 -0.0102
10138W        W27662   1.861   0.209  13.722 -0.0308  0.2705 -0.0228
10139W        W27663   1.304   6.921  12.144  0.0794 -0.3745  0.0631
10140W        W27664   6.634  17.733   1.536  0.1041  0.0003 -0.1324
10141W        W27665   1.837  12.877   0.455  0.1874 -0.0858  0.0294
10142W        W27666   1.281   1.819   4.612  0.1925  0.2060  0.0768
10143W        W27667   1.458  17.871  12.143 -0.0771 -0.0438 -0.1839
10144W        W27668   4.304   6.728   3.861  0.0171  0.0057  0.1406
10145W        W27669  16.261  10.268   4.606  0.0628 -0.1271  0.2961
10146W        W27670   1.449  16.542  15.733  0.0018  0.1253  0.3321
10147W        W27671   0.018   4.704   2.476  0.0626 -0.0036  0.1327
10148W        W27672  18.063  17.118  11.866  0.1866  0.1851  0.0897
10149W        W27673   6.663  15.044  12.500  0.1663  0.0423  0.2015
10150W        W27674  15.932   0.232   2.560  0.1536  0.4098  0.3553
10151W        W27675   2.803   7.911   4.419 -0.1136 -0.0258 -0.2035
10152W        W27676   8.115   9.829  15.240 -0.0058  0.2997 -0.1042
10153W        W27677   0.532   7.423  14.421 -0.0964 -0.1056 -0.0187
10154W        W27678   4.503   5.826   1.756  0.0562 -0.0675  0.2178
10155W        W27679  15.638   8.268  12.448  0.0024  0.0115  0.0965
10156W        W27680   5.179   3.307  11.837 -0.1094  0.0895 -0.1588
10157W        W27681   3.095  14.448   3.303 -0.1729 -0.5036 -0.1239
10158W        W27682   6.413  12.444  13.267 -0.3139 -0.1933 -0.0789
10159W        W27683   9.176   0.330  14.982 -0.0311  0.1574 -0.3200
10160W        W27684   8.527  14.467   4.483 -0.1825  0.2032 -0.0225
10161W        W27685  15.921  16.605   2.683 -0.1078  0.0585  0.2796
10162W        W27686  11.441   3.891  14.421  0.0369  0.2900 -0.1562
10163W        W27687   3.921  10.470   4.538  0.2814 -0.3552  0.0020
10164W        W27688   9.463   7.789   3.923  0.0194  0.1337  0.4076
10165W        W27689   7.688  11.721   2.847 -0.0042  0.1335  0.0095
10166W        W27690  15.948  10.376  14.469  0.0038  0.0572 -0.0470
10167W        W27691   2.458   5.929  15.311 -0.1133 -0.2042 -0.0627
10168W        W27692   5.615   3.431   1.334 -0.1994 -0.0003 -0.2791
10169W        W27693   4.619   1.017  10.560 -0.1408  0.0911 -0.1837
10170W        W27694   8.481   8.809  13.051  0.0727 -0.2820 -0.2613
10171W        W27695  17.952   6.086   1.178  0.0630  0.1920 -0.0836
10172W        W27696   1.065  11.569  14.377  0.0939  0.2586  0.1141
10173W        W27697   0.976   4.114   4.658 -0.0457 -0.0158  0.1029
10174W        W27698   1.410  11.898   5.469  0.0544 -0.0494 -0.0420
10175W        W27699   8.400   7.072  11.464 -0.0762 -0.0072  0.1252
10176W        W27700   6.391   2.489  14.196 -0.0407 -0.1170  0.0088
10177W        W27701  11.206   1.481   4.095 -0.1393 -0.2830  0.0697
10178W        W27702   6.765   7.369  14.934 -0.1899  0.0028 -0.2529
10179W        W27703   3.853   3.211   3.321  0.1398  0.0273  0.1311
10180W        W27704   0.353   8.093  15.691 -0.2711  0.1180 -0.0353
10181W        W27705   4.971   4.732   4.187 -0.0946 -0.3170  0.3074
10182W        W27706  12.686   2.245   3.855  0.1599 -0.0493 -0.0500
10183W        W27707  14.168  16.955   2.532  0.1082 -0.1808  0.0681
10184W        W27708   3.940  10.641   0.983 -0.3397 -0.0042 -0.0220
10185W        W27709   9.800   5.884  11.907  0.2788  0.1438  0.0169
10186W        W27710  11.794   0.672   3.711 -0.1967  0.3436 -0.1986
10187W        W27711   6.939   5.153   2.905  0.0502 -0.1648 -0.1024
10188W        W27712   4.192  11.095  11.424  0.2171 -0.1706  0.1055
10189W        W27713  10.136   5.990  12.776 -0.1269  0.1291  0.0427
10190W        W27714   7.112  12.332   0.826 -0.2260 -0.2555 -0.1254
10191W        W27715   0.054   6.868   4.544  0.0774 -0.0399  0.1052
10192W        W27716  18.108   0.021   4.627 -0.0142  0.1315 -0.1082
10193W        W27717   3.067   3.807   3.248 -0.2334 -0.1883  0.0351
10194W        W27718  12.876   6.357   5.121  0.2340 -0.5242 -0.1126
10195W        W27719  15.880   4.182   3.063 -0.2042 -0.1700  0.0245
10196W        W27720  17.346   9.072   4.454 -0.1472  0.1620 -0.2465
10197W        W27721   9.694   0.388   5.290  0.0626  0.2685  0.1292
10198W        W27722  10.911  15.792  11.985  0.2360 -0.1500 -0.0482
10199W        W27723   5.921  15.929  15.904  0.2072  0.1750  0.2541
10200W        W27724  17.628   9.496   3.482 -0.2594  0.0347  0.0139
10201W        W27725  15.999   9.128  12.195  0.1550  0.1111  0.2811
10202W        W27726  12.731   4.762  11.407  0.3825  0.2299  0.1521
10203W        W27727   1.192   1.053   1.009  0.1240  0.0003  0.0379
10204W        W27728   5.618   7.826  11.792  0.0288  0.1540 -0.0232
10205W        W27729   3.129  14.497   0.805 -0.0894  0.3031 -0.1667
10206W        W27730   3.292   3.039  12.084  0.4268  0.3642 -0.4861
10207W        W27731  13.678  17.644  10.944  0.1236 -0.2236  0.2041
10208W        W27732  12.886  17.541   2.888  0.1505  0.0112 -0.1555
10209W        W27733   4.210  14.454   0.868  0.2861  0.1254  0.0149
10210W        W27734   9.058   7.265  15.111 -0.1435  0.3109  0.1840
10211W        W27735   0.710   8.928  14.417  0.0510  0.0326  0.0903
10212W        W27736  12.503   4.342   3.265  0.1738  0.1054 -0.0404
10213W        W27737  14.402  17.771  13.819  0.0192  0.1116  0.1103
10214W        W27738   1.101   2.340  11.738 -0.2466  0.0126  0.1025
10215W        W27739   9.135  10.853   3.300  0.2389 -0.0895 -0.2725
10216W        W27740  14.191  17.996   3.982  0.2288 -0.4952 -0.4141
10217W        W27741   3.856  16.154   3.447 -0.0071 -0.2610 -0.1209
10218W        W27742   2.174  18.009  13.289  0.2595 -0.2019  0.0774
10219W        W27743  10.004   0.189  13.706  0.2773  0.1736  0.0480
10220W        W27744  14.471  12.446   3.381 -0.1597  0.0852 -0.0854
10221W        W27745  11.163   6.202  11.664  0.1050 -0.1539 -0.1592
10222W        W27746   2.149  13.640   1.451 -0.3874  0.0077 -0.0200
10223W        W27747   3.832  12.903  12.914  0.1027  0.0362  0.1309
10224W        W27748  14.029   9.361   2.880 -0.3527 -0.0164  0.0485
10225W        W27749   2.185  16.374   1.594  0.0292 -0.0785 -0.3724
10226W        W27750   2.724  14.226  12.971  0.1553  0.2202 -0.2743
10227W        W27751  10.818   0.717  12.857  0.1194 -0.3501  0.0460
10228W        W27752  14.109  15.424   1.638 -0.0165  0.0130 -0.1763
10229W        W27753   1.104  10.600  15.071  0.0488  0.0584  0.2111
10230W        W27754  18.032   1.572  14.924 -0.1376  0.1927  0.4062
10231W        W27755   7.973   9.979   3.716 -0.1501  0.0451  0.2705
10232W        W27756   5.448   0.291   1.374 -0.2108 -0.0744  0.2053
10233W        W27757   1.440   6.447  12.007 -0.3485  0.1615 -0.2452
10234W        W27758   9.798   5.809   1.474 -0.1767 -0.1836 -0.0302
10235W        W27759  16.477  13.794   1.733 -0.1147  0.1767 -0.1021
10236W        W27760   0.074   0.802   1.818  0.0786 -0.2529 -0.0605
10237W        W27761  17.684   6.983  12.078  0.0021  0.1357  0.0623
10238W        W27762  14.915  10.681  16.055 -0.1001  0.0170  0.1470
10239W        W27763   3.039  10.956  13.007 -0.0483  0.0912  0.0188
10240W        W27764   4.389  15.210   2.179 -0.0863 -0.1665 -0.3442
10241W        W27765   9.691  11.384  12.696 -0.1980 -0.0172 -0.4099
10242W        W27766   6.087   8.479   3.934 -0.2428 -0.0447  0.1076
10243W        W27767   7.267   0.041   3.157  0.0101 -0.0320  0.1979
10244W        W27768   7.853  18.124   2.294  0.0199 -0.2397 -0.1766
10245W        W27769   0.450   4.887   5.332 -0.0631  0.0560 -0.1501
10246W        W27770   8.872   1.997   2.170 -0.2726 -0.1163  0.2519
10247W        W27771  12.640  14.745  12.499  0.1528  0.2977 -0.1285
10248W        W27772   7.654  11.278  11.970 -0.0033 -0.1952 -0.0861
10249W        W27773   9.067  16.386   5.390  0.1854  0.1477  0.1147
10250W        W27774   0.340   2.996   5.034 -0.0502 -0.0181 -0.0055
10251W        W27775   0.143  16.957   4.796 -0.0932 -0.0685 -0.0311
10252W        W27776  11.624  16.434   3.685 -0.0092  0.2707 -0.0571
10253W        W27777   3.063   4.489   1.443 -0.4348 -0.1973 -0.1663
10254W        W27778  16.635   8.097  14.444 -0.2538  0.0105  0.2040
10255W        W27779  15.269  17.429   1.748  0.1710  0.0218  0.1314
10256W        W27780   5.348   6.171  14.772  0.0591 -0.1943  0.0003
10257W        W27781  12.568  15.969  15.204  0.0763  0.0737  0.0494
10258W        W27782   5.010  14.723   4.244 -0.0816 -0.0301 -0.1187
10259W        W27783   3.518  12.665  15.948 -0.0059  0.0025  0.2427
10260W        W27784  16.894  13.195  13.367  0.1611  0.2610  0.1540
10261W        W27785   7.490   0.350   1.223 -0.0287  0.2685  0.0583
10262W        W27786   0.883  18.026   2.500  0.2070  0.0636 -0.0429
10263W        W27787   7.386  13.453  13.937  0.1311  0.0066  0.0482
10264W        W27788  13.274   7.956  12.053 -0.1405 -0.2714 -0.2991
10265W        W27789   9.984  12.866  10.364  0.0433 -0.1532  0.0544
10266W        W27790  13.659  11.929   5.376  0.0182 -0.0101 -0.2246
10267W        W27791  14.048   0.430  12.833  0.5007 -0.0941  0.0559
10268W        W27792   3.610  13.939   1.621 -0.4825  0.2158 -0.2624
10269W        W27793   4.748   2.485  13.919 -0.1071  0.1588 -0.0982
10270W        W27794  16.816  13.543   4.458 -0.0531 -0.3422 -0.0507
10271W        W27795   9.738   3.835  10.894 -0.2716  0.2439 -0.2966
10272W        W27796  15.888   7.022   3.755 -0.0349  0.2866  0.1354
10273W        W27797   0.295   3.111   1.812  0.2903  0.0282  0.2991
10274W        W27798   8.505   0.094  12.177 -0.2190 -0.0181 -0.1508
10275W        W27799   8.332  18.186  11.423 -0.0893 -0.0819 -0.0450
10276W        W27800   3.097   4.543   1.993 -0.1329 -0.2069  0.3478
10277W        W27801   6.338   1.139  14.627 -0.0157 -0.0917  0.1869
10278W        W27802   9.635   0.654   3.519 -0.2899 -0.2550 -0.2776
10279W        W27803  13.598   8.998   1.644 -0.0157 -0.2474  0.0283
10280W        W27804  15.296  15.910  11.367  0.0504  0.1519  0.1283
10281W        W27805   5.393   2.913   0.086 -0.1234  0.1446  0.0730
10282W        W27806  10.247   5.830   2.466  0.3513  0.0627 -0.0958
10283W        W27807  11.886   8.940  14.927 -0.1221  0.0767 -0.3691
10284W        W27808   2.923  17.027   4.127  0.0918 -0.0485 -0.1113
10285W        W27809   6.318   1.862   1.536  0.1931 -0.0673  0.0565
10286W        W27810   2.889  10.978   2.299 -0.0016  0.0419  0.0967
10287W        W27811  15.373   0.066   0.345  0.0546  0.2008 -0.6137
10288W        W27812   0.302  12.275   2.946 -0.3616  0.0826  0.2641
10289W        W27813   9.553   4.469  15.122 -0.0763 -0.2209 -0.2382
10290W        W27814   0.217   2.286   2.626 -0.0615 -0.1625  0.3695
10291W        W27815  17.286   3.654  14.357  0.0126  0.3323 -0.2731
10292W        W27816   2.448  14.035   1.659 -0.2858  0.1036  0.1275
10293W        W27817   9.151  10.469   0.038  0.0241  0.1450 -0.0889
10294W        W27818  11.029   7.129  13.656 -0.3694  0.0789 -0.3064
10295W        W27819  16.518  14.723   4.579  0.1296 -0.2169 -0.2295
10296W        W27820   8.016  12.980  15.402 -0.0789  0.0379 -0.3311
10297W        W27821  14.930   2.286  12.570 -0.1830  0.0906 -0.3096
10298W        W27822  15.359  13.115   5.241  0.2953  0.1802 -0.1652
10299W        W27823   9.541  16.424   2.791 -0.2831 -0.0893  0.0113
10300W        W27824  10.423   2.134   4.271  0.0001  0.0900 -0.2067
10301W        W27825   7.794   1.737  11.794  0.0714  0.1589  0.0010
10302W        W27826   1.267   6.081   4.752 -0.3909  0.1683  0.1245
10303W        W27827   2.998  16.694   3.097 -0.1301  0.1871 -0.4391
10304W        W27828   2.067   7.774   2.304 -0.0200  0.0786 -0.2281
10305W        W27829   9.642   5.615   3.202 -0.1770  0.1561 -0.0014
10306W        W27830  11.273   9.693  13.586 -0.0131 -0.1499  0.1993
10307W        W27831   0.028   9.222   0.407  0.1086 -0.0460  0.0672
10308W        W27832  10.390   7.869  12.390 -0.2722 -0.0807 -0.1201
10309W        W27833  12.700   5.341  15.263 -0.1470 -0.0722  0.0514
10310W        W27834   0.260   0.804  14.970  0.0742  0.1459 -0.1034
10311W        W27835   6.601  14.560   5.171 -0.0482  0.0347 -0.0017
10312W        W27836  16.534   3.810   4.234  0.0388  0.0367 -0.1128
10313W        W27837   4.252   5.033   4.630  0.0440  0.0661  0.1491
10314W        W27838  16.049   6.253   5.697  0.0706  0.2394  0.1276
10315W        W27839  10.213   0.400   4.184  0.0372  0.0552 -0.0481
10316W        W27840   3.374   3.022   4.314 -0.2988 -0.3042  0.0384
10317W        W27841   2.964  14.393   0.309 -0.0790 -0.0199  0.0772
10318W        W27842  12.767   2.128  14.100  0.0927  0.1220  0.0256
10319W        W27843  16.034   5.001   2.364 -0.1602 -0.3276  0.0367
10320W        W27844   4.850  12.185  14.518 -0.2843  0.1214  0.0564
10321W        W27845   3.454  17.509   5.186  0.1354 -0.2193 -0.1664
10322W        W27846   9.177   5.401  13.993  0.0847  0.0700 -0.1208
10323W        W27847  17.789  17.218  15.894  0.0051  0.0833 -0.2705
10324W        W27848   7.340  10.156   0.361  0.5545 -0.0461  0.2947
10325W        W27849   9.588  15.611  13.512 -0.1502  0.1792 -0.1859
10326W        W27850   5.792   6.629  10.337  0.0756 -0.0304 -0.0449
10327W        W27851   1.822   3.037   0.081  0.1681 -0.1258  0.1670
10328W        W27852   2.834   8.976   0.310  0.1130 -0.2066 -0.1631
10329W        W27853  15.384   3.094   3.258 -0.0418  0.2661 -0.0430
10330W        W27854  11.898   4.079   1.652  0.2265  0.0801  0.0140
10331W        W27855  16.270  11.618  13.241 -0.2260 -0.0289 -0.0102
10332W        W27856  12.049  16.862   2.605  0.0819  0.1088 -0.1973
10333W        W27857  13.012   3.558  11.904 -0.0247 -0.1271  0.0016
10334W        W27858  10.346   2.876   2.046 -0.0821 -0.0453 -0.1637
10335W        W27859   2.827  13.644  13.630 -0.1665  0.1013 -0.2570
10336W        W27860  16.009  14.200  15.225 -0.0365 -0.2705  0.2573
10337W        W27861  10.218   7.801  11.160  0.1529  0.0126 -0.0515
10338W        W27862  12.458   5.901  13.704  0.1155  0.0044 -0.0289
10339W        W27863  11.151   0.102  12.936  0.3379 -0.2725 -0.1301
10340W        W27864   9.415   1.736   5.543  0.1522  0.0893  0.3297
10341W        W27865   3.355  17.278  13.876 -0.0871 -0.1147  0.3100
10342W        W27866  13.564   2.571  12.544 -0.2374  0.1440 -0.0249
10343W        W27867  15.158   4.140  15.539 -0.3052  0.0878 -0.1631
10344W        W27868   9.980  13.522   0.892 -0.1459  0.0007 -0.0187
10345W        W27869   9.416  16.674   2.313 -0.0712 -0.1334 -0.1707
10346W        W27870   7.183  15.714  10.007 -0.1270 -0.0028 -0.0153
10347W        W27871  16.115  13.176   2.751  0.0154  0.1152 -0.0318
10348W        W27872   4.835   5.852  12.411 -0.1958  0.0615  0.2947
10349W        W27873   1.982   9.691   5.467  0.2232 -0.1768 -0.2453
10350W        W27874  17.731   5.636  12.458  0.0749  0.1837  0.0271
10351W        W27875   4.460  14.666  13.314 -0.0490 -0.1047  0.1770
10352W        W27876   3.430   4.455   3.848 -0.0771  0.3804 -0.1166
10353W        W27877   5.500   3.023   2.652  0.3519 -0.0440  0.1743
10354W        W27878  11.026   5.896  11.255 -0.1963  0.0201  0.0664
10355W        W27879   0.504  17.588   1.627 -0.2360  0.1775  0.2521
10356W        W27880   8.175  13.980   0.601 -0.0307 -0.1220  0.1670
10357W        W27881   1.934   3.736   1.579  0.1391 -0.0272  0.0928
10358W        W27882  16.138  16.577  13.336  0.1488 -0.1969 -0.1716
10359W        W27883   5.823   8.842  13.783 -0.0594 -0.0689  0.0481
10360W        W27884   2.012  16.623   3.789  0.1152 -0.0654 -0.2167
10361W        W27885  14.867  13.013  13.930  0.2488  0.1975  0.0777
10362W        W27886   6.340   0.993   1.806  0.1545  0.2651 -0.1642
10363W        W27887   5.158   5.328  15.445  0.1850  0.0760  0.1876
10364W        W27888  16.502  12.472  11.220  0.2957  0.1892  0.2055
10365W        W27889  16.171  13.542   0.454  0.0790 -0.0089  0.2366
10366W        W27890   3.300  14.251   2.805 -0.0631  0.0883  0.1587
10367W        W27891  16.963  13.591   1.143  0.0243 -0.0831  0.0984
10368W        W27892   8.465   1.120  15.296 -0.0906 -0.0129  0.2766
10369W        W27893   0.152   9.630  14.120  0.1994 -0.2345 -0.0946
10370W        W27894  10.210   6.820  11.238 -0.0255  0.2406  0.0617
10371W        W27895   7.929  17.766   1.430 -0.3578  0.2745 -0.1529
10372W        W27896   2.439  12.912  15.963 -0.4369 -0.1727  0.1544
10373W        W27897  12.563   2.433  12.364  0.0657  0.2501  0.1627
10374W        W27898  13.452   8.775  14.666  0.3158 -0.2838  0.3149
10375W        W27899  14.713   2.649   5.125  0.0269 -0.0854 -0.0006
10376W        W27900   8.679   1.729  11.811  0.0629 -0.1386  0.2228
10377W        W27901  10.704   9.742  14.264 -0.2138  0.4406 -0.2865
10378W        W27902   1.236   4.482  12.808 -0.2244 -0.2325 -0.1208
10379W        W27903   6.956   2.409  13.292 -0.1715 -0.4162  0.0265
10380W        W27904  17.139   1.930  15.759  0.1993 -0.1083 -0.0522
10381W        W27905  16.492  12.447   4.024  0.2361 -0.1985 -0.0386
10382W        W27906  16.697   3.180  13.571 -0.3442  0.2602  0.3511
10383W        W27907  11.369   4.911   0.239  0.1196  0.2263  0.3214
10384W        W27908   0.627  18.008  13.853  0.2774  0.0947 -0.2795
10385W        W27909   1.970   6.279   1.336  0.2544 -0.1871  0.0578
10386W        W27910   1.258  17.925   0.610  0.1037  0.0412 -0.3392
10387W        W27911  17.108   9.863  15.774  0.2146 -0.1074  0.0994
10388W        W27912   6.899   3.132  14.470  0.1063  0.1106  0.5171
10389W        W27913   5.710   0.411  11.224  0.1501 -0.0851 -0.0128
10390W        W27914   2.495  12.037   2.736  0.0092 -0.1799 -0.0130
10391W        W27915  11.645  13.163   1.972 -0.1648 -0.0239  0.3606
10392W        W27916  15.408   5.658   2.166 -0.2309 -0.0933 -0.1796
10393W        W27917  12.353   1.532   0.501  0.0057 -0.0164  0.1109
10394W        W27918  14.326  10.836   2.123 -0.1461 -0.0812  0.1766
10395W        W27919   2.348   4.972   4.101 -0.0602  0.1748  0.0254
10396W        W27920  13.624  16.433  12.641 -0.2412  0.2154  0.0622
10397W        W27921   6.975  11.530   3.289 -0.1617 -0.3936  0.0460
10398W        W27922   7.754   3.257   2.927 -0.1033 -0.0001  0.0569
10399W        W27923  17.451   2.031   1.315  0.2036 -0.3973 -0.2124
10400W        W27924  10.371  17.289   4.552 -0.4468 -0.1026 -0.0342
10401W        W27925   6.210   3.413  15.082 -0.2460 -0.1544 -0.0212
10402W        W27926   9.354   0.199  16.054 -0.2475 -0.4164 -0.1010
10403W        W27927  16.122  16.204   5.735 -0.0672 -0.0382 -0.0295
10404W        W27928   1.960   9.153  14.447 -0.0086  0.2416  0.0051
10405W        W27929  14.570   8.525   5.021 -0.1765  0.0138 -0.4261
10406W        W27930   7.360   9.032   2.259  0.1732 -0.0235 -0.2250
10407W        W27931  11.212   6.808   3.431 -0.3380 -0.5115  0.0697
10408W        W27932   9.121   9.910   2.836  0.2682  0.0880 -0.0289
10409W        W27933  14.711  17.228   1.779 -0.2492  0.0192 -0.1996
10410W        W27934   4.222   9.010  15.559 -0.0794  0.1722  0.3612
10411W        W27935  12.006  15.273   0.258  0.2470  0.1862 -0.0297
10412W        W27936   0.497  16.620  14.658 -0.1108 -0.0542 -0.0421
10413W        W27937  16.593   3.130   0.495 -0.1963 -0.0256 -0.0811
10414W        W27938  16.162  10.155   1.032  0.1402 -0.0853  0.0548
10415W        W27939   0.723  11.302  12.353  0.1604  0.4175  0.1413
10416W        W27940  14.036   1.383   0.284 -0.2691 -0.0135  0.2379
10417W        W27941   2.122  17.117   3.884  0.0314  0.1424 -0.0213
10418W        W27942   8.459   3.360   4.378 -0.2589  0.1267 -0.1960
10419W        W27943   0.372   5.697   1.562 -0.0079 -0.0445  0.2338
10420W        W27944  15.060  11.926  12.490 -0.1297  0.1844 -0.2430
10421W        W27945   6.815  12.700  12.558  0.0891  0.1860  0.0387
10422W        W27946   5.006   8.547  15.612 -0.1019 -0.2218 -0.1751
10423W        W27947   2.236   5.623  14.302 -0.2567 -0.3265 -0.0953
10424W        W27948  11.521  16.442  13.946  0.1381 -0.0331  0.1689
10425W        W27949  17.612   7.347   3.905 -0.0909 -0.1634 -0.2394
10426W        W27950   1.808  17.480  13.945  0.1181  0.0193  0.1548
10427W        W27951   1.909  15.915  12.127 -0.1109  0.0163 -0.3289
10428W        W27952  13.636   5.230   4.237 -0.2284 -0.1363 -0.0215
10429W        W27953   4.124  11.735   1.160 -0.0989  0.4452  0.2291
10430W        W27954  14.848   1.019   2.624  0.0605 -0.1238 -0.1686
10431W        W27955   1.243   2.119   4.016  0.2497 -0.0597 -0.1537
10432W        W27956   6.233   8.165   1.877 -0.0795  0.1186  0.1108
10433W        W27957   5.465  14.984   4.785 -0.1324 -0.0240 -0.1953
10434W        W27958  14.240  15.893   4.637 -0.0580 -0.4191  0.2087
10435W        W27959  15.742   0.906  14.198 -0.1158  0.3291  0.2500
10436W        W27960  13.083  14.384   4.849 -0.3558 -0.1344  0.3128
10437W        W27961   8.838  16.312   1.670  0.5111 -0.1289 -0.3028
10438W        W27962   1.050   5.130   6.107  0.1243 -0.0652  0.0512
10439W        W27963   8.147   2.550  11.396 -0.0509  0.1642 -0.0220
10440W        W27964   7.304  15.805  15.594 -0.0686 -0.0277  0.1735
10441W        W27965  14.387  10.223   0.848  0.0222 -0.3485 -0.1132
10442W        W27966   1.211   6.234   3.462 -0.0883  0.2105 -0.0949
10443W        W27967  15.585   2.291   2.071 -0.0513 -0.2644 -0.1454
10444W        W27968   2.002  11.611   0.947 -0.0357 -0.2080  0.0356
10445W        W27969  17.504  15.034   3.180  0.0044  0.3298  0.0748
10446W        W27970  10.209   4.477   1.957  0.2010 -0.0602 -0.0001
10447W        W27971   7.499  13.144   1.953  0.0722  0.0091  0.2514
10448W        W27972   8.194  13.249  14.270 -0.0973 -0.3229 -0.0126
10449W        W27973  13.652   5.540   2.175 -0.3285 -0.2873  0.0546
10450W        W27974  13.641   3.260   5.483 -0.0040 -0.1645  0.0257
10451W        W27975   3.255   7.915   5.098  0.1757  0.1445  0.2100
10452W        W27976   5.114  12.956   3.624  0.0231 -0.2859  0.0309
10453W        W27977  12.262   4.648   0.329  0.1609 -0.1521  0.0013
10454W        W27978  15.563   2.675   2.890 -0.2949 -0.1967 -0.0683
10455W        W27979   7.710   6.186  10.539 -0.1182  0.4373  0.4091
10456W        W27980  13.188   5.573  14.971  0.0333  0.5263  0.1015
10457W        W27981  14.759  13.275  13.062 -0.1023 -0.0910  0.1165
10458W        W27982   9.266  18.085   0.296 -0.3212  0.1767  0.1037
10459W        W27983  12.913   2.367  15.624 -0.0565 -0.0923  0.1027
10460W        W27984   0.416   0.456   3.360  0.1433 -0.0396 -0.0574
10461W        W27985   8.410  17.908   4.438 -0.3296  0.2503 -0.1287
10462W        W27986   5.284   7.361   0.086 -0.0093  0.0989 -0.2257
10463W        W27987   8.020   2.347  13.663  0.1021  0.0676 -0.0557
10464W        W27988  14.520   9.476   1.332  0.1196 -0.3244  0.0990
10465W        W27989  14.462   1.611   1.540 -0.2632 -0.0982 -0.0564
10466W        W27990  17.959   0.381  15.749 -0.0750  0.1859 -0.4135
10467W        W27991  13.908  13.963  14.366 -0.4258  0.3973 -0.0379
10468W        W27992   5.911   5.588  10.362  0.0325 -0.0774  0.1455
10469W        W27993   5.443  10.096   5.936  0.0099 -0.0798 -0.4164
10470W        W27994   0.141   4.841  13.693  0.3430 -0.1065 -0.2341
10471W        W27995   6.230  15.720  14.479 -0.0564 -0.2419  0.0076
10472W        W27996  11.436   8.750   2.179  0.1180  0.1160 -0.2451
10473W        W27997  13.851   0.721   2.499  0.1965  0.0048  0.1258
10474W        W27998  15.905   2.147  13.777  0.0586 -0.1903 -0.0930
10475W        W27999   9.326  14.913   1.000 -0.0762  0.0328  0.2852
10476W        W28000  12.480   5.476  12.429  0.2602  0.0411  0.2055
10477W        W28001   0.721   8.462  15.877  0.0590 -0.0686  0.1884
10478W        W28002  13.895  14.382   2.599  0.2092 -0.0540 -0.2332
10479W        W28003   5.209   3.219   5.801  0.0652  0.0283 -0.3392
10480W        W28004  18.028  11.681   2.696 -0.1511  0.1284 -0.3537
10481W        W28005   2.668  12.478   1.978 -0.0853 -0.1122 -0.0602
10482W        W28006   7.840   5.360  16.051  0.0158  0.1937 -0.2672
10483W        W28007  12.819  13.261   1.146 -0.3172 -0.1168 -0.0633
10484W        W28008   7.335   7.359   4.701 -0.1015 -0.6108  0.2004
10485W        W28009  16.826   0.912   0.474  0.0714  0.0665 -0.3325
10486W        W28010  11.878   5.031   0.504  0.1685 -0.1871 -0.0625
10487W        W28011   6.943  12.313   4.875  0.2263  0.0746 -0.1516
10488W        W28012   0.473   7.451  13.477 -0.3722  0.3623  0.0131
10489W        W28013   3.783   6.987  14.625 -0.1330  0.0980 -0.2220
10490W        W28014   1.160  17.136  11.203 -0.0848 -0.2913 -0.0963
10491W        W28015   3.214   2.386  10.134  0.0120 -0.0591 -0.1443
10492W        W28016   9.955  18.191   4.462  0.0333 -0.1218  0.0053
10493W        W28017  15.520   6.416   3.320  0.0975  0.1289 -0.0554
10494W        W28018  15.362   8.324  11.003 -0.0556  0.1034 -0.1133
10495W        W28019   0.361   2.689  13.617 -0.0548 -0.0771  0.3629
10496W        W28020   9.119  17.458   2.023  0.4766 -0.3766  0.0818
10497W        W28021  13.854   2.826   3.642  0.1827 -0.1842  0.1777
10498W        W28022  13.605  16.453   0.942  0.0551  0.0634 -0.0893
10499W        W28023  11.831  12.101   1.946  0.2418  0.0476 -0.0343
10500W        W28024  13.700   8.030   2.592 -0.0497  0.0907  0.0030
10501W        W28025  13.102  17.942  12.150 -0.1896  0.0790 -0.0185
10502W        W28026  15.379  14.746  15.629  0.1837  0.0829  0.2489
10503W        W28027   1.411  16.070  14.304 -0.0899 -0.1245  0.1955
10504W        W28028  11.489   8.136   0.030 -0.0274  0.0036  0.0644
10505W        W28029   2.311   2.361   0.409 -0.1628  0.3526 -0.1148
10506W        W28030   0.669  11.698   0.535  0.1446  0.1961 -0.0664
10507W        W28031  17.590   1.372  13.816  0.3281 -0.2224  0.1723
10508W        W28032  11.269  12.176  12.339 -0.1236  0.1110  0.0319
10509W        W28033  15.982   3.673   1.333 -0.2140  0.0070 -0.1130
10510W        W28034   9.685  16.581  13.493  0.1750  0.0674 -0.2366
10511W        W28035   5.025   5.738   1.489 -0.4586 -0.1329 -0.0766
10512W        W28036  16.035  13.526  13.441 -0.2555  0.4860  0.1186
10513W        W28037  13.249  13.707   2.424 -0.0094 -0.1152 -0.1205
10514W        W28038   9.385   5.710   4.609  0.0904  0.2410  0.2742
10515W        W28039  16.347   1.640  12.366  0.0553 -0.3067 -0.1292
10516W        W28040  12.495  12.824   1.642 -0.0394  0.1073 -0.4268
10517W        W28041  10.744  12.435  13.953  0.2891  0.2067  0.2834
10518W        W28042  17.620  14.336   3.583  0.0599  0.0747  0.1786
10519W        W28043   4.498   0.714   2.833  0.1605 -0.0647  0.0554
10520W        W28044  17.289  13.307  13.615  0.1467 -0.2784  0.0365
10521W        W28045  17.038   7.129  15.573 -0.1468  0.2093  0.2453
10522W        W28046  12.615  10.813   1.682 -0.0345 -0.2966 -0.1968
10523W        W28047   5.404   5.010  11.163 -0.0943 -0.2332 -0.3026
10524W        W28048   2.177   8.166  15.566 -0.0540  0.1821  0.4148
10525W        W28049   0.654   9.053  13.358 -0.2183  0.3034  0.2319
10526W        W28050  14.129   0.328   1.200  0.0512 -0.0566  0.0270
10527W        W28051  11.095  10.359  15.969 -0.1875 -0.3924 -0.2920
10528W        W28052  11.432   8.926   1.137 -0.0059  0.0129 -0.0653
10529W        W28053  15.784   1.046  15.971  0.1745 -0.0033  0.2892
10530W        W28054  16.921   9.573  14.356 -0.1294 -0.0529  0.1247
10531W        W28055  16.738  14.341  12.890 -0.3588 -0.0486 -0.3311
10532W        W28056   2.732   8.823  13.918  0.1173 -0.2088  0.1175
10533W        W28057  14.469   5.388   1.269 -0.1115  0.0991 -0.0808
10534W        W28058  16.577   2.581  13.961 -0.1768  0.1868 -0.0243
10535W        W28059   5.902   5.498  11.419 -0.2897  0.3204  0.3490
10536W        W28060  12.250   0.897   3.776 -0.2633 -0.2153 -0.1114
10537W        W28061  12.185   3.299   0.234  0.1208 -0.0119 -0.0264
10538W        W28062  10.212   7.177  15.982  0.0120 -0.4091  0.0113
10539W        W28063  15.722   7.596  12.935 -0.0746  0.0398 -0.2617
10540W        W28064  16.619  12.993  11.327  0.0493  0.3335  0.1120
10541W        W28065  14.554  16.387  13.243  0.1567 -0.2728 -0.3265
10542W        W28066   1.258   3.319  12.227 -0.0076 -0.0777 -0.2252
10543W        W28067  12.472   1.400   4.583  0.1245 -0.1986  0.2516
10544W        W28068  12.776   3.780  12.756  0.1105  0.0937 -0.3792
10545W        W28069  12.536   8.117  13.914  0.0522  0.0582 -0.2906
10546W        W28070   4.849  16.849  11.175 -0.0455 -0.1598 -0.1392
10547W        W28071   1.900  15.617  15.087 -0.1059  0.1110  0.0790
10548W        W28072  17.889   3.129   1.946 -0.0595 -0.0519  0.2307
10549W        W28073  14.453  11.586  11.496  0.0760 -0.1762  0.0743
10550W        W28074  11.157  11.342   4.893  0.1402 -0.3526  0.2309
10551W        W28075   9.404   1.110   3.951 -0.1515 -0.0892  0.2011
10552W        W28076  15.149   9.445   4.998  0.1493 -0.0989  0.1398
10553W        W28077  17.698   8.860   1.182  0.1113  0.2371 -0.2635
10554W        W28078   5.547  12.217   2.330  0.2788  0.1444  0.1889
10555W        W28079   1.876  17.988   5.478  0.1975  0.1446 -0.0419
10556W        W28080   3.762   9.899   1.085 -0.0807 -0.3291  0.0303
10557W        W28081   3.836  16.500  13.490  0.2753  0.0152 -0.1605
10558W        W28082  15.084   0.368   1.378  0.3377 -0.2000  0.0752
10559W        W28083   3.108  15.987  14.536 -0.1177  0.1786 -0.1288
10560W        W28084  10.682   7.865   1.358  0.1162  0.1381  0.0364
10561W        W28085   8.421  15.904   1.671 -0.0765 -0.1747  0.1464
10562W        W28086  12.309  14.887   1.943  0.0214  0.1517 -0.0100
10563W        W28087   8.415   7.058   0.185 -0.2712  0.2315 -0.4497
10564W        W28088  14.475   5.998   0.197  0.4260  0.4036 -0.0547
10565W        W28089   2.257   9.053  12.260 -0.0216 -0.2227 -0.0639
10566W        W28090   4.049   9.486   1.227 -0.0009 -0.2065  0.1377
10567W        W28091  14.607   8.604  15.524  0.0310  0.1466  0.1006
10568W        W28092  11.293  11.837  14.398  0.1745 -0.2316 -0.0975
10569W        W28093   7.376   7.143  14.334  0.3754 -0.1383 -0.1202
10570W        W28094  14.783   9.618   0.188 -0.0527  0.0352  0.0111
10571W        W28095  16.947   8.554  12.590  0.0300 -0.1376  0.0900
10572W        W28096  17.104   9.411  15.977 -0.1949 -0.2923  0.0365
10573W        W28097  17.308   9.390   2.963 -0.2085 -0.1775 -0.0606
10574W        W28098  11.209  11.871   6.097  0.0509 -0.0943 -0.0119
10575W        W28099  11.441  14.976  13.663  0.1964 -0.1775  0.0726
10576W        W28100   1.456  13.090  15.220  0.3183 -0.1098  0.2109
10577W        W28101   8.072   7.899   3.596  0.0044  0.0649  0.0935
10578W        W28102   1.150   1.419  15.404 -0.0080 -0.1144 -0.1231
10579W        W28103   2.184  17.677  12.848  0.1275  0.2424  0.2783
10580W        W28104   0.548   5.634  15.450  0.0087  0.1858  0.1809
10581W        W28105  13.167   7.819  11.383  0.1856 -0.0244 -0.1882
10582W        W28106  18.064   0.530   4.000  0.2847 -0.0254 -0.1757
10583W        W28107   4.787  16.414   1.217 -0.0910  0.5365  0.0447
10584W        W28108  12.192   0.392   2.224 -0.2408 -0.0839 -0.0850
10585W        W28109  10.158   8.871   1.271  0.2069 -0.1378  0.2061
10586W        W28110  17.163   7.606  14.085  0.1246  0.1734  0.1736
10587W        W28111  13.197  11.692  13.038 -0.0872 -0.0500  0.0430
10588W        W28112   5.739   2.635  15.913 -0.3526  0.1553  0.2316
10589W        W28113  12.924   8.436   1.252 -0.1626 -0.1575  0.0872
10590W        W28114   0.913   9.764   1.970 -0.1622  0.0160 -0.2250
10591W        W28115   5.903   8.640   0.475 -0.2020  0.2785 -0.0228
10592W        W28116  16.788   7.162   3.781 -0.1262 -0.0623 -0.1633
10593W        W28117   1.666   3.658   2.785  0.0942  0.0494 -0.2550
10594W        W28118  17.251  10.347  15.900  0.1383  0.0899  0.4172
10595W        W28119   3.499   0.954   1.417 -0.0672  0.1422 -0.1917
10596W        W28120  12.236  11.709   5.717  0.0283 -0.0671  0.1733
10597W        W28121   6.221   9.490   3.361 -0.0718  0.0263 -0.1848
10598W        W28122  16.614  12.419  14.870 -0.2845 -0.0346  0.1148
10599W        W28123   1.412  11.649  12.572  0.1491 -0.0885 -0.0925
10600W        W28124  11.786   9.857   0.926 -0.1604 -0.3260 -0.2519
10601W        W28125  10.291  11.220   0.257 -0.1106  0.4505  0.2374
10602W        W28126  15.834   6.225  13.016  0.0471  0.1142 -0.2922
10603W        W28127   2.242   5.705   3.144 -0.2080  0.3946  0.1949
10604W        W28128   1.094  13.934  16.010  0.2602 -0.0186  0.0777
10605W        W28129  14.059  10.706   0.917 -0.0053 -0.0094 -0.1908
10606W        W28130  17.776  16.080  12.818 -0.0101  0.1719 -0.0243
10607W        W28131  14.431  14.479   4.838 -0.1834 -0.1281 -0.1463
10608W        W28132   8.537  12.726   4.787  0.0598 -0.0212  0.0155
10609W        W28133   7.722   3.771   1.409 -0.3382 -0.2613 -0.1700
10610W        W28134   1.878  16.773  15.901 -0.0527  0.1661 -0.1818
10611W        W28135   4.632   4.375  13.072  0.0182  0.0750  0.5397
10612W        W28136   1.132   9.948   1.601  0.1912 -0.2582  0.2084
10613W        W28137  17.701   1.908  15.874  0.2688 -0.1355  0.2477
10614W        W28138  13.322  14.808  15.235 -0.1712 -0.0473 -0.2205
10615W        W28139   6.471   7.747   1.456 -0.2377 -0.1092 -0.1744
10616W        W28140   7.673  13.087   4.851 -0.0342 -0.2290 -0.1175
10617W        W28141  10.705   1.290  14.848 -0.0239 -0.2251  0.0093
10618W        W28142   2.376   3.663  12.854  0.0830  0.0998 -0.2162
10619W        W28143  10.000  17.589  11.796  0.2190  0.1304 -0.1184
10620W        W28144  12.699  13.550   5.231 -0.1174 -0.0414 -0.0948
10621W        W28145  14.077  15.713   3.014  0.5292 -0.2767  0.0352
10622W        W28146  11.479  13.551   3.378 -0.0030  0.4798 -0.1144
10623W        W28147   5.938  18.116  14.831  0.2280  0.1498  0.0593
10624W        W28148   6.516   8.655   4.733 -0.3778  0.0857 -0.1275
10625W        W28149   1.313   7.172  12.609  0.0565  0.0458 -0.4500
10626W        W28150   4.505   5.030  10.797  0.4301  0.0422 -0.2866
10627W        W28151   5.765   6.474  14.788  0.1668 -0.0052  0.0057
10628W        W28152   2.181   6.929   1.089 -0.0786  0.1169 -0.6598
10629W        W28153  16.144   9.434   5.828 -0.0303 -0.2211 -0.2536
10630W        W28154  11.195  13.151   4.618 -0.0140  0.2145 -0.1178
10631W        W28155  15.291   6.418   3.783 -0.0850  0.1579 -0.0198
10632W        W28156   1.152  12.789   5.743  0.3791 -0.0124 -0.0882
10633W        W28157   7.869  11.209   4.344 -0.0219  0.0408 -0.1294
10634W        W28158   5.475   8.620   0.200  0.3922 -0.1498  0.0201
10635W        W28159   3.979  17.257  11.749  0.0649 -0.1196  0.0659
10636W        W28160   5.177   4.609  15.742 -0.1459 -0.2971 -0.2589
10637W        W28161  13.275  14.839  11.575 -0.1400 -0.2674  0.0160
10638W        W28162  15.059  17.725   3.879 -0.0107 -0.1958  0.1149
10639W        W28163  13.922   9.719  13.014 -0.3604 -0.0022  0.0886
10640W        W28164   0.423  14.856   0.344  0.0590 -0.4177  0.0051
10641W        W28165   0.682   7.462  11.658  0.0293  0.2919 -0.0621
10642W        W28166  17.449   1.784   5.006 -0.0453 -0.0944 -0.1572
10643W        W28167   8.281  13.756  14.157  0.1424 -0.4068  0.0375
10644W        W28168  10.707   2.380  15.477 -0.1470 -0.1230 -0.1257
10645W        W28169   1.955   0.723  16.025  0.0150 -0.3700  0.1699
10646W        W28170   8.698   4.878  15.725  0.2848  0.1825  0.1866
10647W        W28171  16.059  16.455  16.060 -0.0002 -0.0164  0.0704
10648W        W28172  14.972   6.683   2.615  0.2955  0.0082  0.1237
10649W        W28173  16.938   6.492   5.139 -0.2802  0.1141  0.1252
10650W        W28174  12.695  13.767  13.603  0.0992  0.1796  0.0450
10651W        W28175   3.139   5.204  12.843  0.1498 -0.2835  0.0585
10652W        W28176   7.028  10.390   0.701 -0.3864  0.0123 -0.2499
10653W        W28177  17.863  11.728  11.406  0.0541  0.1233  0.4878
10654W        W28178   2.484  13.096  12.498  0.1340 -0.3015 -0.2321
10655W        W28179   4.300   4.343   2.166  0.1338 -0.1679 -0.0317
10656W        W28180   1.180  17.977   2.855 -0.1380 -0.2227 -0.3348
10657W        W28181   7.927   0.769  13.100  0.4706 -0.1235 -0.1375
10658W        W28182   0.538  10.383   3.420 -0.1514 -0.0745  0.0989
10659W        W28183  17.116  12.656  14.777  0.2881  0.0701  0.0929
10660W        W28184   2.015  12.459   3.467  0.3576 -0.0340 -0.1072
10661W        W28185   9.116  16.452   0.045  0.0902  0.4140 -0.2564
10662W        W28186   6.262   8.306  15.404  0.1506  0.3117  0.4948
10663W        W28187   2.684   4.479  12.759  0.0190  0.0427 -0.0719
10664W        W28188  12.172   7.280   0.883 -0.2134 -0.0300  0.3506
10665W        W28189   5.025  10.519   3.691 -0.5221  0.3185 -0.0099
10666W        W28190   0.399   8.908   0.196 -0.1835  0.3030 -0.2138
10667W        W28191  14.959   8.344  13.676  0.0182  0.1746  0.1167
10668W        W28192   7.576   8.079  15.416  0.0699  0.2993  0.0208
10669W        W28193  10.393   4.328  11.600 -0.0580 -0.1105 -0.0198
10670W        W28194  17.956  17.241   4.565 -0.1303  0.1860 -0.0172
10671W        W28195  11.736  11.900   4.020 -0.0958  0.2173  0.1599
10672W        W28196   8.510   3.753   2.085  0.0981  0.5721  0.3317
10673W        W28197   2.814   4.357  13.237 -0.2887  0.0503  0.1555
10674W        W28198  11.041  17.930   0.721  0.0575  0.1290 -0.1015
10675W        W28199   0.809  10.262  13.872 -0.2342  0.1997  0.2318
10676W        W28200   7.369   1.962   4.530  0.1174 -0.0808 -0.0473
10677W        W28201   7.539   7.319   0.783  0.0122  0.4832  0.1155
10678W        W28202   4.847  10.046  11.560  0.1092  0.1456 -0.0544
10679W        W28203   6.419   4.324   0.481  0.0633 -0.0335  0.3101
10680W        W28204   6.309  11.676  12.184  0.1316  0.2480 -0.6748
10681W        W28205  14.868   0.337   3.339  0.1466 -0.1285 -0.2816
10682W        W28206   8.574   9.251  12.486  0.3283 -0.5511  0.0506
10683W        W28207  13.008  10.904   0.233  0.2745 -0.0962  0.2061
10684W        W28208  16.897   7.129  14.228  0.0967  0.1540  0.1087
10685W        W28209   2.676  10.241  14.450 -0.0284  0.0339 -0.0915
10686W        W28210   1.239   8.085  15.208 -0.0212  0.0551  0.0784
10687W        W28211  17.406   4.520  11.845  0.1244 -0.2280 -0.1201
10688W        W28212  13.826  15.696  13.547  0.1345  0.0925  0.1853
10689W        W28213   0.164   4.811   4.510  0.0482 -0.1753 -0.0908
10690W        W28214   1.031   1.206  14.443  0.3171 -0.1844 -0.1780
10691W        W28215   3.725  10.389  12.436 -0.0775 -0.2044 -0.3777
10692W        W28216  15.439   7.769   4.144 -0.1837  0.1765 -0.0387
10693W        W28217   3.241   0.081  13.557  0.1428 -0.2236 -0.0213
10694W        W28218   1.063   3.938  15.412  0.1156  0.0054  0.2349
10695W        W28219   1.993  15.492   0.720  0.1049 -0.0218  0.1619
10696W        W28220  16.680  16.366  13.819 -0.0168  0.1399 -0.0033
10697W        W28221   3.994   8.752  14.376  0.1572 -0.2285 -0.0757
10698W        W28222   9.340  12.784   1.366  0.2043  0.1548  0.2510
10699W        W28223  12.477   4.953  15.471 -0.3282 -0.2729  0.0566
10700W        W28224   7.289  17.158   3.935  0.0491 -0.1292 -0.2215
10701W        W28225   5.063   1.575   4.897  0.3232 -0.1673  0.1249
10702W        W28226   6.474  12.835   2.230 -0.1606  0.2250  0.1419
10703W        W28227  12.826   5.693  13.340 -0.3193  0.0190  0.0213
10704W        W28228   1.378   5.047   5.017 -0.0235 -0.1782 -0.2889
10705W        W28229   0.747   9.889  12.060  0.0988 -0.0110 -0.1745
10706W        W28230  17.280   3.686  13.444 -0.0225  0.0216  0.0221
10707W        W28231  14.079  13.554  12.716  0.0707 -0.0982  0.1607
10708W        W28232  15.878   7.254   5.276  0.0044  0.0438  0.1019
10709W        W28233   3.484   7.093  11.649 -0.0072 -0.3857  0.1069
10710W        W28234   2.402   6.179  13.550  0.2019 -0.0958 -0.2995
10711W        W28235  14.174  12.876   0.688 -0.2231  0.2925  0.1598
10712W        W28236  14.662  15.622   0.998  0.2080 -0.2365  0.0899
10713W        W28237   3.862   5.152   1.698 -0.1311 -0.1123  0.0651
10714W        W28238  15.356  10.332   3.456 -0.0257 -0.0550 -0.0903
10715W        W28239  12.230   4.056   4.886  0.1138  0.0405  0.1702
10716W        W28240  17.751  10.493   0.639 -0.0577  0.2349 -0.0024
10717W        W28241   5.323  16.498  12.040  0.0570  0.0779 -0.1456
10718W        W28242   1.349   3.750  11.663 -0.2595 -0.2623  0.0167
10719W        W28243   9.612  11.151   0.022  0.1167  0.0487  0.0461
10720W        W28244  10.843  13.633   4.187  0.0213  0.3261 -0.1959
10721W        W28245  12.806   7.612  13.332  0.0747  0.0863  0.0247
10722W        W28246  10.120  11.674  14.162 -0.0751  0.0953  0.1548
10723W        W28247  15.617   0.610   4.019 -0.0186 -0.2241  0.1417
10724W        W28248  12.706  13.810  15.092 -0.1564 -0.0916 -0.0406
10725W        W28249  16.324   4.342  12.872 -0.0539 -0.0409  0.0726
10726W        W28250   3.394  16.625  15.815 -0.3466 -0.0042  0.1299
10727W        W28251   3.825  15.690   3.601  0.0905 -0.0183  0.0704
10728W        W28252  14.072  12.294  12.429  0.0644 -0.1917 -0.2367
10729W        W28253  16.389  12.109   5.106 -0.0434  0.0770 -0.2366
10730W        W28254   3.084   0.728   1.601  0.1449 -0.3815  0.2711
10731W        W28255   2.122  10.134  14.374  0.0452 -0.0771 -0.2233
10732W        W28256   9.989   4.602   5.085 -0.1170  0.0092 -0.2081
10733W        W28257  11.688   0.575  15.551 -0.0740  0.1279 -0.3776
10734W        W28258   9.198  11.230  11.653 -0.0857 -0.1437 -0.2436
10735W        W28259  13.905  10.005  14.532  0.3096 -0.2224  0.0292
10736W        W28260   6.917   7.093  14.522  0.0735 -0.0679  0.3644
10737W        W28261   4.387  14.299  15.142 -0.0360 -0.1161  0.1380
10738W        W28262   7.280   1.823  14.995  0.1552  0.3149  0.0729
10739W        W28263  12.117   3.317   0.826  0.1213 -0.0664  0.3161
10740W        W28264  16.765   9.319   0.802 -0.1851 -0.0571  0.4407
10741W        W28265   3.723  15.512   0.090  0.0356  0.1436 -0.3549
10742W        W28266  16.411   1.011  14.823 -0.0633 -0.1126 -0.2498
10743W        W28267  17.413   7.638   1.955  0.0266 -0.3045 -0.1629
10744W        W28268   9.400  12.889   0.834 -0.1638 -0.1657 -0.1455
10745W        W28269   7.268  15.779  12.865  0.0377  0.0865 -0.2950
10746W        W28270   7.075   4.862   4.493 -0.2856  0.1718  0.1668
10747W        W28271   8.143   4.528  13.435  0.0956  0.0604  0.0259
10748W        W28272  17.778   8.796  14.949 -0.1496 -0.0684  0.2124
10749W        W28273  16.933   0.616  15.348  0.0888 -0.0435 -0.2277
10750W        W28274   7.492   5.754   2.417 -0.0664  0.2137 -0.1374
10751W        W28275   4.743  16.746  14.188 -0.1548  0.2760 -0.2807
10752W        W28276   6.690   9.777   0.923 -0.0957  0.0658  0.1686
10753W        W28277  14.431   4.704  16.074 -0.0732 -0.0899 -0.1497
10754W        W28278   4.751  16.009  12.654  0.1079  0.2455 -0.0309
10755W        W28279   9.146   4.584   2.602 -0.1482  0.0577  0.1650
10756W        W28280  14.971  16.012   0.627 -0.0246  0.0582 -0.0418
10757W        W28281   9.020  10.108   5.039  0.3241  0.0248 -0.0641
10758W        W28282  13.649   1.155  11.734 -0.0927  0.2551  0.1091
10759W        W28283  11.640   1.194  14.227 -0.0748 -0.0620  0.0439
10760W        W28284   3.091  16.771  14.028 -0.1162 -0.2864  0.2876
10761W        W28285   9.123   1.040   1.568 -0.2398 -0.1946 -0.0253
10762W        W28286   0.699   2.607   5.649 -0.1041  0.2835  0.0145
10763W        W28287  11.123   8.527  13.073 -0.0137 -0.0420 -0.1992
10764W        W28288  15.907  13.567   5.842 -0.0291  0.1549  0.1969
10765W        W28289  13.118   8.515   3.935 -0.2192 -0.2738  0.1110
10766W        W28290  14.206   9.624  15.214  0.0646  0.0473 -0.0214
10767W        W28291  13.966  16.340   5.342 -0.2549  0.4814  0.0292
10768W        W28292  14.856   2.617  15.262  0.3316  0.2282 -0.1175
10769W        W28293  12.379   7.330  13.547 -0.0219 -0.1084 -0.1067
10770W        W28294  16.978  17.946  11.451  0.1304  0.0183 -0.0467
10771W        W28295   2.176   8.479   3.599 -0.2590  0.0414 -0.1969
10772W        W28296   9.158  14.623   4.630  0.1578 -0.1635  0.0173
10773W        W28297   5.913   3.084   2.341 -0.3309  0.1548 -0.2551
10774W        W28298  10.002   9.832  11.446  0.1377  0.2927  0.0040
10775W        W28299   3.753  11.716  13.938 -0.0267 -0.0740  0.1626
10776W        W28300  16.398   3.506   4.924 -0.3339  0.0869 -0.0363
10777W        W28301   6.183   2.910  14.971 -0.1143 -0.0926 -0.2661
10778W        W28302   7.982   7.915   1.101 -0.1477 -0.4790  0.2758
10779W        W28303  16.702  13.591  12.175  0.2972 -0.0593  0.3646
10780W        W28304   6.173   4.801  12.521 -0.0095  0.0380 -0.2852
10781W        W28305  14.470   0.437  15.238 -0.2485 -0.0209  0.0974
10782W        W28306   5.210   4.772  13.944  0.1187 -0.3466  0.0053
10783W        W28307  16.562   3.019   3.631 -0.0780 -0.0601 -0.0170
10784W        W28308   0.166   6.496  12.680  0.1161 -0.0116 -0.2105
10785W        W28309  11.079   2.112  11.047  0.0694 -0.3222 -0.0534
10786W        W28310  10.814  14.965   4.736  0.0885 -0.1597 -0.2752
10787W        W28311  14.686   2.167  13.038 -0.0610 -0.2118  0.3662
10788W        W28312  13.998   4.574   3.671 -0.2204  0.0763 -0.0259
10789W        W28313  13.137  16.650   4.484  0.1692  0.0867 -0.3357
10790W        W28314   9.489   5.968   4.140 -0.1111 -0.0197 -0.3261
10791W        W28315   2.715   0.627   0.059 -0.1219 -0.2010 -0.2355
10792W        W28316   0.098  10.320   3.850  0.1493 -0.0247 -0.0534
10793W        W28317  15.932   2.802   0.386 -0.2781 -0.1016 -0.1214
10794W        W28318  18.054  15.572   2.743  0.0381 -0.1050  0.0039
10795W        W28319  15.127  13.996   0.356 -0.0047 -0.0946 -0.0016
10796W        W28320   2.164  10.619   5.053  0.0897 -0.1280 -0.3207
10797W        W28321   0.262  13.317   3.577  0.0552 -0.3053  0.2128
10798W        W28322  18.067   0.106  13.859  0.2795  0.2192 -0.0328
10799W        W28323  12.089  15.982  15.342  0.1578  0.0728 -0.2489
10800W        W28324  14.447   3.852  13.297  0.0003  0.0700 -0.6203
10801W        W28325   3.439  15.823  15.394  0.1339  0.0523  0.0994
10802W        W28326  18.088   9.857   4.745 -0.0683 -0.3381 -0.2072
10803W        W28327  18.181  10.785   3.412 -0.2672 -0.1636 -0.0443
10804W        W28328  10.211  18.064  15.210  0.2661 -0.4314  0.0458
10805W        W28329   7.851   8.633   4.458 -0.1946  0.1163 -0.3836
10806W        W28330   4.537   1.359  11.339 -0.0490 -0.0735 -0.2237
10807W        W28331   4.195  12.632  13.360  0.0370  0.3365 -0.0534
10808W        W28332  17.624   6.380  12.736 -0.0103  0.2473 -0.2651
10809W        W28333   6.638  13.795   4.483 -0.0566  0.2711 -0.1692
10810W        W28334   8.494   3.107   0.055 -0.0152 -0.1308  0.4658
10811W        W28335   9.933   5.937  14.359  0.0897  0.2279  0.2640
10812W        W28336  13.435   2.792   0.227 -0.3818 -0.2415 -0.2088
10813W        W28337   7.526  16.779  12.565 -0.2283 -0.1961  0.2034
10814W        W28338   0.917   2.784   4.777 -0.2243 -0.2750  0.2503
10815W        W28339  16.047  12.289  11.603  0.0449  0.3745  0.0508
10816W        W28340   7.464   6.325  15.904  0.0134 -0.1077 -0.1312
10817W        W28341   3.165   6.736   3.373  0.1619  0.1985  0.1252
10818W        W28342   7.737   2.951  15.017  0.2097  0.3066  0.1568
10819W        W28343  15.633  16.153   1.905  0.0801 -0.3543 -0.3122
10820W        W28344   2.923   4.655  15.874  0.3276  0.3013  0.0600
10821W        W28345   6.346   9.995  12.216 -0.3051 -0.0733 -0.0902
10822W        W28346  15.738  16.426  15.085 -0.1050 -0.0309  0.2350
10823W        W28347   5.259  10.837  12.645  0.0248  0.2169  0.2344
10824W        W28348  10.555   5.902  16.093  0.0186 -0.2115  0.0946
10825W        W28349   6.112   5.119  11.728  0.2582 -0.0092 -0.0534
10826W        W28350   3.194   2.015   2.883 -0.1229  0.2000 -0.0070
10827W        W28351  13.575   4.711   0.325 -0.0762  0.3704 -0.1517
10828W        W28352  15.879  14.743  15.410 -0.1047 -0.4076 -0.1788
10829W        W28353   9.536   5.419   2.359 -0.1195 -0.3053 -0.0227
10830W        W28354   8.423   4.242   4.255  0.2225 -0.0391  0.0953
10831W        W28355   9.934   7.938   4.814  0.1140 -0.0166  0.0487
10832W        W28356   1.949   6.023   4.052  0.0201  0.0900  0.5709
10833W        W28357  13.688   6.535   1.714  0.0940 -0.2289 -0.2312
10834W        W28358   8.865   7.704   1.591  0.4752  0.1266 -0.0936
10835W        W28359  17.450   6.597   3.190  0.0858  0.1366  0.0610
10836W        W28360  10.726  12.114   0.652  0.5902 -0.1938 -0.2611
10837W        W28361  15.248   7.816  11.247 -0.0124 -0.0377 -0.0712
10838W        W28362  15.677   5.121   3.252  0.2536 -0.1805 -0.0704
10839W        W28363   2.583  17.586  13.428  0.3184 -0.1928 -0.2026
10840W        W28364   9.894  13.108  13.459 -0.0465 -0.0302 -0.2471
10841W        W28365  16.681   5.913   1.876 -0.0955 -0.0020 -0.1395
10842W        W28366   1.702   0.532   1.420 -0.1295  0.0054  0.1272
10843W        W28367  12.514   1.292   4.131  0.0958  0.0146 -0.3076
10844W        W28368   5.254  17.861  13.879  0.1084 -0.1871  0.2089
10845W        W28369   1.078  10.852  13.022  0.0338  0.1062  0.3418
10846W        W28370   5.518   9.796   4.134  0.2747  0.0395  0.2162
10847W        W28371  13.647  10.215  15.391 -0.0634 -0.1192 -0.0421
10848W        W28372  16.988   9.723   2.834 -0.0208 -0.0256  0.0075
10849W        W28373  11.793  13.335  11.479 -0.1081 -0.1532  0.2494
10850W        W28374  12.546  13.387   3.279 -0.1108  0.1648 -0.0662
10851W        W28375   1.231  18.158   1.131 -0.3496 -0.0369 -0.3048
10852W        W28376  15.005  17.923  15.418  0.0098  0.1430 -0.3410
10853W        W28377   1.480   9.863  14.771  0.0363  0.1160  0.0794
10854W        W28378  11.157   4.177   1.000  0.0886  0.1402 -0.0840
10855W        W28379   1.697  15.082   1.755 -0.0995 -0.0125  0.3548
10856W        W28380   4.717   7.246   4.809 -0.0727 -0.0207  0.1526
10857W        W28381   8.853   6.991   1.154 -0.1448  0.0171 -0.1207
10858W        W28382   5.654   9.374   3.753  0.1653 -0.0515 -0.2074
10859W        W28383  17.167   1.204   4.305 -0.0450 -0.5678 -0.0475
10860W        W28384  14.536   6.271   5.016 -0.0143  0.0529 -0.1067
10861W        W28385   9.759   5.601  10.913 -0.1053 -0.1256  0.2914
10862W        W28386   1.809  11.671   1.447 -0.1409  0.2552  0.1212
10863W        W28387   0.969  13.097   0.822 -0.1720  0.1377 -0.0261
10864W        W28388   2.526   5.661   0.137 -0.1438 -0.1855  0.2659
10865W        W28389  11.060  17.275   5.390 -0.4671 -0.0450  0.0017
10866W        W28390   5.962  12.026   2.059  0.0177 -0.0821 -0.1802
10867W        W28391   2.250   2.281   1.233  0.4803  0.2307  0.0963
10868W        W28392  17.726   0.691  14.523  0.1533  0.4241  0.3520
10869W        W28393  10.883  13.103  14.500  0.0640  0.3939 -0.2036
10870W        W28394  16.366   9.074  15.712 -0.1544  0.2129  0.1453
10871W        W28395  13.719   0.396  13.887  0.0127  0.0405  0.0536
10872W        W28396  10.544   9.860   3.566 -0.1360  0.1538  0.1263
10873W        W28397  15.184  12.271   4.762  0.1800  0.1500 -0.1634
10874W        W28398   4.108   9.512   2.708 -0.0523 -0.0976  0.0668
10875W        W28399   6.232   3.938  15.034 -0.0173  0.2857 -0.1998
10876W        W28400  11.461   1.874   1.847  0.0088 -0.2589  0.3890
10877W        W28401  12.794   8.277  12.246 -0.0735  0.5596 -0.1051
10878W        W28402   5.280   0.775  11.292 -0.0393 -0.1999  0.0219
10879W        W28403   8.234  14.165   1.922 -0.0526 -0.2487 -0.4032
10880W        W28404  10.353   6.978   3.289  0.0939 -0.1863 -0.0947
10881W        W28405  15.264  11.452   2.734 -0.1782  0.0037 -0.1433
10882W        W28406   4.960   5.080   2.843 -0.2139 -0.4103  0.3943
10883W        W28407   1.658  16.990   6.119 -0.1143 -0.0318  0.2018
10884W        W28408  16.543  10.616  11.020 -0.5120 -0.0952  0.0285
10885W        W28409  15.583  14.045  14.961 -0.0490  0.3847 -0.1965
10886W        W28410   8.292   3.791   3.183 -0.0715  0.0544  0.1626
10887W        W28411   1.739  15.630  12.572  0.1805  0.0747 -0.0895
10888W        W28412   3.050   3.866   4.245  0.0157  0.0102 -0.4381
10889W        W28413   4.037   0.627   5.011 -0.5229  0.0666  0.2290
10890W        W28414   8.992   5.797   1.297  0.0101  0.1122  0.3426
10891W        W28415   5.556   9.516   0.409 -0.1991 -0.3326 -0.0638
10892W        W28416   7.174  11.447   4.745  0.2179 -0.0428 -0.1858
10893W        W28417  17.309  16.792   3.254  0.1038  0.0820  0.1607
10894W        W28418   0.696   2.197  10.506  0.1180 -0.1911 -0.0120
10895W        W28419  10.096   1.998  11.011  0.0471 -0.1747  0.1288
10896W        W28420   5.164   2.164   4.325  0.2114  0.2478  0.1078
10897W        W28421  16.467  15.169   4.824 -0.0449 -0.0622  0.0155
10898W        W28422  10.127   7.561   2.300  0.1365  0.0878 -0.0033
10899W        W28423   7.465   4.284   2.613  0.0168  0.0177  0.0267
10900W        W28424   1.129   5.460   0.196 -0.1914 -0.2220  0.1407
10901W        W28425   8.392   7.091   1.336  0.0999 -0.1289 -0.2245
10902W        W28426   2.339   9.708  15.782  0.0640 -0.1245  0.2233
10903W        W28427   4.891  10.493   4.245 -0.0273  0.0933 -0.1371
10904W        W28428  17.132  10.857   2.050  0.0763 -0.0557 -0.1079
10905W        W28429   4.289   8.202   1.528 -0.0176 -0.2618  0.0965
10906W        W28430  13.311   8.086  15.435  0.0582 -0.0004  0.0207
10907W        W28431   5.987   1.084   4.121 -0.1847 -0.3531  0.0775
10908W        W28432  12.845   5.340  12.070 -0.0439 -0.1695  0.1297
10909W        W28433  11.552  11.148   5.099 -0.2002  0.1086  0.3023
10910W        W28434   7.479  15.335   1.381  0.0276 -0.3836  0.1250
10911W        W28435   1.170   1.267  16.024  0.0683  0.1163 -0.0809
10912W        W28436  10.401  10.344  15.322  0.2957 -0.1927  0.1041
10913W        W28437  13.627   1.093   3.770 -0.2079 -0.0343 -0.0403
10914W        W28438  13.879   9.166   2.011 -0.1692  0.0460  0.1826
10915W        W28439   0.064   9.848  12.459  0.0801 -0.0454 -0.1038
10916W        W28440  10.635  16.026  13.664  0.0256 -0.1406  0.1179
10917W        W28441  12.809   8.037   3.005 -0.2717  0.1294  0.1888
10918W        W28442   5.257   5.292  14.842  0.1361 -0.0363 -0.2135
10919W        W28443   3.502  12.112  11.103 -0.3814 -0.1540  0.1785
10920W        W28444   6.477   7.425   3.780 -0.2442 -0.1031  0.2281
10921W        W28445   8.847   7.779   3.671  0.2031 -0.1253 -0.0244
10922W        W28446   5.611   6.672  11.869 -0.0351 -0.0393 -0.0443
10923W        W28447   0.147  11.758  15.375  0.0313  0.1376 -0.2705
10924W        W28448   6.244  13.370  11.930 -0.0304  0.1407  0.2278
10925W        W28449  13.628  15.009  15.586  0.0102 -0.0406  0.2221
10926W        W28450  11.844   0.306  14.645 -0.0782 -0.4668  0.0827
10927W        W28451   8.621   7.526   1.172  0.0029  0.1341  0.3413
10928W        W28452   8.464   5.323  13.228  0.1495 -0.3267 -0.2666
10929W        W28453   6.354   6.696   4.971  0.3904 -0.1003  0.3936
10930W        W28454  14.656   5.565  16.042 -0.0493  0.0868  0.1964
10931W        W28455   0.034  11.086   1.292 -0.0454 -0.0105  0.0856
10932W        W28456  16.213   1.872  12.772 -0.0007 -0.1884 -0.0470
10933W        W28457   1.711  13.887   2.930  0.0414  0.0695 -0.2280
10934W        W28458   3.853  12.566  15.464  0.3869  0.0721  0.2466
10935W        W28459   2.960  11.044   3.150 -0.0091  0.2757 -0.3353
10936W        W28460   4.795   4.044   5.728 -0.3502  0.1904  0.0425
10937W        W28461   6.276   0.207  11.381  0.0146 -0.1676 -0.0705
10938W        W28462  17.725   5.149  12.498 -0.0250 -0.1748  0.0593
10939W        W28463   8.315  11.477   5.591  0.4709  0.4523  0.1811
10940W        W28464   4.146   8.965   4.842 -0.1780  0.1314 -0.2454
10941W        W28465   5.051   2.835  11.919  0.0713 -0.1677 -0.0620
10942W        W28466   0.145  16.693  12.812  0.0063  0.1569  0.0849
10943W        W28467   7.445   3.893   4.758 -0.0835 -0.0197 -0.1487
10944W        W28468   4.351   4.046  13.494  0.0488  0.0280 -0.0829
10945W        W28469  11.490  11.763  10.441 -0.2418 -0.0664 -0.0557
10946W        W28470  15.131   4.258   3.539 -0.2290  0.2158 -0.4679
10947W        W28471  18.168   0.916  14.577  0.1043 -0.3168 -0.0312
10948W        W28472  14.978  14.144  10.477  0.0593 -0.0233  0.2685
10949W        W28473  13.260  14.976   1.723 -0.1459  0.0335 -0.1516
10950W        W28474   0.161   7.690  13.047 -0.0005 -0.0633 -0.1339
10951W        W28475  13.530  17.868  15.964  0.1378 -0.1197 -0.1148
10952W        W28476   9.408   7.661  16.005 -0.1350  0.0838  0.1988
10953W        W28477  13.489  14.866   6.305 -0.2428 -0.0587  0.3141
10954W        W28478  13.661   7.390  13.498  0.1800 -0.1251 -0.1373
10955W        W28479  18.142  13.500   4.662 -0.0575  0.2529 -0.1273
10956W        W28480   0.311   7.120   0.149  0.2394 -0.1966 -0.1873
10957W        W28481  12.632  16.282   0.966  0.3108  0.2669  0.2544
10958W        W28482   6.892   2.267  14.100 -0.3880  0.2493 -0.2216
10959W        W28483  17.167   3.999   2.878  0.0572  0.2908  0.4569
10960W        W28484   1.623  16.766  13.018 -0.2513 -0.1827  0.2098
10961W        W28485   4.906  17.374  11.170  0.1328 -0.3096 -0.0852
10962W        W28486   8.822  13.134  12.648  0.2790 -0.2181 -0.0478
10963W        W28487   7.519  15.208  13.442 -0.2443  0.1118 -0.3700
10964W        W28488  13.584  14.598   3.045  0.1699  0.1384  0.3353
10965W        W28489   7.464   8.265   1.785 -0.0071  0.1777 -0.3485
10966W        W28490   2.793   2.217  12.740  0.2406  0.0721  0.1401
10967W        W28491  11.925   3.012   4.806 -0.1521 -0.1399 -0.3379
10968W        W28492   2.172   8.772   1.622 -0.0528  0.4507  0.1553
10969W        W28493   5.372  11.687  15.650 -0.0225 -0.3359 -0.0952
10970W        W28494   5.318   1.866  16.032 -0.0103 -0.0049 -0.0889
10971W        W28495   5.773  10.689  11.454 -0.0670 -0.1832  0.1276
10972W        W28496   9.257   8.621   5.943 -0.2237 -0.2798 -0.2104
10973W        W28497  12.317   6.725  14.915  0.0131 -0.0497  0.0944
10974W        W28498   4.563   0.265  15.421  0.3123 -0.0534  0.2008
10975W        W28499   7.563   4.509  10.158 -0.1442  0.2706 -0.1746
10976W        W28500  16.875  15.407  12.773 -0.0229 -0.0161 -0.2178
10977W        W28501  13.410  15.184  11.921  0.1968 -0.1353  0.0612
10978W        W28502  12.281   9.779   0.242 -0.1304  0.1995 -0.0355
10979W        W28503   2.542  14.483   2.456  0.1303  0.2264  0.2240
10980W        W28504   1.747  17.515   0.731 -0.2803  0.2871  0.0187
10981W        W28505   3.410  17.098   1.395 -0.2454 -0.1716 -0.3608
10982W        W28506  16.654  10.571   4.650 -0.1016 -0.1223  0.1733
10983W        W28507  16.114  10.971  16.024  0.1535 -0.2047  0.0548
10984W        W28508  13.999  12.309  14.787 -0.0388  0.4157  0.2483
10985W        W28509  13.994   1.949  15.254  0.0161 -0.0711  0.0220
10986W        W28510   3.002  10.692   0.919  0.1147  0.0185 -0.1296
10987W        W28511   1.506   8.968   3.998  0.0579 -0.1453 -0.1392
10988W        W28512  17.296  18.058   3.071 -0.1416  0.2095  0.3146
10989W        W28513  14.264   8.483   3.880  0.2877  0.0709  0.1630
10990W        W28514   1.388  15.235  13.460  0.2471  0.1312  0.0021
10991W        W28515   9.358  15.640   3.251 -0.1106  0.0333 -0.1120
10992W        W28516  13.770   4.462  12.950  0.0174 -0.1012  0.0561
10993W        W28517  10.305  17.616  14.773  0.2348 -0.0897 -0.0604
10994W        W28518   8.615   0.923   1.586 -0.3302 -0.0676 -0.2747
10995W        W28519  12.937   3.195   1.992  0.1140 -0.1347  0.0434
10996W        W28520   2.277   1.199  15.949 -0.0014  0.2444  0.2237
10997W        W28521  14.345  17.990  14.373  0.2886  0.2149 -0.1288
10998W        W28522  10.686   5.100  13.326  0.1908  0.0531  0.3137
10999W        W28523  14.446  17.896   0.557 -0.1125  0.1997 -0.3797
11000W        W28524   0.257   5.716  11.704 -0.0117 -0.3227 -0.1115
11001W        W28525  14.139   8.008  12.684  0.0743 -0.0427 -0.0397
11002W        W28526   5.282   1.366  14.569  0.1780 -0.2796 -0.1110
11003W        W28527   5.385  16.034   1.935  0.0459 -0.0761  0.0043
11004W        W28528  13.506   8.312   5.449  0.1493 -0.2009 -0.0570
11005W        W28529   4.782  16.798  14.682 -0.1664  0.1062 -0.2143
11006W        W28530  11.962   8.576  15.888 -0.3661 -0.0945 -0.3364
11007W        W28531   5.307   4.472   3.224 -0.0877  0.0717  0.0168
11008W        W28532   8.747   9.651   2.526  0.2210 -0.0248  0.1683
11009W        W28533   7.102  16.814  13.071  0.1374  0.2050 -0.0591
11010W        W28534  11.317  11.883   1.427  0.0812  0.4419  0.2147
11011W        W28535   5.836   9.706   0.810  0.2934 -0.1798 -0.0954
11012W        W28536   6.278   8.606   1.571  0.0703  0.3255  0.0801
11013W        W28537  18.091   4.423  15.896  0.0434 -0.0665  0.0580
11014W        W28538   1.685  15.268   1.229 -0.1759 -0.0587  0.2146
11015W        W28539  15.382  14.429   2.898  0.0007  0.2691 -0.1790
11016W        W28540   6.548  11.090   0.399  0.2912 -0.2249 -0.2340
11017W        W28541   2.724   2.682  12.481  0.1367  0.0254  0.0390
11018W        W28542   8.612  14.004   4.541 -0.0865 -0.6187 -0.3202
11019W        W28543  11.701  13.625  13.706 -0.0035  0.0873  0.4390
11020W        W28544  16.586  13.894   1.246 -0.1835  0.1173 -0.0052
11021W        W28545  18.038  14.105  15.415 -0.0917 -0.1967 -0.1150
11022W        W28546   7.942  13.819  15.864  0.1597 -0.1961  0.0422
11023W        W28547  10.983   1.994   3.703  0.0361 -0.0087  0.0346
11024W        W28548   8.314  13.996  12.581  0.0072 -0.1611 -0.3106
11025W        W28549  15.483   2.148  12.450 -0.1230 -0.2990 -0.1083
11026W        W28550   3.131  16.130  15.070 -0.0648  0.1539  0.0197
11027W        W28551   4.601   9.386   2.719  0.1456  0.1780  0.0573
11028W        W28552   8.223   2.545  16.038 -0.3266 -0.1038  0.2076
11029W        W28553  17.292   5.422  12.370  0.4887 -0.1743 -0.5000
11030W        W28554   2.045   4.682  15.430 -0.0279  0.0121  0.1204
11031W        W28555   6.841   7.725   0.956  0.2032 -0.2876  0.1924
11032W        W28556   6.144   8.996   4.730 -0.1693  0.3501  0.1457
11033W        W28557   0.453   8.257  12.318 -0.0388  0.1088 -0.0786
11034W        W28558  17.954   1.306   0.178  0.0773 -0.0194 -0.0698
11035W        W28559  17.618   8.867  12.893 -0.2126 -0.0296 -0.2301
11036W        W28560  13.375   6.661  14.683  0.0142  0.0159  0.1927
11037W        W28561   2.693  12.743  15.603 -0.1154 -0.1899  0.0152
11038W        W28562  15.025   1.280  14.044 -0.1752  0.0395  0.0724
11039W        W28563   3.079  13.769  11.809  0.1903 -0.0113  0.0685
11040W        W28564   6.492  15.315   4.709 -0.2467  0.0241  0.0320
11041W        W28565   5.043  10.963   3.988  0.1162 -0.0549 -0.0128
11042W        W28566  15.189  12.591  11.445  0.1649 -0.0913  0.1018
11043W        W28567  14.737  16.139   1.571 -0.0674 -0.1737  0.0791
11044W        W28568  14.927   7.201  15.759  0.1141 -0.0261  0.3075
11045W        W28569   1.664   1.926   3.321  0.1977 -0.1231  0.1480
11046W        W28570   0.016  15.885   4.417  0.3495  0.0393 -0.3904
11047W        W28571   4.783   7.091   5.852 -0.1271 -0.1369 -0.0549
11048W        W28572   8.202   0.729  15.447  0.2879  0.1159  0.1128
11049W        W28573   1.697  10.804  15.639 -0.1293  0.2188 -0.0804
11050W        W28574   0.365   1.410  15.744  0.0003 -0.0553  0.0378
11051W        W28575  17.982   7.121  13.190 -0.0749  0.0954  0.0203
11052W        W28576  17.694   7.992   0.268 -0.5470  0.0279  0.0284
11053W        W28577   6.410   9.146   0.288 -0.0716  0.1578  0.0139
11054W        W28578  10.658   4.073   4.459 -0.1055 -0.2723  0.1093
11055W        W28579  14.273   5.105   3.191  0.0464 -0.2664 -0.4092
11056W        W28580  13.261   0.839   4.217 -0.3940 -0.1095 -0.1664
11057W        W28581   7.934  13.956   2.248 -0.3635 -0.2147  0.0352
11058W        W28582   6.805   1.896  15.781 -0.0989  0.0456 -0.3084
11059W        W28583  13.965  12.404  11.242 -0.1356 -0.2221  0.0576
11060W        W28584  15.170   5.417   1.757  0.0756  0.0780 -0.2098
11061W        W28585   6.481   3.992  12.209  0.1508 -0.0258  0.2459
11062W        W28586   6.699   9.242  15.329 -0.0519 -0.1026 -0.2467
11063W        W28587  15.301   8.443   0.976 -0.1409 -0.2555  0.3993
11064W        W28588   8.210  10.640  13.100 -0.0321  0.2095 -0.0007
11065W        W28589   0.990   0.816  13.486 -0.2653 -0.0287  0.0948
11066W        W28590   4.812   7.420  14.839  0.2126 -0.0842 -0.0022
11067W        W28591   6.317  17.946  11.522  0.1560 -0.1309 -0.3151
11068W        W28592   3.607  15.472  15.645  0.3232 -0.0994 -0.2127
11069W        W28593  15.673  16.699   0.307  0.1511 -0.0380 -0.0486
11070W        W28594  17.644   4.055   3.006  0.1484 -0.1627 -0.1109
11071W        W28595   1.733  14.219   0.169  0.0619 -0.0261 -0.0307
11072W        W28596   5.482  13.257   1.545  0.2546  0.0285  0.1920
11073W        W28597   6.981   6.088  13.685  0.1767  0.1921 -0.2210
11074W        W28598   7.942   0.080   4.333  0.0517  0.3793  0.0082
11075W        W28599   5.187   1.470   1.290  0.0177 -0.0618  0.1266
11076W        W28600   3.345  14.279   4.188  0.2645 -0.0771 -0.0942
11077W        W28601  14.991  10.527   4.089  0.1133 -0.0568  0.1097
11078W        W28602   5.743  13.358  10.642 -0.1907  0.0352  0.3258
11079W        W28603   3.792   3.622   3.744 -0.0677  0.1862 -0.2978
11080W        W28604   3.475   4.993   0.780 -0.1607 -0.0852  0.1305
11081W        W28605   3.660   4.536   5.726 -0.0611 -0.4580 -0.1875
11082W        W28606   3.145  14.633  15.655 -0.3530  0.1576  0.4857
11083W        W28607  15.396   4.267  14.059 -0.0251 -0.1469 -0.2798
11084W        W28608   0.196   4.382   4.254  0.1694  0.1081  0.2149
11085W        W28609   9.785   7.054   4.373 -0.0545  0.1053  0.0280
11086W        W28610   0.862  12.578   4.663  0.0313 -0.2883  0.3736
11087W        W28611   0.219   0.819  12.862  0.0597 -0.0467  0.0497
11088W        W28612  10.953   5.095   1.989 -0.3849 -0.0829 -0.1270
11089W        W28613  12.983   2.423  12.016  0.2999  0.0383  0.1772
11090W        W28614   1.447   2.941   0.420 -0.0791 -0.1270  0.2667
11091W        W28615  13.994  13.360   1.566 -0.0304 -0.1480 -0.1097
11092W        W28616  12.169   1.490   3.651  0.0624  0.0174 -0.0136
11093W        W28617  18.108   9.279  13.635 -0.1480 -0.0761  0.0041
11094W        W28618  11.002   3.695   3.874 -0.2852  0.4686  0.0532
11095W        W28619   2.781  12.613  14.071  0.0448  0.0707 -0.0974
11096W        W28620  18.113  16.737   2.849 -0.3228  0.1305 -0.1213
11097W        W28621   9.082   8.643  16.002 -0.0965 -0.1663 -0.3107
11098W        W28622  11.156  11.302  10.476  0.0311 -0.3769 -0.1895
11099W        W28623   4.335  17.007  14.672 -0.1732 -0.1265  0.1333
11100W        W28624   3.473   1.098   4.128  0.0293  0.3205  0.2618
11101W        W28625   6.236   1.811  12.977  0.0414 -0.2406  0.1465
11102W        W28626   9.914   6.859  10.816 -0.1758  0.0594  0.1786
11103W        W28627   0.487   2.483   4.019  0.3497 -0.0971 -0.0942
11104W        W28628   7.791  11.293   3.108  0.0879  0.4802  0.0651
11105W        W28629   9.257  14.370   3.136  0.0744  0.2120  0.0282
11106W        W28630   8.801  18.053  15.080  0.1392  0.0166 -0.0327
11107W        W28631   6.862  15.206   4.337 -0.1304  0.0934  0.0097
11108W        W28632   1.340  13.099   3.488  0.0544  0.1600  0.3803
11109W        W28633   7.789   1.382  13.746  0.1627  0.0622 -0.1408
11110W        W28634   9.656   7.163  14.998 -0.0875 -0.0692 -0.1156
11111W        W28635   7.018  14.931  11.624 -0.0421 -0.1442 -0.0188
11112W        W28636   4.255   6.723  12.501 -0.1167 -0.0571 -0.1083
11113W        W28637  18.025  15.460   1.896  0.1521 -0.1178  0.2363
11114W        W28638  13.335   8.950  13.072  0.0574  0.3612  0.1454
11115W        W28639   9.887  15.624   3.171  0.1180 -0.1119  0.1130
11116W        W28640  15.129   5.429   3.687 -0.4211  0.1158 -0.2458
11117W        W28641   1.969  12.029   4.627 -0.1447 -0.2638  0.0786
11118W        W28642   5.429   5.790  13.114  0.0760  0.2330  0.3455
11119W        W28643   3.000  13.569   0.011  0.0287  0.0664  0.2448
11120W        W28644   5.060   6.805   1.999  0.1118  0.2591  0.1297
11121W        W28645  11.217   9.630  14.600  0.0995  0.0861 -0.1563
11122W        W28646   1.063  10.179  14.721 -0.3307  0.0665  0.1717
11123W        W28647  11.887  16.435  10.578  0.1774 -0.0207 -0.0651
11124W        W28648  14.873   4.205   1.248  0.0562  0.1654 -0.6355
11125W        W28649  16.014   3.535  13.622  0.2062 -0.0925 -0.0310
11126W        W28650  10.995   6.339   3.315  0.0188  0.1283  0.1580
11127W        W28651   3.585   7.670   1.176  0.1117  0.2385 -0.3999
11128W        W28652  14.173   6.023  15.412  0.0328 -0.1052 -0.2635
11129W        W28653  17.978  17.302  11.321  0.2183  0.0380 -0.1818
11130W        W28654  10.396  15.283  14.753  0.0510  0.0166  0.0655
11131W        W28655  12.337   4.666  13.418 -0.1261  0.1239 -0.0711
11132W        W28656  14.424   8.658  12.194  0.4130  0.0738 -0.1902
11133W        W28657  11.418   2.300   4.399 -0.0584 -0.0931  0.1361
11134W        W28658  12.881   1.364  15.613  0.2385  0.1467 -0.4447
11135W        W28659  11.881  11.228  15.122  0.3053  0.3245 -0.1416
11136W        W28660  14.913   4.375   2.220 -0.2770  0.4068  0.0934
11137W        W28661   9.609  15.811   0.320 -0.1733  0.4742  0.2191
11138W        W28662  12.313  14.409  13.960  0.0248  0.0238  0.1522
11139W        W28663  11.561   8.279  15.641 -0.0571  0.1609  0.2077
11140W        W28664  12.201  11.063   3.480  0.0988 -0.3928 -0.0464
11141W        W28665   7.143   3.941   3.763  0.1647 -0.2291  0.0904
11142W        W28666  10.037  16.719   1.019 -0.0602  0.0777 -0.4156
11143W        W28667   8.288  12.803  13.383 -0.0781  0.1091  0.0361
11144W        W28668   6.911   3.143   0.228 -0.1504  0.1265  0.0835
11145W        W28669  17.796  15.375  15.170 -0.0625 -0.3152  0.2280
11146W        W28670  15.589  14.516  15.119  0.0609 -0.2017  0.1959
11147W        W28671  14.238   1.916  13.950 -0.4490 -0.2162 -0.1628
11148W        W28672  15.255   1.326   0.030 -0.0481 -0.1978  0.1270
11149W        W28673   6.173   3.529   2.381  0.0307  0.0692 -0.1853
11150W        W28674   1.626   1.646  14.729  0.1740 -0.0535 -0.0722
11151W        W28675  16.009   1.059   4.835 -0.1191  0.2333 -0.2564
11152W        W28676   3.643   0.594   1.017  0.2338 -0.0773 -0.1381
11153W        W28677   3.312   3.156  14.842  0.3903 -0.0083 -0.1074
11154W        W28678   8.438   1.721   0.586  0.1524  0.1361 -0.0291
11155W        W28679  12.362  15.047  15.093  0.1503 -0.1202 -0.3370
11156W        W28680   8.338  17.333   0.040 -0.2288 -0.1247 -0.5637
11157W        W28681  13.214  15.665  14.204  0.3338 -0.0845 -0.0238
11158W        W28682   2.399   3.874   0.736  0.0411 -0.0351  0.1372
11159W        W28683  11.705   3.095  11.907  0.0525 -0.0387 -0.2991
11160W        W28684  16.654   5.024   2.328 -0.0917  0.1436  0.0382
11161W        W28685  17.154   1.900  12.707  0.0366  0.1383  0.1854
11162W        W28686   5.251  10.146  13.717  0.2104 -0.1434 -0.1675
11163W        W28687   9.804  12.526   4.411 -0.3687  0.0554  0.1146
11164W        W28688  15.903  15.202  14.117 -0.0619  0.5326 -0.0530
11165W        W28689   1.305   0.838  13.078 -0.0956  0.0903 -0.0665
11166W        W28690  17.397  16.254   0.221 -0.1770  0.1388 -0.0315
11167W        W28691   4.743  13.916   0.277 -0.0444  0.1583  0.1586
11168W        W28692   1.209  15.613  12.227  0.1960 -0.0237 -0.0025
11169W        W28693   3.363  12.219   1.006 -0.2111  0.2331  0.2133
11170W        W28694   0.304   3.450   4.294  0.1095  0.1563  0.0822
11171W        W28695   5.032  16.465   1.979 -0.1912  0.1837  0.0544
11172W        W28696  17.260  12.809  12.807 -0.0347 -0.1123 -0.0145
11173W        W28697   9.139  13.219  11.653  0.2090 -0.1137  0.0619
11174W        W28698  11.069   3.312   2.479 -0.3565 -0.1174  0.1783
11175W        W28699  15.261   4.425  10.956  0.0280 -0.2269 -0.3444
11176W        W28700  11.179  13.199   0.088 -0.1608 -0.2402  0.2935
11177W        W28701   0.227   8.844  13.628 -0.3804 -0.0494  0.3199
11178W        W28702   8.599  16.270   0.827 -0.3271 -0.1247 -0.3035
11179W        W28703  15.132   4.944   0.694 -0.1879 -0.2110 -0.1663
11180W        W28704   8.121  15.961  11.169 -0.2077 -0.0158 -0.1667
11181W        W28705   3.076  15.359   2.724  0.1517  0.1984  0.0144
11182W        W28706  10.306  11.150   4.947  0.6357 -0.0679 -0.1754
11183W        W28707   1.918   7.149  13.325  0.2062  0.0906 -0.0478
11184W        W28708   7.205  13.231  11.312 -0.3164  0.2457  0.1472
11185W        W28709   8.859   9.439  14.754  0.3379 -0.1988  0.1201
11186W        W28710  11.843   9.651  12.840 -0.1297 -0.0069 -0.3797
11187W        W28711   9.720  10.072   1.728 -0.0037  0.1294 -0.1888
11188W        W28712  12.508   1.161  15.292  0.0276  0.1595  0.0479
11189W        W28713  16.646   1.208  12.363  0.1058  0.0799 -0.0385
11190W        W28714   1.001  10.987   1.579  0.1424  0.1323 -0.1331
11191W        W28715  11.047   2.282   1.975  0.0753 -0.0882  0.2581
11192W        W28716  12.652  10.955   3.717  0.0787  0.0816 -0.3005
11193W        W28717   9.678  14.379  11.757  0.0073 -0.2066 -0.2107
11194W        W28718   3.158   4.162   2.862  0.1772 -0.1161  0.2833
11195W        W28719  14.705   5.407  13.356 -0.2823 -0.0798  0.0285
11196W        W28720   7.540   2.312  13.346  0.4067 -0.0441 -0.0739
11197W        W28721   7.745   6.491   3.246  0.1873 -0.0441  0.1096
11198W        W28722   3.630   2.550  10.416 -0.0565 -0.1306 -0.0942
11199W        W28723  14.736  10.037   2.361 -0.0788  0.1301 -0.4280
11200W        W28724   4.179  10.438  13.971 -0.1565 -0.1766 -0.3830
11201W        W28725   0.826   7.013  11.303 -0.1212 -0.0022  0.1855
11202W        W28726  12.053  16.512  11.995  0.0175 -0.0295  0.0265
11203W        W28727   5.890   9.620  15.500  0.0579 -0.0707  0.2007
11204W        W28728   5.552  12.947  13.587 -0.0669  0.2549  0.1523
11205W        W28729   9.948   3.722   4.210  0.2630  0.0930 -0.1270
11206W        W28730   4.747   2.469   5.670  0.0008 -0.0241  0.2168
11207W        W28731  15.781   4.901  14.405 -0.1457  0.2646 -0.0388
11208W        W28732  18.145   6.163  11.564  0.1881 -0.1686  0.1089
11209W        W28733  11.274  15.850  13.286  0.0930  0.2178  0.1986
11210W        W28734  14.355  11.443   0.246  0.1731 -0.3923  0.3011
11211W        W28735  17.438  15.858   5.494 -0.0624 -0.0710 -0.2071
11212W        W28736  13.514   7.771   3.501 -0.2606  0.1143 -0.0068
11213W        W28737  15.202  10.758   2.128 -0.0272 -0.1242  0.1954
11214W        W28738  14.671  11.768  13.171 -0.1198 -0.1959  0.0688
11215W        W28739   9.040   3.879   0.609 -0.1268 -0.0141  0.0446
11216W        W28740   4.401   3.714  13.893 -0.0896 -0.0031  0.1643
11217W        W28741  17.634  13.245  13.959  0.1351  0.1229 -0.0550
11218W        W28742   8.066  12.500   4.597  0.1047  0.0295 -0.0157
11219W        W28743   5.169  13.209  13.817  0.1677  0.1092  0.0911
11220W        W28744  16.703   2.471   4.897  0.1085  0.1276 -0.1748
11221W        W28745  14.163   3.800   1.375  0.2626  0.2486  0.0628
11222W        W28746   4.390  10.490   3.290  0.0764  0.2060  0.1023
11223W        W28747   8.847   0.087   3.134 -0.0591  0.2510  0.4195
11224W        W28748  14.881  15.948  15.549  0.3676  0.2920  0.1255
11225W        W28749  10.619   5.678   1.689 -0.0510  0.0631  0.1884
11226W        W28750  17.763   8.922   2.295  0.1055  0.0136  0.2483
11227W        W28751   2.230   7.483  13.513  0.0863 -0.0415  0.0181
11228W        W28752   0.806   1.724  12.280 -0.2264 -0.0355  0.0148
11229W        W28753  17.121   7.097   5.825  0.1794  0.0625  0.2983
11230W        W28754   2.981  11.590   0.524 -0.0877  0.1781  0.1351
11231W        W28755   3.987   5.989  15.817  0.2145 -0.1742 -0.1216
11232W        W28756   9.122   7.481   1.177  0.4085  0.3633 -0.2984
11233W        W28757   2.450   9.532   2.056  0.1768  0.0260 -0.3512
11234W        W28758   5.582  12.635  13.923  0.3943 -0.1113 -0.2375
11235W        W28759   2.940  12.825   3.016 -0.0952 -0.0147 -0.1673
11236W        W28760  11.796  12.144  12.089 -0.0288  0.0606 -0.1539
11237W        W28761   3.784  14.597   4.478 -0.1678 -0.2451  0.2060
11238W        W28762   7.230   1.240  14.544  0.0753 -0.0029 -0.0599
11239W        W28763  16.075  17.598   3.425  0.0973  0.1392  0.3623
11240W        W28764  16.742   3.310  15.752 -0.2644  0.0194  0.2065
11241W        W28765   2.992  15.941   3.671 -0.2282 -0.3072 -0.0870
11242W        W28766   4.980  12.547   4.487 -0.1757 -0.0994 -0.1007
11243W        W28767  11.730  12.252  13.638  0.2545  0.0604 -0.1231
11244W        W28768  14.505   6.039   1.967 -0.1980  0.0551 -0.0930
11245W        W28769   5.440   5.608  12.623 -0.1310  0.3878  0.0410
11246W        W28770   8.903   4.565  11.422  0.2222 -0.2436  0.0174
11247W        W28771   5.250  11.619   4.032 -0.0456  0.1763  0.1259
11248W        W28772   8.499  15.577  12.365  0.1184 -0.0401 -0.0613
11249W        W28773  14.087   9.117  15.078 -0.2517  0.2006 -0.1741
11250W        W28774  12.928  15.770  11.327  0.0271  0.1714  0.2331
11251W        W28775  17.995   8.802   3.343  0.2655  0.0690  0.1593
11252W        W28776   3.254   7.146   3.088 -0.2505  0.1363  0.0353
11253W        W28777  11.303  10.977  14.913  0.1158 -0.0301 -0.3358
11254W        W28778  11.120   5.325  13.534  0.1645 -0.3643 -0.1976
11255W        W28779   0.691  13.094  14.683  0.1065  0.3140  0.4852
11256W        W28780  17.401   5.450  12.920  0.3851 -0.1038  0.1118
11257W        W28781   3.541   2.440  11.079  0.1395 -0.0229 -0.2357
11258W        W28782  14.308  15.361  12.695 -0.0544  0.0134 -0.1872
11259W        W28783   0.631   3.937   1.514 -0.0252 -0.0885 -0.3399
11260W        W28784   0.023  13.692  15.054 -0.1038  0.0776 -0.4182
11261W        W28785   0.329   0.232  14.082 -0.0192  0.1584  0.2721
11262W        W28786  10.680   0.710  12.409 -0.2811  0.0822  0.4434
11263W        W28787   8.727   6.102  13.562  0.1248 -0.0897  0.3333
11264W        W28788   1.495  12.583  15.211 -0.3161 -0.2741 -0.1185
11265W        W28789  17.816  17.166   0.711  0.0077 -0.0756  0.1537
11266W        W28790  13.154  15.046   1.257  0.1753  0.3080  0.2051
11267W        W28791  11.315  13.614  15.977  0.1941  0.1291  0.0315
11268W        W28792   0.764   2.981  14.361 -0.2498  0.0698  0.5047
11269W        W28793   0.043  13.786  12.453 -0.0249 -0.2380  0.0967
11270W        W28794   8.200  10.735   0.575 -0.0755 -0.0679 -0.0228
11271W        W28795  14.625   1.438   2.847 -0.2208  0.0623  0.1712
11272W        W28796   6.386   6.672  15.372  0.3011  0.1295  0.1058
11273W        W28797   2.750  12.222  15.748 -0.2146  0.2578 -0.1526
11274W        W28798  17.133  15.011  12.439  0.2851  0.2112 -0.0932
11275W        W28799  18.045   9.668  14.743  0.0257  0.0443 -0.0382
11276W        W28800   0.985  13.026   2.410  0.1410 -0.0204 -0.1506
11277W        W28801   8.289  18.030  15.515 -0.0064  0.1548  0.0710
11278W        W28802   4.359   9.274  15.979  0.3611  0.0597 -0.0229
11279W        W28803  18.119  14.451   3.822 -0.0352  0.2912  0.1379
11280W        W28804  14.280  13.786   1.621 -0.4456  0.0599 -0.0745
11281W        W28805  11.447  11.624   5.209  0.0784 -0.0219  0.2252
11282W        W28806   8.595  13.841  14.672 -0.0263 -0.2730  0.1716
11283W        W28807  10.136   6.875  11.829  0.0105 -0.3767 -0.3560
11284W        W28808   9.232  11.427  15.924 -0.1267 -0.2711 -0.1814
11285W        W28809   1.526   1.588   3.655 -0.2947 -0.0372 -0.0162
11286W        W28810   2.180  10.540   0.115  0.1622  0.2577  0.1019
11287W        W28811   3.769   1.315   1.795 -0.1287  0.2400 -0.0525
11288W        W28812   5.988   3.081   4.146  0.3458 -0.2155 -0.0353
11289W        W28813   5.798   7.332  15.790 -0.2556  0.2251  0.2006
11290W        W28814   4.393  10.138  10.632 -0.2334  0.3492 -0.1396
11291W        W28815   8.305  10.775  13.558  0.1108 -0.4336 -0.0324
11292W        W28816  12.344  14.181   2.522  0.0474 -0.0437  0.1285
11293W        W28817   6.028   8.969   9.761  0.6471  0.1915 -0.2083
11294W        W28818  12.798   9.263   2.470  0.0628 -0.1983  0.0248
11295W        W28819   9.311  17.409   2.958  0.3226  0.0519  0.3596
11296W        W28820   5.401   9.741  15.239 -0.1789  0.0810 -0.0853
11297W        W28821   4.573  17.891  14.806 -0.0168 -0.1614 -0.1890
11298W        W28822   4.077  15.617   2.279  0.2308 -0.1543  0.0367
11299W        W28823  16.491   7.342   2.261 -0.1889 -0.1818  0.1009
11300W        W28824   6.434  13.434  13.476 -0.1365 -0.0102  0.2004
11301W        W28825  14.473   5.180   4.619  0.3705  0.1280  0.1602
11302W        W28826  18.013  12.102   4.150  0.2630 -0.0615  0.1487
11303W        W28827   8.375   0.324  14.445 -0.0045 -0.0532 -0.2392
11304W        W28828   2.096   1.190  11.777 -0.3615  0.3295 -0.0976
11305W        W28829   6.946  13.580  13.756 -0.2322  0.1541  0.0171
11306W        W28830   8.118   0.265   1.989 -0.2643  0.0192  0.1037
11307W        W28831   6.782   0.197   0.732  0.0787  0.0664  0.0507
11308W        W28832   0.652   3.460   5.100 -0.0217 -0.1641  0.0884
11309W        W28833   7.790   6.508   1.887  0.1231 -0.1144 -0.4196
11310W        W28834  14.635  11.182  11.228 -0.1191  0.1751  0.1503
11311W        W28835  10.084  16.116  15.993  0.0262 -0.4462  0.0834
11312W        W28836   3.882   1.446   1.279 -0.3992 -0.0953  0.0773
11313W        W28837  15.856   8.100   5.261  0.2078 -0.2742 -0.0496
11314W        W28838  17.989   3.940  13.903  0.1274 -0.3817  0.1474
11315W        W28839  16.831   6.192   0.376  0.0356 -0.1306 -0.2201
11316W        W28840   1.093   4.845  13.522 -0.0183  0.0174  0.1869
11317W        W28841  11.896   7.340   1.842 -0.2436  0.1549 -0.1657
11318W        W28842   2.204   6.322  10.699  0.5397 -0.0261  0.2124
11319W        W28843   2.411  13.952   3.781 -0.1612 -0.1365  0.1328
11320W        W28844   4.762  10.961   3.482 -0.0607  0.1137 -0.1104
11321W        W28845  10.670   9.088  13.073  0.0763 -0.0822 -0.1772
11322W        W28846   0.484   0.073  14.987 -0.0995 -0.0258  0.2344
11323W        W28847   1.470  13.831   3.981  0.0524 -0.1399 -0.2995
11324W        W28848   7.429  18.045   1.431  0.0331 -0.0048 -0.0933
11325W        W28849  14.629  17.308  10.779  0.0958 -0.2482  0.2895
11326W        W28850   3.360  17.672  15.079 -0.2196 -0.2624  0.0111
11327W        W28851  11.630  16.141   1.637 -0.0231 -0.0766  0.2876
11328W        W28852   1.469  17.726  14.792  0.3242 -0.1116 -0.3010
11329W        W28853  17.227   1.471  13.505  0.3072  0.1820  0.0637
11330W        W28854  13.304   3.838  11.592 -0.0368  0.0811  0.2491
11331W        W28855  10.376  16.564  15.079  0.2246 -0.3471 -0.0962
11332W        W28856   5.325   4.505  11.193  0.1912 -0.1123  0.1895
11333W        W28857   1.197   0.617   2.820 -0.0407 -0.3223 -0.0043
11334W        W28858   4.866   3.236  15.634  0.2507 -0.0596  0.1263
11335W        W28859  13.363  11.918   2.710 -0.2488 -0.1533  0.0120
11336W        W28860  14.354  12.728  14.833 -0.4583  0.2129 -0.2531
11337W        W28861  10.208   9.941  12.411 -0.1326 -0.4174 -0.2245
11338W        W28862   2.269  10.644   0.833 -0.2962  0.1357  0.2272
11339W        W28863   2.339  16.805   4.802  0.1824 -0.0385  0.0805
11340W        W28864  17.218  13.872   0.450 -0.0728  0.1843 -0.1459
11341W        W28865  15.026  14.693  15.249  0.3900  0.2574  0.0628
11342W        W28866   7.364   3.374   1.607  0.1154 -0.1083  0.0698
11343W        W28867  14.548  18.186  11.939 -0.0113  0.1174  0.0486
11344W        W28868   5.837   9.072   0.200  0.1385  0.2564 -0.0791
11345W        W28869   4.481  17.476  15.300  0.1080 -0.0652  0.0907
11346W        W28870  15.453  12.409   1.332  0.1550 -0.2576 -0.0984
11347W        W28871   6.287  11.423   4.241  0.3162 -0.0199 -0.2059
11348W        W28872   9.978  16.765  14.811 -0.0529  0.0707 -0.0949
11349W        W28873   9.573   9.808   2.600  0.0474 -0.2678 -0.0570
11350W        W28874   4.781   6.530   4.094  0.1126 -0.0295 -0.1403
11351W        W28875  11.135   4.002   3.074 -0.0564  0.0987  0.2460
11352W        W28876   1.245   1.359  14.873 -0.0894  0.0564  0.0658
11353W        W28877  10.914   2.341  12.094 -0.0443  0.0291 -0.1608
11354W        W28878   7.912   3.441  14.434 -0.3976  0.1528  0.1991
11355W        W28879   7.503   3.754   1.861  0.0448  0.1285 -0.1891
11356W        W28880  13.166   5.985  15.299 -0.3860 -0.0060 -0.0111
11357W        W28881  14.634  15.883   5.023  0.1243  0.2532  0.1791
11358W        W28882   2.427   4.256   5.078 -0.1003 -0.0614 -0.1413
11359W        W28883  10.349  13.632  14.904  0.1698  0.2627  0.0615
11360W        W28884   9.578  11.460   2.860  0.1204  0.3032 -0.1131
11361W        W28885  10.165   9.324  13.216 -0.0164 -0.2740 -0.0159
11362W        W28886   6.286   6.033   4.403 -0.1153  0.1011  0.3455
11363W        W28887  16.339   2.878   4.593 -0.1615  0.4641 -0.4217
11364W        W28888   7.833  12.985   0.995 -0.3871 -0.0882 -0.0111
11365W        W28889   9.605  10.163  15.816 -0.1696  0.1219  0.0214
11366W        W28890   7.880   8.606   1.722 -0.0471 -0.2427  0.0136
11367W        W28891  10.777   1.279  11.096  0.1890  0.0385  0.1606
11368W        W28892  12.350  11.638   1.182 -0.1639  0.0507 -0.0827
11369W        W28893  10.113   3.830  11.536 -0.2991 -0.3894  0.0343
11370W        W28894   6.191  10.437   0.541 -0.0625  0.3807  0.1239
11371W        W28895  16.898  15.961  11.867  0.0555 -0.1842  0.1795
11372W        W28896   4.131  16.147  10.200 -0.1989  0.0056 -0.0072
11373W        W28897   8.479  14.706   3.336  0.2576  0.0257 -0.2057
11374W        W28898  13.225  14.960   2.391 -0.3533  0.0721  0.1074
11375W        W28899   0.949   1.077  11.201 -0.0134  0.0151  0.2703
11376W        W28900  14.350  13.279   3.579  0.0455 -0.2028 -0.4234
11377W        W28901   9.603  14.112  11.376  0.1482  0.2218  0.0392
11378W        W28902  10.474   3.763   9.816  0.0763  0.0517 -0.2222
11379W        W28903   4.928   2.598  12.354 -0.2406 -0.1450 -0.1861
11380W        W28904   3.895   0.126  12.283 -0.2178 -0.2107 -0.0031
11381W        W28905  14.110  11.020   4.009 -0.1268  0.1706  0.2391
11382W        W28906   3.344   1.255   5.358 -0.2183  0.0368 -0.0090
11383W        W28907   6.539   0.539   3.308  0.1711 -0.1620 -0.1219
11384W        W28908   0.675  11.801   1.092 -0.0055 -0.0551 -0.0775
11385W        W28909   0.708  11.690   4.191  0.0800  0.0766  0.4568
11386W        W28910  11.631  15.231  14.067 -0.1683 -0.1841 -0.0145
11387W        W28911   7.277  14.309   3.828  0.1200 -0.1869 -0.2044
11388W        W28912  15.170   2.761  11.674  0.1050  0.1968  0.1132
11389W        W28913   9.611   1.156   1.596  0.1567  0.3553  0.1202
11390W        W28914   8.783  15.781   4.816 -0.2340  0.2312 -0.0061
11391W        W28915   0.307  11.668   0.191  0.2201  0.0295 -0.1835
11392W        W28916  13.966   6.842   3.117  0.0989 -0.1011 -0.1773
11393W        W28917  15.114  10.491  13.083  0.4000  0.1315  0.2913
11394W        W28918  13.720   8.010  12.289 -0.1549  0.1858  0.0188
11395W        W28919   6.833  18.134  14.647 -0.0263  0.3014  0.3612
11396W        W28920  10.998  14.457   4.723 -0.0167 -0.0319 -0.0522
11397W        W28921   5.451   7.944  11.345 -0.2267  0.1219 -0.4127
11398W        W28922   3.477  13.430   3.046 -0.1213  0.0721  0.0494
11399W        W28923   9.769   1.452  15.353  0.2877  0.0258  0.1071
11400W        W28924   3.704  12.004  12.541 -0.0689 -0.1654 -0.2013
11401W        W28925  12.624  10.789  12.389  0.0282 -0.0303 -0.0117
11402W        W28926  10.745  12.035   3.537 -0.2525  0.0900 -0.0953
11403W        W28927  10.709   1.514  14.354  0.1224 -0.2391 -0.0081
11404W        W28928  11.974   9.280   5.068  0.3628 -0.1935  0.0399
11405W        W28929   5.564   5.369   0.762  0.2080  0.2555  0.2264
11406W        W28930  13.499  12.358  13.982 -0.1534 -0.1211 -0.3079
11407W        W28931  17.549   1.100   4.057 -0.0474  0.1290  0.0291
11408W        W28932   8.806  11.391  12.131  0.1241 -0.0435  0.3726
11409W        W28933  10.340  11.639   0.508  0.0900  0.0071  0.0084
11410W        W28934   9.586   2.109   1.267 -0.2306  0.1046  0.1404
11411W        W28935   0.189  17.161   4.255  0.2163  0.1379 -0.2385
11412W        W28936   3.588   9.425   0.873  0.3776 -0.1441  0.1882
11413W        W28937   5.043  15.179   2.035 -0.0075 -0.0249 -0.0396
11414W        W28938   8.462  16.790  12.037  0.1378  0.0800  0.4910
11415W        W28939  12.136   4.845   4.731  0.1180  0.2011 -0.0007
11416W        W28940   0.552  12.368  15.079  0.2195  0.0749 -0.3984
11417W        W28941   2.048   5.958   1.967 -0.0282 -0.2128 -0.2189
11418W        W28942  10.847  16.664   2.005  0.2364  0.3433 -0.0631
11419W        W28943   8.800   3.507  15.951 -0.0481 -0.0469 -0.2935
11420W        W28944  11.224   1.008  13.619 -0.2323 -0.0864  0.0832
11421W        W28945   8.405   4.784  12.633 -0.0406  0.2725 -0.1426
11422W        W28946   3.162  14.510   5.306  0.1950 -0.3764 -0.0540
11423W        W28947   7.262   7.155   0.371  0.3741  0.2113 -0.0047
11424W        W28948  13.973   0.148  11.472 -0.0283  0.1006 -0.0343
11425W        W28949   8.192  15.355  15.163 -0.0036  0.0413 -0.0276
11426W        W28950  17.886   9.369  14.117 -0.3643  0.0453 -0.1876
11427W        W28951   1.221  17.552  11.461  0.0156 -0.0216  0.4251
11428W        W28952   7.359   9.724   1.434  0.0091 -0.3234 -0.0095
11429W        W28953   6.367   5.088   1.176  0.2708  0.0960 -0.2141
11430W        W28954  16.329   4.386  14.156 -0.0080 -0.0961 -0.2176
11431W        W28955  11.426   1.100  11.519 -0.0915 -0.0540 -0.2251
11432W        W28956   7.344  13.714  13.005  0.2561 -0.1028  0.0584
11433W        W28957   3.001   5.331  14.867  0.0940  0.4805 -0.4015
11434W        W28958  12.738   7.677  13.808 -0.1628 -0.0838 -0.2214
11435W        W28959  11.457   5.504   3.702 -0.2084 -0.4919  0.2055
11436W        W28960   5.329   3.907  15.236 -0.0020  0.1037  0.1789
11437W        W28961   5.679  12.686   0.625 -0.3684  0.1861 -0.0881
11438W        W28962  15.485  13.871   4.117 -0.0252 -0.2118  0.0117
11439W        W28963   2.843   9.733  13.082  0.1332  0.0047  0.1260
11440W        W28964  15.216   7.832   0.921  0.1312 -0.1907 -0.1484
11441W        W28965  10.079   2.259  16.021 -0.0117 -0.2067  0.3733
11442W        W28966  12.535  11.121   0.034  0.0187 -0.0135 -0.0848
11443W        W28967   4.247   8.589   1.065  0.1420 -0.0436 -0.3748
11444W        W28968   1.039  18.117   3.887 -0.0356  0.1447 -0.1670
11445W        W28969  15.949   2.526  13.297 -0.2485 -0.2137  0.0732
11446W        W28970   0.751   1.446   2.819  0.0336 -0.0512  0.0146
11447W        W28971  15.642   3.288   2.156 -0.0989 -0.0978  0.4644
11448W        W28972  12.814   4.300  12.802 -0.0260  0.0996  0.5383
11449W        W28973  14.728  10.518  13.427 -0.1425  0.2074 -0.0241
11450W        W28974   9.955  12.238  11.053 -0.1234 -0.0208 -0.2133
11451W        W28975   7.013  10.977  10.832 -0.0389  0.2442 -0.2590
11452W        W28976   9.630  16.644  11.659  0.0615 -0.1753 -0.1487
11453W        W28977  13.276   1.476   3.588  0.2409 -0.0513 -0.0750
11454W        W28978   5.568   0.704  10.816 -0.1129 -0.1126  0.1226
11455W        W28979   0.688  16.503  10.948 -0.1731  0.3945  0.2494
11456W        W28980   4.375  10.904  13.952 -0.1615  0.0297 -0.0503
11457W        W28981   3.395   3.915   4.960  0.1541  0.3097 -0.0063
11458W        W28982  15.691   2.964  12.314 -0.0177  0.0778  0.0598
11459W        W28983   6.446  15.030   1.398 -0.2083 -0.0166 -0.2781
11460W        W28984   5.091   2.989   3.019  0.0451  0.2243 -0.0587
11461W        W28985   2.175   6.405   2.542 -0.1166 -0.3245 -0.1274
11462W        W28986   4.625   1.877  14.501 -0.2098  0.1874  0.2278
11463W        W28987  15.242   2.471   4.888  0.0436  0.1580  0.4801
11464W        W28988  17.542   4.014   0.395  0.0578  0.0054  0.2353
11465W        W28989   2.716   4.656   4.026 -0.0602 -0.1294 -0.0503
11466W        W28990  17.743  13.406   4.172 -0.0993  0.0639  0.1051
11467W        W28991   3.024   2.523  11.325 -0.1158  0.1071 -0.4429
11468W        W28992   9.982  12.896   0.799  0.1836  0.1714 -0.0651
11469W        W28993   1.948   4.396  13.472 -0.1478 -0.0308 -0.0536
11470W        W28994   1.805   3.600   3.892  0.1756  0.2108 -0.0298
11471W        W28995   6.542   9.929   4.672  0.0644 -0.0630  0.0605
11472W        W28996  11.642   0.273   0.370  0.1795  0.1591 -0.3246
11473W        W28997   9.123   5.224   3.816  0.0442  0.0835 -0.0340
11474W        W28998  13.091   9.626   1.863  0.1355 -0.1907  0.3397
11475W        W28999   5.731  11.474  15.873 -0.1082 -0.0154 -0.0009
11476W        W29000  11.872  11.086  14.645  0.3478 -0.0963  0.2763
11477W        W29001   5.233  15.657   3.963  0.1452  0.6351  0.0806
11478W        W29002  11.354  10.220   0.261 -0.2470  0.0383 -0.0225
11479W        W29003  10.427   6.483   5.192 -0.2803  0.2769  0.0066
11480W        W29004  16.761  13.879   0.741 -0.2575 -0.0094  0.2839
11481W        W29005   0.074   3.703  12.317 -0.1591 -0.4085 -0.2695
11482W        W29006   3.366   0.432   3.389 -0.0414 -0.1620  0.1035
11483W        W29007   1.043  10.570   2.561  0.1334  0.1820 -0.3399
11484W        W29008  12.146   4.701   2.400 -0.1178 -0.2183  0.0369
11485W        W29009  10.876  16.783  15.160 -0.0784  0.2358  0.2116
11486W        W29010   7.887  16.411   3.757 -0.0123 -0.0605 -0.4955
11487W        W29011   9.449  18.120   4.471  0.1492  0.1576 -0.1780
11488W        W29012   5.316   5.574   4.899  0.0477  0.1741 -0.3444
11489W        W29013  12.329   0.611  15.325 -0.0708  0.2501 -0.1453
11490W        W29014   8.757   4.941   2.654  0.0178  0.0628  0.2628
11491W        W29015   4.348   5.640  12.598  0.2028 -0.0832  0.1783
11492W        W29016   8.198   1.077  11.330 -0.2333  0.3150  0.0043
11493W        W29017   6.465   3.944   0.107  0.1021 -0.1723 -0.4230
11494W        W29018   9.340   1.439  14.960  0.1229 -0.2913 -0.2612
11495W        W29019  10.173   7.035   2.794 -0.1578  0.1777 -0.0291
11496W        W29020  10.856  13.053   2.539  0.1014  0.0624  0.0588
11497W        W29021  15.620   5.160   2.030 -0.1011 -0.0638 -0.1860
11498W        W29022   0.624   4.062  15.187 -0.0957 -0.1447 -0.2060
11499W        W29023  11.717   1.730  13.838  0.0223  0.0968 -0.1051
11500W        W29024  14.980  16.841   0.928 -0.1480  0.2082 -0.1019
11501W        W29025  10.203  12.296  11.996  0.0804  0.0403  0.0724
11502W        W29026   4.219  17.428  14.855  0.0673  0.2359 -0.2910
11503W        W29027   7.705   3.190   2.398  0.1602 -0.0315  0.3382
11504W        W29028   0.271   7.584   0.378  0.0309 -0.3602 -0.0003
11505W        W29029  11.124   5.111  10.712 -0.2525 -0.4073  0.1077
11506W        W29030   8.533  13.001   3.002 -0.0384 -0.2882 -0.2818
11507W        W29031   8.488   3.057  13.464  0.0068 -0.0305 -0.0134
11508W        W29032  14.003  11.990  15.153  0.0890  0.0357 -0.2889
11509W        W29033   7.812   4.227   2.986 -0.2969  0.6004 -0.0724
11510W        W29034  16.273   4.455   3.869 -0.0238 -0.3052 -0.2075
11511W        W29035  14.368  16.655  11.417 -0.0156 -0.1217 -0.0137
11512W        W29036   3.450  17.587   1.164 -0.1926  0.1115  0.1126
11513W        W29037  10.269   4.606  15.543 -0.1468 -0.3477  0.0811
11514W        W29038   0.580   7.934  14.494  0.2153 -0.1272 -0.1692
11515W        W29039   8.140   0.637  13.537  0.1263  0.0862 -0.4440
11516W        W29040   0.382   9.269  15.993 -0.0717  0.1762  0.3020
11517W        W29041  12.554   1.507   2.979  0.1126 -0.1266  0.0344
11518W        W29042  12.375   6.189  11.577  0.2453 -0.0914  0.0837
11519W        W29043  10.902  12.969  11.804 -0.1663  0.2732  0.1356
11520W        W29044   0.586  12.221  14.178  0.0025 -0.0247 -0.0244
11521W        W29045   1.922  11.167   1.441  0.0660 -0.1494  0.2029
11522W        W29046  13.109  16.182  12.530  0.0710  0.1967 -0.0751
11523W        W29047   7.951  12.318  15.424 -0.1630  0.2277 -0.0458
11524W        W29048  11.639   8.826   1.663  0.0961  0.2886 -0.2076
11525W        W29049  15.511   1.043   2.156  0.1881  0.2525 -0.2016
11526W        W29050  12.282   3.936  13.804 -0.0016  0.0268 -0.0416
11527W        W29051  12.869   0.692  15.357 -0.0508  0.2644 -0.0585
11528W        W29052  17.534  12.745  14.456 -0.0865  0.1877  0.0038
11529W        W29053  11.273  16.952   3.180 -0.0339 -0.0293 -0.2381
11530W        W29054  13.655  15.879  14.041 -0.1354 -0.0280 -0.3023
11531W        W29055   4.577   1.616   0.478 -0.0875  0.1796  0.1070
11532W        W29056  16.568  10.788  15.885 -0.1098  0.2811  0.0196
11533W        W29057   1.807   4.127  15.430  0.0360 -0.0207 -0.4059
11534W        W29058   4.279   8.091  12.366 -0.3015  0.0611  0.1052
11535W        W29059   1.000  10.387   3.207 -0.0235 -0.1846  0.1161
11536W        W29060  17.237   9.788   1.572 -0.3056  0.3858 -0.2726
11537W        W29061  14.487  13.979  15.883  0.0622 -0.2012  0.0838
11538W        W29062  11.678   5.039  12.810 -0.0551 -0.1112  0.1727
11539W        W29063   3.498   9.199  13.304  0.0731  0.0331 -0.0872
11540W        W29064   6.800  17.856  15.908  0.1068  0.2662 -0.1077
11541W        W29065   0.175  13.896   3.594  0.0576  0.2637  0.2653
11542W        W29066  13.198   8.270   2.564 -0.2443 -0.2237  0.1019
11543W        W29067  17.050   3.166  15.229 -0.2884 -0.1321 -0.0001
11544W        W29068  17.626   9.292  11.540 -0.0622 -0.0454 -0.1374
11545W        W29069   9.801   7.925  13.889  0.2120  0.0073  0.0640
11546W        W29070  14.885   9.592  14.090 -0.0515 -0.1532  0.1500
11547W        W29071   3.220  10.779   3.798 -0.3460 -0.1165  0.3753
11548W        W29072  18.095   7.187   5.236 -0.3274 -0.4396  0.2426
11549W        W29073  13.215  10.276  12.506  0.0317 -0.2229 -0.0833
11550W        W29074   0.505   1.803  12.799 -0.0263  0.1765  0.0658
11551W        W29075  16.530   8.424   6.325  0.3549  0.4392 -0.1142
11552W        W29076  16.448  12.632   5.830 -0.3005 -0.1176  0.1232
11553W        W29077   4.444  17.998  13.960 -0.2776  0.0152  0.2779
11554W        W29078  16.329   6.067  13.275 -0.0890 -0.1413 -0.4665
11555W        W29079   9.690   1.301  14.049  0.0504  0.1526  0.1797
11556W        W29080   4.620   9.571  13.238  0.2848 -0.0793  0.0858
11557W        W29081   8.281   5.852  13.813  0.2473 -0.1163  0.0326
11558W        W29082   6.947  16.753   1.495 -0.0695 -0.1461 -0.0636
11559W        W29083   8.331  12.951   1.400 -0.0810 -0.0801  0.0231
11560W        W29084  10.964  10.013  11.936  0.1900 -0.1437 -0.1853
11561W        W29085  13.621  14.663   4.262  0.0898 -0.0134  0.0047
11562W        W29086  17.606  16.503   1.526  0.3578 -0.1736 -0.1632
11563W        W29087   5.011  15.302  14.448 -0.2348  0.1882 -0.2995
11564W        W29088   3.859  15.731   4.090 -0.1442 -0.0767  0.1498
11565W        W29089  11.239   9.338  11.320 -0.5128  0.1537  0.1284
11566W        W29090  16.665   0.697   0.924 -0.0471 -0.2467 -0.0006
11567W        W29091   6.231   5.731  11.093  0.1382 -0.6005 -0.1974
11568W        W29092  14.338   7.671   2.665 -0.1452 -0.1004 -0.2835
11569W        W29093  15.777  11.343  15.050 -0.0551 -0.1472  0.1467
11570W        W29094   5.179   3.836   2.173 -0.1517  0.0058  0.0055
11571W        W29095  15.242   0.343  16.036 -0.2741  0.0557 -0.3073
11572W        W29096   9.650  14.058   0.485 -0.3944  0.1157  0.3007
11573W        W29097  10.378  15.993   3.163 -0.2808 -0.2395  0.0727
11574W        W29098  15.222  16.427   2.832 -0.0948 -0.4074 -0.3334
11575W        W29099   3.490   9.855   0.629 -0.0072 -0.1726  0.0827
11576W        W29100   8.665   3.198   3.504  0.1318  0.0107  0.3389
11577W        W29101  13.021   9.140  14.738  0.0464  0.1045  0.3802
11578W        W29102   9.338  10.975   2.039 -0.0231 -0.0105  0.0869
11579W        W29103   1.720   7.966  12.593  0.0256 -0.2570  0.4534
11580W        W29104   1.662   8.541   0.044  0.1042 -0.0988  0.2410
11581W        W29105   3.673  11.017   3.839 -0.2248 -0.2833 -0.1157
11582W        W29106  11.617   7.610   0.184 -0.1152  0.0039 -0.3040
11583W        W29107   6.713   0.457  11.771  0.0473 -0.2015  0.2184
11584W        W29108  10.697   5.903   2.161 -0.1563  0.2918 -0.2240
11585W        W29109   2.266   6.506   0.717  0.2858  0.0543 -0.1873
11586W        W29110  13.394   8.332  15.026 -0.0473 -0.0475  0.1710
11587W        W29111   8.806   9.762   1.221  0.1847 -0.0360 -0.2799
11588W        W29112  14.879   3.786   4.948 -0.2223 -0.0827 -0.0508
11589W        W29113   4.718   7.835   1.713  0.1503  0.0692 -0.0098
11590W        W29114   7.408   5.434   0.215 -0.1884 -0.0386 -0.0699
11591W        W29115   9.076   4.779   3.615 -0.2120  0.1297  0.2365
11592W        W29116  18.058  11.036   5.298  0.1429  0.1261  0.1004
11593W        W29117   8.376  14.612   2.075  0.1264  0.0099 -0.0124
11594W        W29118   6.410   2.162   0.152 -0.2246  0.0469  0.3116
11595W        W29119  11.574  15.438  13.307 -0.2200 -0.0564  0.0609
11596W        W29120   9.067   3.018  11.234 -0.1545  0.1043 -0.2163
11597W        W29121   7.190   4.151  13.299  0.0195 -0.2569  0.2325
11598W        W29122   6.099  16.739  10.868  0.2454  0.1324  0.1636
11599W        W29123  12.882   4.455  15.819 -0.1718  0.0871 -0.0310
11600W        W29124   7.230   6.419   1.959  0.1123  0.0735 -0.0769
11601W        W29125   4.326  13.492   1.863  0.3870 -0.2476  0.0673
11602W        W29126  12.362   5.067  11.205 -0.1337 -0.1188 -0.1793
11603W        W29127   7.191   6.012  15.476 -0.3191 -0.0912 -0.2473
11604W        W29128   2.071   8.860   3.080 -0.1361  0.1567 -0.2747
11605W        W29129   6.070  14.732   6.097  0.1608 -0.1147  0.2470
11606W        W29130   3.596   0.611   3.826 -0.0450  0.0869 -0.1249
11607W        W29131   8.487   9.806  13.953 -0.2494 -0.1014 -0.4433
11608W        W29132  12.345   5.042  14.519  0.2805 -0.2019  0.0168
11609W        W29133  14.514   1.405   2.316  0.2779 -0.2610 -0.2092
11610W        W29134  16.562  10.156  11.255 -0.3388  0.0305  0.3159
11611W        W29135   3.169  15.231  12.748  0.0674  0.1884  0.0072
11612W        W29136  10.483   1.761   3.915  0.0407  0.0221  0.0999
11613W        W29137   7.611  16.716  15.715  0.0301 -0.0571  0.2767
11614W        W29138   3.430  13.266   0.215  0.0407 -0.2823 -0.0183
11615W        W29139  15.918  17.416   0.015 -0.0336  0.2692 -0.0914
11616W        W29140   6.959   7.611  14.322  0.3523 -0.0421  0.0096
11617W        W29141   6.866  10.058   4.254 -0.0038 -0.0215 -0.0430
11618W        W29142   9.166  13.195   1.111  0.2719 -0.0262  0.0308
11619W        W29143   4.638  17.109   0.557 -0.1896 -0.2112  0.1098
11620W        W29144   5.441  13.714   3.253 -0.3007  0.2114 -0.1634
11621W        W29145  12.288   0.420   3.993  0.3331 -0.0339 -0.0284
11622W        W29146   6.555   5.507  12.933 -0.0392 -0.0216 -0.0565
11623W        W29147   8.280   5.699   0.115 -0.0899 -0.1784 -0.1179
11624W        W29148   2.172  10.317  15.260  0.2584  0.1231  0.1383
11625W        W29149   3.733   3.621   0.200  0.0025 -0.0420 -0.0001
11626W        W29150   1.871   7.193  11.159  0.0860 -0.1678 -0.1606
11627W        W29151  16.995  17.429   0.163 -0.1660  0.1493 -0.5072
11628W        W29152   5.571   5.947  11.360 -0.1224  0.2630 -0.0563
11629W        W29153  11.237  17.953   1.443  0.1188  0.0136  0.0392
11630W        W29154   3.064   7.381   1.392 -0.0589 -0.3909 -0.0503
11631W        W29155   2.389   8.156  11.413  0.1275  0.0851 -0.0860
11632W        W29156  17.629  15.499  15.876  0.2734  0.0386  0.3010
11633W        W29157   8.408   6.757  11.111 -0.3201  0.1620 -0.0548
11634W        W29158  14.063   7.065   5.217  0.2081  0.0253  0.1073
11635W        W29159   5.074   3.893  12.500  0.0384  0.0693  0.1095
11636W        W29160  14.893   7.540  13.090 -0.0275 -0.2395  0.0816
11637W        W29161   0.131   7.537   2.540 -0.0444 -0.0428  0.3622
11638W        W29162   3.719   5.600  15.973  0.1342  0.0568 -0.1328
11639W        W29163   3.231  16.555   4.436 -0.4104 -0.3540  0.2051
11640W        W29164   3.077  10.349  15.159  0.0417  0.4242  0.2628
11641W        W29165   4.812   6.948  12.394 -0.2654  0.2412 -0.0974
11642W        W29166  17.607  14.414   2.862  0.1962  0.1613 -0.0151
11643W        W29167  16.309   6.244   2.796 -0.1159 -0.0465  0.2259
11644W        W29168  15.515   0.091   1.124 -0.0036  0.0222  0.1399
11645W        W29169   5.857  15.001   2.869  0.0702  0.2022  0.1846
11646W        W29170  12.060  17.472  12.422 -0.2775 -0.1816 -0.1475
11647W        W29171   8.123   7.734   1.914  0.4408 -0.0402 -0.0999
11648W        W29172  13.757   9.250  15.434 -0.2032  0.0424  0.1747
11649W        W29173  14.656  12.539   1.510 -0.2784  0.0027 -0.4849
11650W        W29174   7.854   1.564   2.531 -0.1695 -0.0353  0.4199
11651W        W29175  18.121   1.907  11.909 -0.1147 -0.0064  0.0886
11652W        W29176  12.637   0.058  14.095  0.4062 -0.0230 -0.3822
11653W        W29177   9.088   6.642  11.993 -0.2062 -0.0736 -0.1426
11654W        W29178   6.683  13.748  14.417  0.0360 -0.5150  0.3130
11655W        W29179  11.282   1.886  13.188  0.0530 -0.0279 -0.0212
11656W        W29180   7.505  13.678   2.510  0.0682  0.0201  0.1239
11657W        W29181  13.472   5.051  13.679  0.0155  0.3347  0.0782
11658W        W29182   6.268  11.481  11.028 -0.0352  0.0233  0.4073
11659W        W29183   2.888   2.865  13.002  0.1272  0.1809  0.1661
11660W        W29184   2.595  13.743  13.117  0.0929  0.2421 -0.0550
11661W        W29185   0.227   3.071  15.906 -0.0542 -0.3004 -0.1997
11662W        W29186   3.915   9.968  12.154 -0.0329  0.0612 -0.0987
11663W        W29187  12.309  15.262   0.797  0.0883  0.1685  0.0219
11664W        W29188   7.914   6.139   0.670  0.1248 -0.1110 -0.0076
11665W        W29189  10.597   6.869  14.894 -0.0276  0.0805  0.0386
11666W        W29190   3.181   5.403   1.099 -0.1729  0.1367 -0.0164
11667W        W29191  13.153   9.598  14.877  0.0317 -0.0036  0.0702
11668W        W29192   6.884  14.864  13.998 -0.2309 -0.0455 -0.0913
11669W        W29193   2.643   9.011  12.511 -0.0313 -0.1778  0.0153
11670W        W29194   4.320  11.881   4.225 -0.2026 -0.0979 -0.0868
11671W        W29195   8.960   1.115  14.957  0.0466 -0.1995 -0.1766
11672W        W29196  15.336   5.994  11.034 -0.1595  0.1101  0.2182
11673W        W29197  11.584  16.455  11.620  0.0441 -0.0444 -0.0146
11674W        W29198   3.174  11.704   3.884 -0.0252 -0.1823 -0.2060
11675W        W29199   1.886   8.360  10.748  0.0732  0.0229 -0.1233
11676W        W29200   3.677   6.918   3.346 -0.0562  0.1809  0.1967
11677W        W29201   0.559  10.503   4.946 -0.0368 -0.1428 -0.2378
11678W        W29202  11.144  15.497  12.934  0.3106  0.3010  0.0900
11679W        W29203   1.944  14.377  11.902  0.0872 -0.0053 -0.1965
11680W        W29204  15.119   0.583  13.605 -0.1208  0.0559  0.0167
11681W        W29205   8.077   2.832   1.552 -0.2605  0.2818  0.2074
11682W        W29206  12.297  15.223  13.322  0.0998  0.1122 -0.0688
11683W        W29207  11.518   0.482   4.160  0.0095 -0.3313 -0.2830
11684W        W29208   6.062  13.519   5.955  0.0813 -0.0183 -0.0668
11685W        W29209  12.857  15.733   3.132 -0.0218  0.3141 -0.0499
11686W        W29210  11.557  15.869  16.026  0.0281  0.0704  0.0094
11687W        W29211  17.419   8.362   0.029 -0.0948  0.1694  0.1673
11688W        W29212  15.997  17.135   1.615 -0.0821 -0.0452  0.0905
11689W        W29213   8.825  13.469  11.261 -0.1076  0.3379  0.1220
11690W        W29214   0.640  10.697   1.890 -0.1481 -0.2731  0.2133
11691W        W29215  12.692  12.371  13.068  0.0305  0.0150  0.0527
11692W        W29216   2.977   0.088  13.959  0.0819 -0.2253  0.1629
11693W        W29217  16.003  12.220   2.134  0.0280  0.0936  0.3105
11694W        W29218  11.956  14.931   2.581 -0.2042 -0.3089  0.3788
11695W        W29219  10.706   8.336   1.562 -0.1635  0.2382  0.0060
11696W        W29220   7.637  17.138  15.247  0.4120  0.1025  0.0220
11697W        W29221  10.881  15.936   4.635  0.0902  0.0133 -0.1272
11698W        W29222   5.876  16.833  14.872  0.0766 -0.0851  0.0684
11699W        W29223  11.859  12.920   3.538 -0.1185  0.0541 -0.0392
11700W        W29224   9.651   6.589   3.339 -0.2568  0.4218  0.1344
11701W        W29225  10.690  14.902   0.446 -0.0018  0.1041  0.1582
11702W        W29226   4.701  15.628   2.268 -0.0488  0.1964  0.2735
11703W        W29227   1.169  13.761   1.249 -0.0260  0.1592  0.0126
11704W        W29228   3.550  11.676   4.943  0.0266 -0.0653  0.2776
11705W        W29229  16.783   6.740  14.582  0.2175  0.1726 -0.0076
11706W        W29230   9.794   0.995  12.663  0.0081 -0.2084 -0.0439
11707W        W29231  14.394   7.272  13.855  0.0020  0.2877  0.1698
11708W        W29232  12.506   9.479   4.913  0.4284 -0.0918  0.1433
11709W        W29233   1.655  13.406   3.710 -0.0756  0.3285 -0.1832
11710W        W29234   5.336  14.453   0.772 -0.0758  0.0967  0.0499
11711W        W29235   4.005  17.943  14.178  0.0081 -0.0196  0.0045
11712W        W29236   2.999  12.829   4.259  0.2986 -0.0174 -0.2294
11713W        W29237   3.350   5.104  11.833 -0.2335 -0.2589 -0.0027
11714W        W29238  14.314   3.646   0.400  0.1584 -0.1617  0.4148
11715W        W29239   5.279   1.436  15.816  0.0543 -0.0314 -0.0115
11716W        W29240   8.199   2.482  14.310 -0.0216 -0.2227  0.3795
11717W        W29241  13.020  11.989  11.226 -0.2496 -0.2334 -0.0560
11718W        W29242   1.652   7.759  15.690  0.1864  0.1891 -0.0730
11719W        W29243  10.327   2.542  14.038  0.2547 -0.0696 -0.0847
11720W        W29244  16.327  15.875  15.450 -0.1266 -0.0370  0.0590
11721W        W29245  15.373  16.184   4.561 -0.0645  0.0134  0.0279
11722W        W29246  16.359   9.644  15.128  0.0511 -0.1216 -0.1777
11723W        W29247   9.027  13.806   2.957 -0.2401 -0.0993  0.2548
11724W        W29248   7.931   6.163  14.754 -0.3714  0.0306  0.1330
11725W        W29249   7.091  17.039  11.376 -0.0963 -0.0211  0.1340
11726W        W29250   5.463   9.125   4.205 -0.0199 -0.3839 -0.0891
11727W        W29251   5.224  12.838   1.203 -0.1532 -0.0995 -0.1050
11728W        W29252   4.221   8.660   2.295 -0.1738 -0.2465  0.0540
11729W        W29253   9.112   1.082  11.978  0.0609  0.1480 -0.0924
11730W        W29254  12.863  13.372   2.601 -0.2365 -0.0962 -0.2095
11731W        W29255   6.542  17.433   4.396  0.2020 -0.1056  0.2706
11732W        W29256   7.322   2.796  13.356  0.0065  0.2713 -0.5601
11733W        W29257   5.177  17.213  15.925  0.1327  0.0094  0.1891
11734W        W29258  14.437   5.462  10.761 -0.0741  0.0239 -0.0023
11735W        W29259   5.002  18.165  15.599  0.1708  0.2116 -0.1489
11736W        W29260   5.681  15.786  14.944  0.0781  0.2586  0.3049
11737W        W29261  10.587  12.252   3.020  0.1677  0.1835 -0.0834
11738W        W29262   2.078  17.164  14.350  0.0886 -0.1268  0.0648
11739W        W29263  11.188   0.146  11.068  0.0088  0.1189  0.3652
11740W        W29264   3.405   3.023   3.115  0.0186 -0.0839  0.0507
11741W        W29265   9.061  17.872   2.934  0.1739 -0.0265  0.4480
11742W        W29266  12.001  17.095   0.542  0.0857  0.0813  0.1479
11743W        W29267   5.592  12.707  11.649 -0.2236  0.2499 -0.0864
11744W        W29268   3.058  10.963   1.367  0.0562  0.0717 -0.0669
11745W        W29269   9.095  11.206   1.581 -0.0379 -0.1569  0.1544
11746W        W29270  11.341   9.437  13.044 -0.1821 -0.0541  0.0853
11747W        W29271  15.523  12.308   3.510  0.1092 -0.1350 -0.3705
11748W        W29272   1.602   2.200  13.798  0.0616  0.1564  0.0443
11749W        W29273   5.060   1.549   3.636 -0.2073  0.2439 -0.2317
11750W        W29274  17.667   0.601   0.628  0.0039  0.0035  0.0299
11751W        W29275   2.132   2.176   4.394 -0.2907  0.0226 -0.3198
11752W        W29276  14.307   6.267  14.254 -0.0218  0.0338  0.1847
11753W        W29277  13.484  15.501   0.507  0.3228  0.1046 -0.0842
11754W        W29278  12.997  11.815  13.612 -0.0259 -0.3202  0.1084
11755W        W29279   7.781   9.632  11.345 -0.0517  0.0350 -0.0888
11756W        W29280   1.625  10.504   4.870 -0.0742  0.0181 -0.0743
11757W        W29281   2.588   4.187   2.679  0.2431  0.1799 -0.2449
11758W        W29282  15.083   9.759  13.588 -0.3694 -0.1557 -0.3507
11759W        W29283   3.723   2.918  14.724 -0.0932 -0.0815 -0.0359
11760W        W29284  16.718  11.112   1.901  0.3038 -0.0891  0.1210
11761W        W29285  10.856   6.017  15.563 -0.1515  0.0789 -0.0006
11762W        W29286   2.501   2.215  14.397  0.0981 -0.0202  0.1247
11763W        W29287   6.731  13.501  11.658  0.0602  0.1488 -0.1561
11764W        W29288   6.135  11.488  11.633 -0.1512  0.2958 -0.0803
11765W        W29289   6.141  12.597   3.386  0.1512  0.5219  0.1620
11766W        W29290   5.952  14.783   4.494  0.3296  0.0869 -0.2506
11767W        W29291  13.248   2.648   2.599  0.2452  0.0491  0.0680
11768W        W29292   0.002   6.737   2.739 -0.2830  0.2477 -0.1234
11769W        W29293  13.324   3.128   0.980  0.0695 -0.1907  0.2243
11770W        W29294   1.837   7.613   0.028 -0.0758 -0.1984 -0.0169
11771W        W29295  11.394  12.341  14.515 -0.4796  0.2946  0.0845
11772W        W29296  13.322   6.987  13.705 -0.3033 -0.1860 -0.1955
11773W        W29297  17.222  15.706   3.760  0.0063  0.2238 -0.1318
11774W        W29298  11.823  16.281  13.111 -0.0765  0.2466 -0.3840
11775W        W29299   4.256   9.414   4.973 -0.3220 -0.3010  0.0021
11776W        W29300   3.156   8.444   2.205  0.0953  0.0694  0.0928
11777W        W29301  14.664   2.618  12.818  0.1429  0.1590  0.3620
11778W        W29302  13.349   9.686   0.243 -0.3032 -0.2107 -0.1529
11779W        W29303   5.529  11.170   3.987 -0.2344 -0.0193 -0.0905
11780W        W29304  17.592  16.076   1.737  0.2260 -0.0810 -0.1408
11781W        W29305  10.200  12.224  15.967 -0.1045  0.1181  0.1687
11782W        W29306   9.066  13.068   2.922  0.0477  0.1292  0.1968
11783W        W29307   4.821   5.576   3.406 -0.0646 -0.1864 -0.5865
11784W        W29308   7.397   7.256   3.968  0.0344 -0.2221  0.0657
11785W        W29309  12.502  16.784   2.390  0.1246  0.1276 -0.0296
11786W        W29310   8.024  16.128   4.260  0.1666 -0.0901 -0.0334
11787W        W29311   7.726   8.451  14.596  0.0516  0.0953 -0.0690
11788W        W29312  12.536   7.810  12.140  0.0999 -0.1026 -0.0059
11789W        W29313  12.225  13.693   2.217 -0.1231  0.0923 -0.1038
11790W        W29314  10.591   5.165   5.317 -0.1943  0.1390 -0.0519
11791W        W29315  10.078   3.540  14.845 -0.0962  0.2871 -0.1243
11792W        W29316   9.226  17.808  13.973 -0.0302  0.2439 -0.2269
11793W        W29317   5.170   6.728  11.578 -0.2005  0.1207 -0.0193
11794W        W29318  15.018   7.534   3.865 -0.1213  0.2169 -0.3015
11795W        W29319  10.017   2.376   1.362 -0.3682  0.3762  0.1512
11796W        W29320   3.787  12.889   5.335 -0.0095 -0.0860  0.1330
11797W        W29321  11.798   2.112   1.594  0.1341  0.1298  0.1866
11798W        W29322  17.915   1.577  12.369 -0.0347  0.0106 -0.3494
11799W        W29323   1.811   6.731  14.164  0.0922  0.0880 -0.0710
11800W        W29324   4.240   9.696  10.783 -0.2516 -0.0800  0.1046
11801W        W29325  12.062  16.928  11.257  0.5251 -0.1713  0.0932
11802W        W29326   6.264  12.337   1.680  0.1500 -0.1385 -0.0907
11803W        W29327   7.555  18.113   2.654  0.0696 -0.4481 -0.0358
11804W        W29328  18.072   5.835  13.358  0.0890 -0.2152  0.1104
11805W        W29329  12.243   4.253  11.994 -0.3188 -0.0683 -0.3445
11806W        W29330  17.142  12.570   3.084 -0.1119  0.1767 -0.0515
11807W        W29331   3.942   2.259   2.211 -0.1715  0.0084 -0.1118
11808W        W29332  14.113   3.943   2.413  0.0198 -0.1209 -0.2244
11809W        W29333   8.158   9.377   2.929 -0.1228 -0.0129  0.0413
11810W        W29334   2.110  10.580  15.699 -0.0856  0.1659 -0.2617
11811W        W29335  15.844   7.745  15.772 -0.0782 -0.1622  0.2280
11812W        W29336  16.544   8.003   3.205  0.1049 -0.0783  0.1857
11813W        W29337  15.991  12.486  12.124 -0.0326 -0.1876 -0.1550
11814W        W29338   6.632   9.085  11.184 -0.1495  0.0479 -0.0498
11815W        W29339   7.618  17.169  10.686  0.3683 -0.0174 -0.1970
11816W        W29340   2.260  13.253   3.695 -0.1631  0.2471 -0.1029
11817W        W29341  17.957  13.537  15.516 -0.2590  0.1470 -0.2006
11818W        W29342  14.560   8.041  11.642  0.2785  0.1157 -0.0337
11819W        W29343   6.547   4.473   3.260  0.0884 -0.1210  0.0170
11820W        W29344   1.091   9.267   1.593  0.2696  0.0814  0.1639
11821W        W29345   7.140   0.982   0.391 -0.1667  0.0849 -0.1657
11822W        W29346  17.609   6.970  14.525 -0.2041 -0.0535  0.4922
11823W        W29347   3.404   2.952  11.258  0.3767  0.1013  0.1322
11824W        W29348   8.316   0.226  13.309  0.0917 -0.0400 -0.0349
11825W        W29349  11.872   9.045  13.666  0.2381  0.1449  0.2511
11826W        W29350   1.731   5.605   3.821 -0.1337 -0.0037  0.2719
11827W        W29351  15.388  17.966   1.496  0.0590 -0.1347 -0.1088
11828W        W29352  16.454  11.374  15.777 -0.1681  0.0642 -0.2594
11829W        W29353  11.392   7.344   1.841  0.1095  0.1153 -0.0670
11830W        W29354   6.735  16.262   3.307  0.3733 -0.1456 -0.2372
11831W        W29355  13.317  17.391   0.567 -0.0570 -0.2957 -0.1008
11832W        W29356   5.500   0.234   3.372 -0.1652 -0.1300 -0.1083
11833W        W29357   1.593  10.977   4.617 -0.4001  0.0892  0.2163
11834W        W29358   3.772  13.000  14.368 -0.0520  0.1422  0.0560
11835W        W29359   7.477  16.653   3.915 -0.0295 -0.1153  0.1021
11836W        W29360   6.680  10.525  14.397  0.1061  0.1309 -0.1435
11837W        W29361   6.493   2.247  15.357 -0.1036  0.0088  0.0818
11838W        W29362   0.174  16.283  14.445  0.3478  0.0241 -0.0664
11839W        W29363   9.764   2.909  15.390  0.1937 -0.4934 -0.4225
11840W        W29364  13.403  11.833  13.891  0.2968  0.2874  0.0859
11841W        W29365  14.210   3.877   4.347  0.1782  0.1244 -0.0552
11842W        W29366   8.621   6.090   1.104 -0.1168  0.1169 -0.2486
11843W        W29367   3.591  11.612  11.217 -0.0546  0.0660  0.2676
11844W        W29368   7.036  10.425   1.981  0.1503 -0.1647  0.2099
11845W        W29369  13.126   0.992   1.804  0.0226  0.2659  0.0952
11846W        W29370   2.351   3.949  14.518  0.0545 -0.1513 -0.1458
11847W        W29371   1.161  12.301   3.406 -0.2490  0.1735  0.1620
11848W        W29372   1.045  18.038   3.374 -0.1974 -0.0269  0.1637
11849W        W29373   0.688  17.171  11.891 -0.2888 -0.0170 -0.0967
11850W        W29374  10.425  10.384  14.158  0.0234 -0.0580  0.2819
11851W        W29375   6.091   7.600  11.714 -0.1441  0.2458 -0.3444
11852W        W29376   5.133   2.517  11.562  0.0600  0.1133  0.1795
11853W        W29377   8.896   9.817  13.700  0.3167  0.2666 -0.0515
11854W        W29378  14.113   7.300   2.982  0.0367 -0.1764  0.2143
11855W        W29379   0.999  14.474   5.289 -0.3289 -0.1531 -0.1241
11856W        W29380   6.517  12.160  11.841 -0.1396 -0.4689  0.1871
11857W        W29381  13.279  17.010  13.720 -0.1140 -0.0703  0.2561
11858W        W29382  11.552  10.564   1.699 -0.2082  0.0267 -0.2243
11859W        W29383  16.183  10.566  11.316 -0.0526  0.0224 -0.0244
11860W        W29384  13.853   5.658  15.338  0.0992 -0.0379 -0.3972
11861W        W29385  17.748  15.581  14.432 -0.1289  0.0528 -0.0995
11862W        W29386  11.511   1.880  10.802  0.1118 -0.0108  0.0739
11863W        W29387   1.682   8.398  12.085 -0.3393 -0.1163 -0.0507
11864W        W29388   3.968   1.191  11.254 -0.1557 -0.0298 -0.0224
11865W        W29389   8.825   8.757  13.909  0.0138 -0.3110  0.1676
11866W        W29390   8.262  11.813  14.077  0.2353  0.0418 -0.1463
11867W        W29391  17.778   7.646  13.847 -0.1142  0.5028  0.1833
11868W        W29392  14.687   2.926  13.652  0.1111  0.2773 -0.0480
11869W        W29393   7.329  11.899  11.605 -0.4281 -0.0644  0.0181
11870W        W29394   3.554   2.262   3.776  0.1572  0.2315  0.0961
11871W        W29395   3.135   6.815  13.901 -0.0734  0.1109  0.1332
11872W        W29396   5.067  11.601  11.203 -0.1773  0.2693 -0.3168
11873W        W29397  11.125   8.218  12.097 -0.3802  0.1104  0.3176
11874W        W29398   5.152   9.794  15.838  0.0946  0.0101 -0.1089
11875W        W29399  14.849  15.917   0.069 -0.3308 -0.0704  0.0915
11876W        W29400  13.952   8.647   3.447  0.3651  0.2152 -0.1557
11877W        W29401   8.993  14.927  15.342 -0.1767 -0.0700 -0.2445
11878W        W29402  12.565  13.273  12.700 -0.2730  0.0962  0.1083
11879W        W29403  13.183  14.881   3.968 -0.1738 -0.1581 -0.0753
11880W        W29404  15.344  17.390   2.855 -0.0136 -0.0843  0.2560
11881W        W29405   9.236   1.295  15.428  0.1420 -0.1168  0.0448
11882W        W29406   0.471  13.860   0.891  0.1455  0.0943 -0.1433
11883W        W29407   5.385   3.146  12.670 -0.0903  0.0079 -0.0014
11884W        W29408   1.631  10.081   4.531 -0.1031  0.0615  0.2408
11885W        W29409   1.758  12.921   3.992 -0.0804  0.0015 -0.3163
11886W        W29410   7.145  13.268  12.917  0.1513 -0.1501  0.0080
11887W        W29411  10.021   6.588   0.111 -0.1886 -0.0304 -0.1825
11888W        W29412  12.675   0.007  12.194  0.0770  0.2599 -0.1275
11889W        W29413   7.086  16.520  13.495  0.1442 -0.0478 -0.1766
11890W        W29414  17.483  10.964   2.469 -0.0907 -0.3239 -0.1488
11891W        W29415   4.422  14.734  14.288  0.0087 -0.0786  0.1458
11892W        W29416  15.897  11.263   0.373  0.0230  0.0585 -0.0947
11893W        W29417  13.315  14.050  15.531 -0.1472 -0.1984 -0.1899
11894W        W29418  17.944  12.223  14.524  0.0042  0.3070  0.2798
11895W        W29419  11.661  12.617   5.002 -0.0919  0.2001  0.0669
11896W        W29420  11.170   0.109   1.039 -0.0516  0.2429 -0.0991
11897W        W29421   1.767  18.170   1.389 -0.1166  0.0628 -0.2413
11898W        W29422   4.058   2.025   3.814 -0.0574 -0.0866  0.0107
11899W        W29423  12.424   4.405  15.013  0.1253 -0.1949 -0.2858
11900W        W29424   0.246   4.238   1.663 -0.0631  0.0898 -0.1627
11901W        W29425  16.279  11.097  14.901 -0.0733  0.4103  0.3172
11902W        W29426   0.823   0.648  15.551 -0.0768  0.0481 -0.0537
11903W        W29427   7.988  11.327  15.418 -0.0294 -0.2326  0.1147
11904W        W29428   2.856  11.289   0.050  0.1272  0.1329  0.0435
11905W        W29429  16.874   9.313  11.791  0.1121 -0.2026 -0.1562
11906W        W29430  13.326  13.947  14.211 -0.1284  0.0862  0.0741
11907W        W29431  14.586  16.871  15.430 -0.0116  0.0456 -0.1146
11908W        W29432   2.806  16.938  11.723  0.0397 -0.0047  0.1762
11909W        W29433   3.198   8.062   4.052  0.1365 -0.0101 -0.4847
11910W        W29434   1.552   1.075  15.309  0.2062 -0.1489  0.1614
11911W        W29435   0.529  16.319  12.841  0.0256 -0.2173 -0.0569
11912W        W29436   0.129   9.213   1.999  0.0479 -0.2221  0.2298
11913W        W29437  11.818  13.270   1.123  0.0643 -0.3375  0.0136
11914W        W29438   5.741  16.454  10.672  0.2272 -0.0755  0.1331
11915W        W29439  12.575  17.447   1.696 -0.2652  0.0588  0.4149
11916W        W29440  15.692  16.178   1.378 -0.1315 -0.3107 -0.0358
11917W        W29441  13.419   1.450   1.990 -0.2073  0.1173  0.1686
11918W        W29442  16.663  17.790  15.635  0.2482 -0.0625  0.2295
11919W        W29443  16.078   0.611  12.320  0.1234 -0.3499  0.0163
11920W        W29444   9.519  11.749   1.442 -0.2413  0.2276  0.1791
11921W        W29445   7.826   2.700  13.306 -0.2551 -0.1291 -0.3741
11922W        W29446   0.231   8.674   5.391  0.1047 -0.0318 -0.0739
11923W        W29447   7.804   6.147  13.079  0.1443  0.0747 -0.1030
11924W        W29448  15.012   1.717  14.325  0.1336  0.0757 -0.1439
11925W        W29449   7.233   9.432   2.633  0.3684 -0.0197  0.1176
11926W        W29450   2.308   3.694  15.894  0.1315  0.1138 -0.0967
11927W        W29451   3.202  12.870  14.260  0.0183  0.0647  0.0427
11928W        W29452   3.641   3.444  12.737 -0.0762  0.1094 -0.0241
11929W        W29453   4.918  15.766  13.806 -0.1950 -0.1966 -0.2691
11930W        W29454   6.927   3.870  10.955 -0.2767 -0.2462 -0.0524
11931W        W29455  10.496  15.674   0.942 -0.0690  0.2477 -0.4033
11932W        W29456   6.553   7.818  13.315 -0.2057  0.0510  0.0273
11933W        W29457  14.690  13.917   5.337  0.1823  0.2763  0.2036
11934W        W29458  15.706  15.852  14.034  0.0691  0.0476 -0.2323
11935W        W29459   2.899   8.477   4.261 -0.1309 -0.1686 -0.0820
11936W        W29460   0.675   6.744  12.868  0.0846  0.0389 -0.0400
11937W        W29461  15.734   5.198   4.203 -0.0663 -0.1144 -0.1158
11938W        W29462  12.676   4.390  13.787  0.2377  0.0301 -0.0691
11939W        W29463  14.554   9.963   4.054  0.0843 -0.1438  0.4303
11940W        W29464  16.951   0.265  14.974 -0.0942 -0.1874 -0.1292
11941W        W29465  17.693  11.559  15.112  0.0697 -0.0165 -0.0036
11942W        W29466  14.455  15.982   2.726  0.1281 -0.1816 -0.0085
11943W        W29467   0.317  13.631  12.088 -0.1795  0.0358 -0.1204
11944W        W29468   5.606   0.757  12.404 -0.1138 -0.1017 -0.1473
11945W        W29469  15.822  14.331  14.124  0.0285 -0.2984 -0.2783
11946W        W29470   3.941   9.662   0.656  0.0849  0.1162 -0.2287
11947W        W29471  11.797   3.714  13.767  0.0591 -0.2526 -0.3921
11948W        W29472  11.081  12.155   2.902  0.0323 -0.1693  0.0307
11949W        W29473   2.207  17.284  12.436 -0.0743 -0.3730  0.2716
11950W        W29474  12.465   6.789   0.698 -0.0680 -0.2998 -0.1507
11951W        W29475   3.021  13.641  15.574 -0.1154 -0.0380 -0.1055
11952W        W29476  12.341  13.801   3.506  0.0446  0.3593  0.5019
11953W        W29477  10.612  11.090  11.914 -0.1876 -0.2318 -0.1221
11954W        W29478   2.522  13.850   3.140  0.1228  0.0733 -0.1523
11955W        W29479  17.720   5.357  11.906 -0.0535 -0.2193  0.4488
11956W        W29480   9.585   0.660   0.102 -0.0241 -0.0951  0.0205
11957W        W29481   9.992  13.534   4.051 -0.1152 -0.0894 -0.0799
11958W        W29482  13.670   2.261   2.748 -0.0144 -0.2150  0.3019
11959W        W29483   8.965  15.801  14.181 -0.0701 -0.2073 -0.1008
11960W        W29484   8.170  14.685   2.586 -0.0509  0.0694  0.2868
11961W        W29485   8.415  10.596   1.082  0.1353 -0.3401  0.3097
11962W        W29486   4.364   1.298  12.990  0.2219  0.1825  0.0498
11963W        W29487   0.120   7.257  10.938  0.0951 -0.1062  0.1635
11964W        W29488  10.652  14.620  13.260 -0.1655  0.0033  0.1394
11965W        W29489  15.411  17.139  11.932  0.1300 -0.0885  0.1775
11966W        W29490  11.603  17.277  12.602  0.0913 -0.3670  0.2362
11967W        W29491   4.827   6.450  13.739  0.1988 -0.0628  0.0313
11968W        W29492   3.645   9.920  12.551  0.2264  0.1139  0.0765
11969W        W29493  11.511   3.281  15.753  0.0014  0.0715  0.2982
11970W        W29494  14.499   1.906   3.050  0.0210 -0.0906  0.3670
11971W        W29495   5.709   4.550  14.686  0.0980  0.0357 -0.1895
11972W        W29496   3.268  16.808   2.693  0.2983 -0.1512 -0.0694
11973W        W29497   4.684  10.062  14.220  0.3154  0.1228 -0.1967
11974W        W29498   6.519   2.845  14.539  0.2068 -0.3263 -0.2164
11975W        W29499   3.976  11.401  10.918  0.3719  0.2854  0.0665
11976W        W29500   0.095   2.434  12.777  0.3933 -0.2765  0.1125
11977W        W29501   2.783  15.271   0.228  0.2967 -0.2593 -0.1669
11978W        W29502   6.008  14.087  14.525 -0.0353  0.0265 -0.1585
11979W        W29503  13.177   7.071  12.691  0.3148 -0.2018 -0.4212
11980W        W29504  13.014   9.300   4.733  0.0450  0.1675  0.2231
11981W        W29505  16.957  10.616  13.338 -0.0406  0.1344 -0.4956
11982W        W29506  16.984  10.536   0.167  0.0796  0.1674 -0.0285
11983W        W29507  12.698  13.674   4.363  0.5238 -0.0536 -0.0836
11984W        W29508   1.158   5.877   2.958  0.3495  0.3810 -0.2336
11985W        W29509   2.148   9.979  14.876  0.0549  0.0554  0.2718
11986W        W29510   0.957   6.796   5.172  0.0531 -0.0203  0.1674
11987W        W29511  11.900   4.108   4.063  0.4562 -0.1321  0.0095
11988W        W29512   0.686   5.885  12.450 -0.2390  0.0420 -0.1869
11989W        W29513  17.451   3.127   3.834 -0.0090 -0.0208 -0.1927
11990W        W29514  14.712   0.407  12.143  0.0097 -0.0850 -0.3256
11991W        W29515  16.143   1.495   4.481  0.0198 -0.0115 -0.3389
11992W        W29516  16.398   5.265  12.249 -0.2435  0.0634  0.1800
11993W        W29517   4.064   9.879   1.576 -0.0349 -0.1943  0.1792
11994W        W29518   7.643   5.134  15.031 -0.1680  0.3289  0.0363
11995W        W29519   5.438  13.822  13.013 -0.0183 -0.0984 -0.2665
11996W        W29520   7.800  13.741  12.780  0.0587 -0.1558  0.2048
11997W        W29521   6.940  10.600  10.520 -0.1608 -0.0174 -0.0314
11998W        W29522   3.761  14.651  15.889 -0.0976  0.0269 -0.0300
11999W        W29523   6.855   5.611  14.629 -0.2939 -0.0542  0.0734
12000W        W29524   5.930  15.492   0.065  0.1923  0.2987  0.2928
12001W        W29525   9.488   7.299   4.695 -0.2236  0.0062 -0.1573
12002W        W29526  17.067   7.560   1.481 -0.0097 -0.0361 -0.1058
12003W        W29527   0.491   6.023   4.449  0.0898  0.1583  0.0814
12004W        W29528  13.352   1.556   0.662  0.0003 -0.1345  0.2201
12005W        W29529  13.869  14.537   3.829  0.0341  0.3337  0.0515
12006W        W29530  16.302   2.896   5.532 -0.1101 -0.0307 -0.0994
12007W        W29531   5.340   8.136   4.088  0.1816  0.1236 -0.4917
12008W        W29532   5.227  13.547   0.550 -0.2819 -0.3948 -0.0330
12009W        W29533  10.966   1.435   3.181 -0.0137 -0.0314  0.1800
12010W        W29534   7.455   8.127  11.490  0.1949  0.3372  0.0392
12011W        W29535   2.137  13.045  13.535 -0.2644 -0.1849 -0.1703
12012W        W29536  12.245  18.167   4.264 -0.1918  0.2810  0.1578
12013W        W29537   1.719   7.239   4.236  0.4038  0.1975 -0.1644
12014W        W29538  10.380  15.586  12.317 -0.2556  0.0937 -0.1796
12015W        W29539   8.303  15.253  12.747  0.1385  0.2654 -0.4233
12016W        W29540  14.062  14.985   3.512  0.0622  0.2250 -0.0366
12017W        W29541   7.120  11.942  14.675  0.0340 -0.0937 -0.0005
12018W        W29542  15.673   3.524  14.988 -0.0012  0.1547  0.1965
12019W        W29543  13.665  11.669  13.105 -0.0788  0.2283 -0.1770
12020W        W29544   2.369   9.485   1.202 -0.1800 -0.0961 -0.0583
12021W        W29545   5.206   3.346  14.374  0.0940 -0.3800 -0.1243
12022W        W29546   4.720  12.744   4.086 -0.0020  0.0119 -0.1583
12023W        W29547   3.197   8.302  12.698 -0.1081 -0.5801  0.0575
12024W        W29548   4.592   6.528  10.739 -0.4069  0.0634 -0.1913
12025W        W29549   7.844  14.479   2.160 -0.0038  0.1943 -0.1004
12026W        W29550   3.573  16.170   4.444 -0.2916  0.1028 -0.0651
12027W        W29551  10.957  10.872  15.890 -0.4447  0.0899  0.4165
12028W        W29552   7.537   9.093  15.481 -0.2835  0.0665 -0.0320
12029W        W29553  13.507   7.031  13.216 -0.0157  0.0612  0.1999
12030W        W29554   5.724  12.167   0.518  0.1173  0.1391 -0.3501
12031W        W29555   6.799   7.847   3.474  0.0936  0.1044  0.2096
12032W        W29556   5.264  10.822  11.480  0.0478 -0.2372 -0.0898
12033W        W29557  12.478   9.302   2.975 -0.3939 -0.0014  0.3049
12034W        W29558   1.081   7.032  15.411 -0.4106 -0.3740 -0.4132
12035W        W29559   9.217   0.808   3.266 -0.1177 -0.3301 -0.0027
12036W        W29560   4.403  10.317  15.094 -0.0247 -0.1007 -0.1889
12037W        W29561  13.119   1.154   0.835 -0.0650 -0.4476 -0.2778
12038W        W29562   9.569   8.248   4.136 -0.3190 -0.2536  0.0890
12039W        W29563  16.021  10.733  12.279 -0.0332 -0.0258  0.0160
12040W        W29564  11.512   7.188   5.339  0.1623  0.4421  0.1792
12041W        W29565   4.783   0.631   0.165  0.2090 -0.4939  0.1099
12042W        W29566   7.219   2.715   1.223 -0.0902 -0.0066 -0.1742
12043W        W29567   9.308  12.581   2.842  0.3447  0.0015  0.1887
12044W        W29568  14.686  12.642   2.991 -0.0240 -0.1318  0.1038
12045W        W29569  10.345   7.210  14.600  0.3953  0.1766  0.0167
12046W        W29570   5.935   7.196  10.196  0.2736 -0.1049  0.2211
12047W        W29571  13.264   8.291  15.944 -0.0602 -0.0539 -0.0995
12048W        W29572   8.688  15.781   5.906 -0.3153  0.2179 -0.0147
12049W        W29573  15.310   5.091  14.366 -0.1863 -0.1165 -0.0280
12050W        W29574   7.374   2.357   4.182  0.5290 -0.2327  0.0349
12051W        W29575   9.966  13.141   2.861  0.3487  0.3173 -0.2681
12052W        W29576  11.666  10.463   4.925  0.3919 -0.1328  0.2162
12053W        W29577   1.828   0.740  14.457  0.3250  0.1438  0.0574
12054W        W29578  14.775  17.788  14.675  0.0210 -0.0954  0.2748
12055W        W29579   1.905   8.463   0.985  0.0236  0.1279  0.2330
12056W        W29580   1.493  16.451   0.514 -0.0271  0.0531  0.2195
12057W        W29581   5.314  16.421   4.480  0.1703  0.0252 -0.1167
12058W        W29582   3.073   8.238  15.948  0.0742  0.0290 -0.2607
12059W        W29583   4.284  17.068  12.766 -0.1285 -0.1659  0.2668
12060W        W29584  11.097   5.655  11.678  0.4103 -0.1479  0.2438
12061W        W29585   0.772   3.023  15.861  0.1727 -0.0356  0.0549
12062W        W29586  12.172  13.162  15.989  0.1683 -0.2187 -0.0671
12063W        W29587  10.765  11.667   4.042  0.3780 -0.1270 -0.1493
12064W        W29588  12.665   8.499   4.833  0.1404  0.1599 -0.0853
12065W        W29589  17.669  14.202  11.171 -0.1445  0.0537 -0.1326
12066W        W29590   0.911   9.054   2.874 -0.3204  0.1557  0.3984
12067W        W29591  13.108   5.027  14.885 -0.1753  0.1580  0.1780
12068W        W29592  15.143   5.113  13.917 -0.2334 -0.0157 -0.0139
12069W        W29593   3.320   7.342   1.900 -0.0581  0.0872 -0.0346
12070W        W29594  10.535   4.353   2.334 -0.2225 -0.1955 -0.3694
12071W        W29595  17.487  11.741   1.041  0.0932 -0.0269  0.2207
12072W        W29596   5.576  13.918   0.875  0.0701  0.2261 -0.0248
12073W        W29597   8.002   3.821  12.646 -0.2592 -0.0516 -0.0754
12074W        W29598   7.619   4.504  11.474 -0.1502  0.2728  0.1766
12075W        W29599   5.120  17.350   3.046  0.0128  0.1460 -0.1034
12076W        W29600  12.976  10.116   1.777 -0.0316 -0.2415  0.0303
12077W        W29601   3.056  11.255   2.708 -0.3310  0.1378  0.2681
12078W        W29602  11.779  13.680   1.972 -0.0341 -0.1707 -0.3792
12079W        W29603   5.865   6.598  15.278 -0.3394 -0.0447 -0.0565
12080W        W29604  13.681   3.167   4.965 -0.0726 -0.0670 -0.0991
12081W        W29605   8.283  16.753  16.092  0.0738  0.3217 -0.0925
12082W        W29606  13.187   3.697   1.020 -0.0683  0.0894 -0.0855
12083W        W29607   3.112  12.874   1.756 -0.0649  0.1517 -0.2605
12084W        W29608   1.534   5.358  12.032  0.0170 -0.0378  0.1153
12085W        W29609  17.756   6.663   2.457 -0.3028  0.0095 -0.1103
12086W        W29610   9.818  13.567   1.384  0.1385  0.3275 -0.0104
12087W        W29611   2.549  16.005   4.691  0.2038  0.0220 -0.2312
12088W        W29612   0.666   6.194   2.906 -0.2617 -0.0137 -0.1186
12089W        W29613  15.903  15.914  13.365  0.1067 -0.0733 -0.1348
12090W        W29614  14.675   6.037   5.453 -0.0384  0.3165 -0.2733
12091W        W29615  10.368  10.034   1.153  0.2868 -0.1827  0.0748
12092W        W29616   6.800  13.259  14.651 -0.1371  0.0493  0.1955
12093W        W29617   3.388   0.282   0.619 -0.1629  0.0602  0.0025
12094W        W29618  11.464   0.318  10.437  0.3115 -0.2050  0.0502
12095W        W29619  14.315  15.811  12.881  0.0565 -0.3732 -0.1809
12096W        W29620   8.488   0.421   2.351  0.0028  0.1281  0.0599
12097W        W29621   7.780  15.123   0.331  0.0847 -0.1806  0.2372
12098W        W29622   7.503  14.170   2.314  0.0062  0.1724  0.0843
12099W        W29623  15.827   7.849  12.174 -0.0876  0.2472  0.1832
12100W        W29624   5.161  12.429  13.024 -0.1115 -0.2304 -0.0964
12101W        W29625   1.650   1.256   0.751  0.0803 -0.1302 -0.0692
12102W        W29626   3.388  14.830   0.443  0.0233 -0.0348 -0.1602
12103W        W29627  18.166   2.648  13.313 -0.0828 -0.0823 -0.0562
12104W        W29628   9.719   9.733   3.606  0.3701  0.0339  0.4810
12105W        W29629  16.565  17.245   2.244  0.0135  0.0091  0.0432
12106W        W29630   5.934   9.379  13.852 -0.1308 -0.0007  0.1590
12107W        W29631  15.954  10.964   4.968  0.4708 -0.2362  0.0339
12108W        W29632  12.140  13.863  13.643 -0.0660  0.2275  0.1198
12109W        W29633   1.119  14.617   4.381  0.1052  0.0391 -0.1720
12110W        W29634   6.931  14.063  15.794  0.2138 -0.1324  0.1392
12111W        W29635  10.160  15.510  16.078 -0.1229 -0.1630  0.1238
12112W        W29636  16.153   9.882  12.444 -0.0682  0.1312 -0.1028
12113W        W29637  14.365  14.819  11.753 -0.0158 -0.2547  0.0849
12114W        W29638  11.380   8.319   2.819  0.0534 -0.1915 -0.1044
12115W        W29639  12.438  17.536   3.112  0.0469  0.0556  0.0245
12116W        W29640  16.807  13.917   4.860  0.0388  0.4579 -0.1383
12117W        W29641  11.465   0.764   1.411  0.0127 -0.3274  0.0984
12118W        W29642   6.392  15.923  13.588 -0.0128  0.0496 -0.1044
12119W        W29643  16.030  17.769  11.610  0.0499 -0.0990 -0.1196
12120W        W29644  13.008  10.377   4.901 -0.1137 -0.0534  0.1366
12121W        W29645   1.922   9.447  12.123  0.2574  0.0375  0.1271
12122W        W29646   1.750  10.264  15.488 -0.0068  0.3795 -0.2560
12123W        W29647  12.888  17.241   2.523 -0.2661  0.0896  0.1651
12124W        W29648   1.601   4.288   1.709 -0.1666  0.1223 -0.0853
12125W        W29649  13.402  13.673   4.376 -0.3126 -0.3366 -0.5315
12126W        W29650   7.341  13.431   0.402  0.0889 -0.0317 -0.1812
12127W        W29651   1.817   7.618   1.348  0.2400 -0.0873 -0.0221
12128W        W29652  13.178  11.094   3.883  0.0090  0.2477  0.3014
12129W        W29653   9.767   3.605  12.664 -0.0768  0.1817  0.2542
12130W        W29654   1.210   9.702   2.353  0.1329 -0.0470 -0.1900
12131W        W29655   6.642   0.182  13.002  0.2691 -0.5008  0.0706
12132W        W29656  15.684   1.529  12.302 -0.1461 -0.0534 -0.0582
12133W        W29657  18.024  12.156   2.025  0.3816  0.1432 -0.3216
12134W        W29658  15.502  11.812  13.660  0.2714  0.1301  0.2472
12135W        W29659   5.041  11.842   1.013  0.0957  0.0899  0.0074
12136W        W29660  12.574  16.775   0.035  0.1528  0.1743 -0.2425
12137W        W29661   6.863   6.126   4.301 -0.3508  0.3289  0.3531
12138W        W29662  13.241   2.330   3.085 -0.2808 -0.1236  0.0742
12139W        W29663  10.468  15.352   4.806 -0.3065 -0.0508  0.2367
12140W        W29664   1.588   9.465  14.405  0.3323 -0.0633 -0.0046
12141W        W29665   5.575   8.302  10.960  0.1290  0.1255 -0.2171
12142W        W29666   7.920   6.835  11.292 -0.1490 -0.1947 -0.0480
12143W        W29667  18.087   7.602  14.218 -0.1601  0.2770 -0.2418
12144W        W29668   3.344  10.619   0.025 -0.1357  0.0724 -0.0811
12145W        W29669   2.246  16.211   2.126 -0.1571 -0.0706  0.2008
12146W        W29670   8.962  16.498   1.211 -0.0334 -0.1070  0.1197
12147W        W29671   9.433   5.041   1.890 -0.1960  0.0005  0.1694
12148W        W29672   7.300  17.553  15.765 -0.3078 -0.2412 -0.0424
12149W        W29673   0.904   3.915   3.793  0.0063 -0.3673  0.0002
12150W        W29674   8.968   8.546  14.730  0.0481  0.1188 -0.1057
12151W        W29675   5.904  11.149   4.323 -0.1502 -0.0713 -0.0182
12152W        W29676  15.873  10.104   2.900 -0.3757  0.1327  0.0123
12153W        W29677   3.506   3.754  11.372 -0.0874 -0.0236  0.3000
12154W        W29678   9.095  11.656   3.836 -0.0863 -0.0308 -0.0278
12155W        W29679  10.282  13.340  12.165 -0.0673 -0.2013  0.2532
12156W        W29680  11.670   7.751  15.729 -0.0163 -0.0074  0.0520
12157W        W29681   1.479   0.694   0.061  0.2492 -0.1196  0.1111
12158W        W29682  11.811   4.752   4.380 -0.1645  0.1648  0.0185
12159W        W29683  17.982  11.997   0.986 -0.0486 -0.0633  0.1413
12160W        W29684  18.167   4.089  13.417 -0.1911 -0.1356 -0.1252
12161W        W29685   5.604   9.483  15.983 -0.0206  0.2398  0.1211
12162W        W29686   8.213   0.861   4.428 -0.2000 -0.2206  0.2039
12163W        W29687  17.893   8.343  13.971  0.1389 -0.2267  0.1748
12164W        W29688   8.308  18.100   0.833  0.0270 -0.2092 -0.2016
12165W        W29689  16.689  13.534  15.750  0.2626 -0.0860  0.0823
12166W        W29690  14.071   2.895  11.221  0.2536  0.2216  0.1727
12167W        W29691  17.317   3.670  15.235 -0.1244  0.0828  0.1342
12168W        W29692   7.496   9.230   4.008 -0.0954 -0.3424 -0.1055
12169W        W29693  12.920  15.209  14.085 -0.1301  0.2033 -0.3557
12170W        W29694   4.167   7.655   4.091  0.2247  0.2423 -0.0481
12171W        W29695   0.827  17.406  15.718 -0.0559  0.1957 -0.1313
12172W        W29696   1.741   8.702   1.375 -0.1210 -0.0409  0.0543
12173W        W29697   6.972  12.831   2.470  0.1324  0.0724 -0.2022
12174W        W29698  13.642   5.942   2.509 -0.2204 -0.0032 -0.2115
12175W        W29699  15.495   6.759   1.087  0.1886 -0.0122 -0.1042
12176W        W29700   6.069   3.565   1.028  0.0897 -0.0989 -0.1281
12177W        W29701   3.603  15.744  13.447  0.1861  0.1554 -0.0176
12178W        W29702  13.098   4.696   2.624 -0.1254 -0.1789  0.0752
12179W        W29703   2.916   0.252   4.454 -0.0792 -0.1392 -0.1805
12180W        W29704  16.708   3.687  12.880  0.0936 -0.0351 -0.4284
12181W        W29705   6.677   8.280  15.838 -0.3508  0.1934  0.0710
12182W        W29706   4.221   2.657   1.596  0.1147  0.0529 -0.1298
12183W        W29707   5.129   7.397   3.221 -0.0233 -0.0253  0.1136
12184W        W29708   1.780   0.854  12.801 -0.1796 -0.1497 -0.3472
12185W        W29709   1.106  16.362  13.959  0.0533 -0.2760 -0.0171
12186W        W29710   0.288  13.913   0.404  0.1977  0.0163  0.1675
12187W        W29711   9.321   9.894   1.338  0.3552 -0.0791  0.0036
12188W        W29712  11.510   1.522   3.226  0.0947 -0.0525 -0.0486
12189W        W29713  14.009  12.612  14.297 -0.0722  0.1227 -0.0455
12190W        W29714  10.987   2.504  13.475  0.0148 -0.0938 -0.1119
12191W        W29715  12.993   1.696  13.948 -0.2910 -0.0970 -0.0278
12192W        W29716  12.647  12.875  13.153  0.0658  0.1149 -0.0889
12193W        W29717   0.090  15.066  13.865  0.0183  0.3424  0.0732
12194W        W29718   3.480  17.505  12.518  0.1866  0.1945 -0.0328
12195W        W29719   0.290   6.522  13.173  0.2512  0.1003 -0.0499
12196W        W29720  10.363   6.902  15.375  0.0998 -0.0976  0.2388
12197W        W29721   5.596  13.209   2.117 -0.3729  0.1472 -0.1005
12198W        W29722   9.859   1.843  15.659  0.0909  0.1905  0.0999
12199W        W29723  14.719  10.706  14.904  0.0559  0.1558 -0.1653
12200W        W29724   1.863  16.846   4.235 -0.1916  0.2168 -0.0773
12201W        W29725   7.485  13.418   3.854  0.0442  0.0687  0.0168
12202W        W29726  12.471  17.766   2.154  0.1360  0.0537 -0.0654
12203W        W29727   3.535  17.507  11.973 -0.3252 -0.2877  0.0518
12204W        W29728   9.280   0.989  14.061  0.0455  0.3527  0.1024
12205W        W29729  12.728  14.254   2.878  0.1769 -0.2508  0.0138
12206W        W29730  13.800  15.660  10.846 -0.0442  0.0932  0.0741
12207W        W29731   4.617   7.014   1.802  0.1418 -0.3717  0.1696
12208W        W29732   7.405  12.852   0.642 -0.1764 -0.3486  0.1562
12209W        W29733  17.430  15.642  12.967 -0.3300  0.0754 -0.0001
12210W        W29734   8.215   3.038  14.206  0.0628 -0.3065 -0.0673
12211W        W29735  10.944  11.653  11.296  0.0689  0.0213  0.0710
12212W        W29736   4.118   9.030  12.510  0.1236  0.2567  0.2825
12213W        W29737  10.424  14.803   5.901 -0.1890  0.3625 -0.2708
12214W        W29738  12.293  16.000   4.430 -0.2024  0.1490 -0.0825
12215W        W29739   8.825   3.983   0.071 -0.3324  0.1448  0.0577
12216W        W29740   9.697  11.172  11.488 -0.1114 -0.2242 -0.1439
12217W        W29741  14.990   2.235   0.795  0.0304  0.0374  0.0878
12218W        W29742  13.128   0.956   3.663 -0.3679  0.3082  0.3005
12219W        W29743   3.614   6.874   2.073 -0.0074  0.0652 -0.2880
12220W        W29744   8.362   9.823   4.488  0.0903  0.0979  0.2214
12221W        W29745   4.523  11.168   3.927  0.1473  0.0998  0.1210
12222W        W29746   6.116  14.051  11.206 -0.1900 -0.0884 -0.2027
12223W        W29747  14.916   0.630   2.909  0.0143  0.0451  0.0800
12224W        W29748  10.606  17.172  11.031  0.2667 -0.0239  0.2164
12225W        W29749   0.160   6.276  13.736  0.0330 -0.1940 -0.0476
12226W        W29750   1.800   6.481   4.113  0.0844  0.0386  0.0649
12227W        W29751   5.205   8.601  11.907 -0.2804  0.0301 -0.1100
12228W        W29752   7.389   0.659   3.279  0.1464 -0.2235  0.1049
12229W        W29753  16.380  15.542   4.389 -0.1301 -0.1644  0.0265
12230W        W29754  12.743  15.499  15.015  0.3018 -0.0813  0.1167
12231W        W29755  11.071   5.802   1.773  0.0811 -0.3904  0.1339
12232W        W29756  15.554   3.295  13.878  0.0142  0.0315 -0.0930
12233W        W29757   3.632  12.186  13.793 -0.0423  0.0616 -0.0105
12234W        W29758  15.146   7.290  14.402  0.0742  0.0052 -0.0465
12235W        W29759   5.264  13.489  11.491 -0.0875 -0.0974  0.1889
12236W        W29760   3.292   7.245  13.717  0.0930 -0.0447 -0.1502
12237W        W29761  11.310   7.940  14.337 -0.0432 -0.3491 -0.0559
12238W        W29762   2.671   0.039   1.335 -0.0709 -0.1088  0.1834
12239W        W29763  13.576   3.243  14.118  0.1265  0.2253 -0.0674
12240W        W29764  17.712   2.167  13.948 -0.0751  0.2969  0.1189
12241W        W29765   9.393   8.982  13.253 -0.1261 -0.2313  0.2265
12242W        W29766  16.846   4.852  13.489 -0.0693  0.0399 -0.0336
12243W        W29767   7.985  10.607   2.612  0.0450 -0.0564  0.2210
12244W        W29768  17.232   3.577  12.668 -0.0106 -0.1984 -0.1704
12245W        W29769   7.221  13.998   4.874 -0.0978 -0.0238 -0.0351
12246W        W29770   3.449   1.178   3.620 -0.2616 -0.0760  0.1764
12247W        W29771   9.999  14.393  11.275  0.0326  0.1255  0.1207
12248W        W29772   1.766   8.496   3.869 -0.3093 -0.2595 -0.0396
12249W        W29773  14.274   2.762  15.475 -0.0073  0.0371  0.1723
12250W        W29774  13.122   3.466  12.801  0.0755  0.4586 -0.0237
12251W        W29775  11.334  14.495   0.040  0.1202 -0.1014 -0.1707
12252W        W29776  15.178  12.548  13.783 -0.0663 -0.1580  0.0047
12253W        W29777   5.036  17.990  14.806  0.0172  0.3276 -0.1342
12254W        W29778  13.526  13.333   1.878  0.4151  0.0158 -0.0477
12255W        W29779  15.515  17.150  15.201 -0.3618  0.0760 -0.2375
12256W        W29780  16.426  10.892   4.946  0.2521 -0.0134  0.0942
12257W        W29781   5.921   5.692  12.901 -0.2403 -0.0260  0.1874
12258W        W29782  14.297  12.891   2.793  0.0724 -0.0689 -0.2539
12259W        W29783  15.576  15.280   1.279  0.0518 -0.0618  0.1422
12260W        W29784  16.867   1.126  13.679  0.2833  0.2475  0.1176
12261W        W29785  15.998  12.838  12.976 -0.0258  0.1026 -0.2582
12262W        W29786   8.259  16.155  11.740 -0.0886  0.2151 -0.3058
12263W        W29787  15.909   7.366  12.077  0.0864  0.2990  0.0672
12264W        W29788   2.876   7.781   2.947 -0.1416  0.1772  0.3968
12265W        W29789   6.963   5.077  11.891  0.2017 -0.0817 -0.0852
12266W        W29790  16.161  13.732  12.967  0.2275  0.2434 -0.4572
12267W        W29791   1.919  14.434  12.434  0.2913 -0.2593 -0.3483
12268W        W29792   3.028  10.503   0.390  0.0043  0.0704 -0.2029
12269W        W29793  11.032  14.310   1.789 -0.1721  0.0756 -0.1479
12270W        W29794  15.503   3.721  12.054  0.0099 -0.0305  0.1394
12271W        W29795  11.141   0.958   3.117  0.0325  0.0585  0.2440
12272W        W29796  15.465   5.631   4.037  0.1473  0.2735  0.2346
12273W        W29797  16.600   7.197  14.693  0.0331 -0.1812  0.1431
12274W        W29798   7.540   0.069   0.379 -0.0036 -0.0060  0.0410
12275W        W29799   5.199   3.531   4.479  0.0648 -0.0348 -0.2705
12276W        W29800  17.733  11.861   0.553 -0.1412  0.1092 -0.0035
12277W        W29801   8.650   5.202   1.639  0.1243  0.2084  0.2966
12278W        W29802  10.330   1.968  14.085  0.0572  0.0165  0.0067
12279W        W29803  11.938  11.234   2.037 -0.0554  0.3194  0.0899
12280W        W29804  17.954   7.478   0.174 -0.0320  0.1495 -0.2099
12281W        W29805  13.528   9.228   4.592 -0.2633 -0.1826 -0.0124
12282W        W29806   5.236   3.267  13.169 -0.0058 -0.0237 -0.3205
12283W        W29807  12.058   6.593  14.113 -0.1712 -0.1631  0.1334
12284W        W29808   0.663   8.433   6.082 -0.0715 -0.0976 -0.1238
12285W        W29809  15.221  11.936  13.040 -0.1396 -0.3053  0.1074
12286W        W29810   3.196   9.806   3.815 -0.0104  0.0222  0.1832
12287W        W29811  15.487   9.270  15.087  0.3640 -0.0666  0.1928
12288W        W29812  16.842  16.558  12.490 -0.1583 -0.0619  0.1209
12289W        W29813   1.877   8.823   4.841  0.0842 -0.0725 -0.0859
12290W        W29814  12.275  12.032  12.255 -0.0284  0.0988 -0.1077
12291W        W29815  15.561  15.989   0.530 -0.1657 -0.1954 -0.1370
12292W        W29816  10.488  12.199  13.502 -0.1002  0.1482 -0.2228
12293W        W29817   8.568  13.834   1.852  0.0238  0.2987  0.1552
12294W        W29818   2.231   2.803   0.073  0.3042 -0.0777  0.1342
12295W        W29819   3.770  14.374   3.953  0.2157  0.2811 -0.0252
12296W        W29820   1.475  13.412   1.560  0.2799  0.1202  0.3266
12297W        W29821   7.799  14.409  15.123 -0.1913  0.0643  0.1330
12298W        W29822  12.812  15.422   3.706 -0.0487  0.0536  0.0166
12299W        W29823  12.168   5.421   1.857 -0.0327 -0.0754 -0.0340
12300W        W29824   5.257   1.814  15.387  0.2163  0.0533 -0.1477
12301W        W29825   0.690   1.259   0.132  0.0060 -0.1222  0.0483
12302W        W29826  17.410   2.001   0.153  0.3745  0.1530  0.2649
12303W        W29827  11.752   9.394   1.905 -0.1887  0.1416  0.2382
12304W        W29828  10.481   4.945  12.213 -0.0912 -0.2654  0.1148
12305W        W29829   0.664   3.093  13.390  0.0587  0.0016 -0.2374
12306W        W29830   0.831  11.673  13.923 -0.2147  0.0274  0.2419
12307W        W29831   0.454   6.082   3.802 -0.0366  0.0565 -0.0358
12308W        W29832  13.717   3.141  13.271 -0.1413  0.2460 -0.0611
12309W        W29833  10.443  13.125  15.946  0.2419 -0.1559 -0.1307
12310W        W29834   2.782   6.940  16.083 -0.0887  0.0816  0.1883
12311W        W29835  17.292  16.827   2.277 -0.0675  0.1584  0.2593
12312W        W29836   7.238  10.618   3.617 -0.0556  0.1227 -0.0044
12313W        W29837   4.833  10.118   0.516  0.3695  0.1279 -0.1347
12314W        W29838  10.468   3.678   4.127 -0.3286 -0.0488 -0.0939
12315W        W29839  11.472  11.746  12.168 -0.0419 -0.1514 -0.1234
12316W        W29840   1.418   4.141   2.246  0.1190 -0.1145 -0.0865
12317W        W29841   5.742   6.269   3.061 -0.1944  0.0049 -0.0105
12318W        W29842   3.726   7.237   2.828 -0.0725  0.3624 -0.2212
12319W        W29843   3.987   0.043  10.909  0.4062 -0.0334 -0.0530
12320W        W29844   0.127  13.526   1.200 -0.0540  0.1635 -0.1965
12321W        W29845  15.061  15.647   3.265 -0.0300 -0.1682 -0.2937
12322W        W29846   3.319   6.277   2.908 -0.0644  0.0000 -0.0936
12323W        W29847  10.680   7.729   0.324  0.1384  0.1228 -0.3445
12324W        W29848   9.094   6.999   4.412 -0.1005  0.3052  0.0455
12325W        W29849   2.133  13.518   2.804 -0.2302  0.1272 -0.1715
12326W        W29850  12.998   5.305   2.685 -0.0523  0.1616  0.1095
12327W        W29851   3.800  14.783   3.617 -0.3283  0.1097  0.0282
12328W        W29852   7.479  14.326  13.685  0.0522 -0.1841  0.2191
12329W        W29853   2.899  16.473   3.958  0.0580  0.2183 -0.1848
12330W        W29854   4.001   1.410  12.627 -0.0086 -0.0032  0.1507
12331W        W29855  14.530  14.625  13.982  0.2552 -0.1723  0.2154
12332W        W29856  16.725  17.333  15.387  0.0443  0.5790  0.1699
12333W        W29857   7.413  16.609   0.056 -0.0135  0.1524 -0.4289
12334W        W29858   7.107   6.656  14.329 -0.0525  0.2587  0.0757
12335W        W29859  15.289  14.335   3.895 -0.1882  0.1194 -0.2576
12336W        W29860   9.817  16.826  13.951 -0.0737 -0.1787 -0.0785
12337W        W29861   8.561  12.634   9.950 -0.0938 -0.1755 -0.0745
12338W        W29862  17.078   8.990   0.144  0.0981 -0.0884  0.1841
12339W        W29863   1.416   2.881   2.545  0.1112 -0.2507 -0.2183
12340W        W29864   6.330  13.463   4.256  0.2443  0.0975 -0.2186
12341W        W29865  18.059  13.090   5.069 -0.2217 -0.1420 -0.1986
12342W        W29866   5.549   0.122  13.843  0.1462  0.1093  0.2407
12343W        W29867   7.030  14.994  12.146  0.0263 -0.1872 -0.3562
12344W        W29868   7.452  18.193  14.549 -0.0879  0.0355 -0.0979
12345W        W29869  15.024   7.746  12.622  0.0545 -0.0220 -0.0475
12346W        W29870  11.288  12.844   5.361 -0.0673 -0.0703 -0.0702
12347W        W29871   4.545   5.114   2.131 -0.0233  0.0758  0.0889
12348W        W29872   6.441  11.177   3.394 -0.0940 -0.3044 -0.0186
12349W        W29873   0.410   3.053   3.905 -0.0722  0.0221 -0.0106
12350W        W29874  11.886   3.287   4.224 -0.3160  0.0651  0.1941
12351W        W29875  13.174  13.763  13.668 -0.1319  0.0447 -0.1518
12352W        W29876   1.435   2.298   1.634 -0.0100 -0.0263 -0.0529
12353W        W29877  16.554   4.355  13.387  0.1310 -0.1253 -0.0571
12354W        W29878   9.226   6.024  11.155 -0.1262 -0.1118 -0.0974
12355W        W29879  17.776  13.639   0.407 -0.1273  0.0783  0.0467
12356W        W29880   5.806  10.825   2.817 -0.1481  0.0671  0.0323
12357W        W29881  10.281  15.860   3.617 -0.1432 -0.1999 -0.1197
12358W        W29882   0.022  17.553  15.376  0.1836  0.0947 -0.0446
12359W        W29883   6.022   7.245  14.167 -0.0616 -0.1973 -0.0678
12360W        W29884  14.691   2.687  16.000 -0.1068  0.0246  0.0075
12361W        W29885  17.741  11.594  13.711 -0.0305  0.0108 -0.1427
12362W        W29886  17.927   8.243   6.447 -0.1201 -0.1212 -0.0517
12363W        W29887   7.676   8.758   1.256  0.2871  0.0710  0.3919
12364W        W29888   8.431  13.387   1.662 -0.3512 -0.0618 -0.0042
12365W        W29889   9.345   5.901  11.607  0.0180  0.0173 -0.0237
12366W        W29890  18.097  15.005   0.543  0.1529  0.1014 -0.0823
12367W        W29891   4.475   8.582  14.910 -0.2156  0.0128 -0.1789
12368W        W29892   0.145  12.254  15.440  0.1342 -0.2504  0.1075
12369W        W29893   6.402   3.012   0.332  0.4119 -0.5169 -0.1118
12370W        W29894  17.160   6.764  13.790 -0.1816 -0.0620  0.0727
12371W        W29895  13.448  14.549   2.561  0.1546 -0.3738  0.2192
12372W        W29896   5.055   9.389   2.007 -0.0417 -0.2511  0.1069
12373W        W29897  17.711  14.205  11.942 -0.0688 -0.1401  0.0853
12374W        W29898   4.364   1.652   1.273  0.0179 -0.1607 -0.2826
12375W        W29899   1.403   0.151  12.060  0.0379 -0.5320 -0.2113
12376W        W29900   4.976  14.713   1.889  0.2789  0.2954 -0.1444
12377W        W29901  16.445   8.261   2.791  0.0361  0.2317 -0.1610
12378W        W29902   6.344   2.872   2.039  0.0149  0.0350  0.3495
12379W        W29903   4.801  15.170  15.323  0.1217 -0.1141 -0.0533
12380W        W29904   4.583   6.995   0.778 -0.0513 -0.2606 -0.1137
12381W        W29905   0.380   3.831  12.701 -0.3410 -0.0642 -0.2891
12382W        W29906  12.783   2.502   2.388  0.3147 -0.0862  0.0884
12383W        W29907   8.353   9.730   3.972 -0.0149 -0.0023 -0.0831
12384W        W29908   6.357   4.944  15.209  0.3366 -0.0028 -0.1089
12385W        W29909   5.735   6.383  12.284  0.1126  0.1665  0.1806
12386W        W29910   9.025  12.729  15.980  0.0872  0.2011 -0.2942
12387W        W29911   1.516   8.411   5.686  0.2908 -0.3336 -0.0740
12388W        W29912  14.832   5.632   5.253  0.0785  0.1544 -0.1363
12389W        W29913   4.277   0.666   2.238 -0.0292 -0.0419 -0.1446
12390W        W29914   2.293   2.349  14.863 -0.1314 -0.0739  0.1640
12391W        W29915   9.183  15.186   3.454  0.0943 -0.3023 -0.4229
12392W        W29916  14.512   5.950  15.762  0.4845 -0.1744  0.2141
12393W        W29917   6.942   3.639   1.915 -0.0473 -0.4527 -0.0384
12394W        W29918  10.261  16.468  12.269  0.0428  0.0528 -0.1068
12395W        W29919   6.914   1.162  16.072  0.0804  0.1192  0.3071
12396W        W29920   2.559  16.922  11.262 -0.1244 -0.1303 -0.2249
12397W        W29921  18.126  14.271  11.484 -0.2160 -0.1757  0.2320
12398W        W29922  12.212  17.910  14.096  0.1024  0.2457  0.0944
12399W        W29923  11.642  16.598   3.175 -0.3832  0.0401 -0.0004
12400W        W29924  12.461  11.811  14.925  0.1224  0.1658 -0.0096
12401W        W29925  11.310  14.462   3.801  0.0131  0.1377  0.2817
12402W        W29926   0.236   0.356   4.870 -0.2334  0.1401 -0.0239
12403W        W29927   5.674   4.955  13.801  0.0845  0.0061 -0.0661
12404W        W29928   3.923  17.288  12.291  0.1118  0.0368  0.0439
12405W        W29929  14.196  10.466  14.657 -0.2654  0.0289 -0.0581
12406W        W29930  11.033  12.868   1.312  0.5004  0.0855 -0.1586
12407W        W29931   3.312   7.109   2.580 -0.1456 -0.0640 -0.0578
12408W        W29932   8.249   5.577  15.658 -0.0425  0.1399  0.0087
12409W        W29933  14.943   8.499   3.163 -0.1299  0.2892  0.0113
12410W        W29934   5.942   2.429   1.428  0.2416 -0.1893 -0.2549
12411W        W29935   6.017  12.865   2.044 -0.0192 -0.2903 -0.0550
12412W        W29936   4.130   4.197  15.655  0.1874  0.0352 -0.1106
12413W        W29937  14.988  16.641   3.254  0.1049 -0.3046 -0.0184
12414W        W29938  17.777  11.646   1.874  0.1417  0.3581 -0.2525
12415W        W29939  16.513  12.301   3.020 -0.1339 -0.0626 -0.0658
12416W        W29940   6.005   6.672  14.388 -0.1384 -0.0507 -0.2203
12417W        W29941  18.043  14.175   4.801 -0.1812  0.3806  0.1782
12418W        W29942   2.039  15.415  14.612 -0.1325 -0.0033  0.2450
12419W        W29943  10.553  14.788  12.762  0.2290 -0.3243  0.0683
12420W        W29944   7.739   1.999  14.916  0.3320 -0.2837 -0.3292
12421W        W29945   2.979   1.345   3.497  0.2043  0.0664  0.1542
12422W        W29946  15.645   5.199  13.968  0.0971 -0.1047  0.2373
12423W        W29947  13.007   9.404  15.881 -0.1248 -0.1948  0.2562
12424W        W29948  12.939  11.043   5.154  0.1843 -0.1151 -0.0209
12425W        W29949  17.761   8.432  15.261 -0.0915  0.0159  0.0354
12426W        W29950  10.322  12.169   1.349 -0.0022  0.0605 -0.2666
12427W        W29951  14.734  16.847   0.451 -0.2205 -0.3218 -0.1243
12428W        W29952   7.410   6.772   4.594 -0.1656 -0.2108  0.0276
12429W        W29953   1.929   0.870   1.690 -0.0341  0.1805 -0.1593
12430W        W29954  10.809  11.147   3.944 -0.0400  0.1415 -0.2338
12431W        W29955   9.707   7.073  11.202 -0.1384 -0.0881 -0.0287
12432W        W29956  14.406   3.540  13.697  0.1977 -0.3485 -0.0911
12433W        W29957  16.695  12.303  13.423 -0.2209 -0.0502  0.2379
12434W        W29958   6.265  14.810   3.456 -0.1359 -0.2376  0.0804
12435W        W29959   2.243  12.367  12.020 -0.0802 -0.2143 -0.0885
12436W        W29960   6.422   2.925  13.775 -0.2717 -0.1953  0.0826
12437W        W29961   5.600   1.812  11.242  0.2272  0.0516 -0.3228
12438W        W29962  17.791  17.030   3.886 -0.0973  0.1241 -0.1979
12439W        W29963  14.971   7.812   1.758  0.2132  0.1429 -0.2261
12440W        W29964   8.139   4.926  14.974  0.3695  0.2162 -0.1568
12441W        W29965   1.321  12.289  12.038  0.0458  0.1515  0.0584
12442W        W29966  11.509   1.869   1.280  0.2965 -0.2021  0.1710
12443W        W29967  13.448   2.358  12.133 -0.0031 -0.2545  0.3813
12444W        W29968   3.421   1.675   5.808 -0.0756  0.0514  0.3639
12445W        W29969   3.812   0.240  11.512  0.0074 -0.1003  0.0743
12446W        W29970   0.355  12.945   3.957  0.0164 -0.0406 -0.0735
12447W        W29971   8.152  10.854  14.120  0.2586  0.0886 -0.0519
12448W        W29972  16.623  15.488  11.755  0.2144  0.1315  0.1357
12449W        W29973   7.215  17.136   3.416  0.0178 -0.0784  0.1540
12450W        W29974  10.059   9.542   0.147  0.1202  0.0478 -0.1559
12451W        W29975   2.309   4.970  12.188 -0.1175 -0.2628 -0.0436
12452W        W29976   2.259  14.489   4.773 -0.0015 -0.1470  0.3694
12453W        W29977  11.818  16.148  14.267  0.1069  0.0797 -0.1057
12454W        W29978   1.723   1.734  12.976 -0.0048  0.2106  0.0669
12455W        W29979  11.875   1.203   4.000 -0.0764  0.0940 -0.1599
12456W        W29980   9.755   5.245   3.929  0.1158 -0.3093 -0.0259
12457W        W29981  11.011  10.374   3.157  0.0633  0.1096 -0.0897
12458W        W29982   6.913   3.111   1.664 -0.2577  0.1253  0.0693
12459W        W29983  14.942   4.505   5.662 -0.2001 -0.2186 -0.1967
12460W        W29984  12.241   2.177   4.466 -0.0585 -0.3424  0.5720
12461W        W29985  17.173  13.982   2.371  0.0030  0.3070 -0.1046
12462W        W29986   9.606  17.557  10.870  0.0521 -0.1265  0.0170
12463W        W29987   5.643   8.299  11.840  0.0861  0.0676  0.1111
12464W        W29988  12.426   0.442  13.464 -0.0372  0.3448  0.0976
12465W        W29989  11.975   5.957   0.253  0.0153 -0.0622  0.1329
12466W        W29990  12.815  14.049   5.139  0.0743  0.0599  0.0971
12467W        W29991  12.694   3.878  15.766  0.2813 -0.2921 -0.5294
12468W        W29992  17.208   8.026   0.414 -0.0168  0.2875 -0.0578
12469W        W29993   7.690   1.324  13.206  0.0553  0.1727 -0.2320
12470W        W29994   1.566   7.784   0.448  0.1188 -0.1827  0.1164
12471W        W29995   7.156   3.419   2.467 -0.0794  0.0368  0.0842
12472W        W29996   3.988   3.973   2.160  0.1104  0.0855 -0.2677
12473W        W29997   4.448   7.571  14.496 -0.1195 -0.1257 -0.0535
12474W        W29998   4.227   2.326  12.030 -0.0298  0.1429 -0.0458
12475W        W29999   7.374  17.356  14.903 -0.1860 -0.1041 -0.1994
12476W        W30000  13.756  13.767  12.332  0.3790 -0.0613 -0.1858
12477W        W30001   9.297   8.194  15.928 -0.0408 -0.1999 -0.3233
12478W        W30002  15.004   1.775  14.826 -0.1370  0.2099  0.0737
12479W        W30003  11.736   5.664   0.548  0.1711  0.0386 -0.0521
12480W        W30004  12.105  13.123  12.632 -0.1683  0.2626 -0.1076
12481W        W30005  13.894   3.329  10.572 -0.0246  0.1203 -0.0043
12482W        W30006   2.193  15.963  13.394 -0.1534  0.1205 -0.0907
12483W        W30007   7.204  13.254   0.911 -0.0697  0.0947  0.1041
12484W        W30008  11.799  10.943   0.011 -0.0339 -0.2634 -0.2595
12485W        W30009  17.701   3.631   2.135  0.3843 -0.0939 -0.0322
12486W        W30010   4.105   9.645   2.210  0.1847 -0.0144 -0.3150
12487W        W30011  17.198  15.113   1.774 -0.1596 -0.0693 -0.1198
12488W        W30012   6.860  14.454  15.306 -0.0627 -0.0401 -0.1739
12489W        W30013  10.419   6.980   4.824 -0.0571  0.1554 -0.0619
12490W        W30014  12.467   4.548  12.330 -0.0770  0.3671  0.1568
12491W        W30015   5.548   3.110   0.735 -0.3175 -0.1712 -0.4468
12492W        W30016  17.969  13.835   4.357  0.0945 -0.0583 -0.0095
12493W        W30017  17.386   9.544  13.995  0.2558  0.1046 -0.2613
12494W        W30018  17.429  15.951  12.116 -0.0000  0.0237  0.0278
12495W        W30019   9.200   2.020   0.022  0.1138  0.3244  0.1368
12496W        W30020   4.810   1.499   3.188 -0.1252  0.2147 -0.0609
12497W        W30021  10.784  15.408   1.911  0.1122  0.0541 -0.1509
12498W        W30022   2.570  12.574   5.768 -0.1565 -0.2397 -0.0512
12499W        W30023  14.388  16.922  12.419  0.1607  0.0411 -0.1122
12500W        W30024   2.068   6.229  12.171 -0.1173  0.0792  0.1134
12501W        W30025  11.625  18.160  12.852  0.3866  0.0960  0.2545
12502W        W30026   9.469  13.575   0.894 -0.1528  0.0807  0.1632
12503W        W30027  13.026   7.568   1.303 -0.0351  0.0122  0.0423
12504W        W30028   7.988   6.426  11.633 -0.1252  0.0507 -0.0815
12505W        W30029   3.615   5.719   5.455  0.3529  0.1002  0.2649
12506W        W30030  12.501  16.025  12.919 -0.1562 -0.2209  0.1905
12507W        W30031   5.533   3.736  11.853  0.7172 -0.2113 -0.2367
12508W        W30032  13.324   2.987   4.017 -0.3569 -0.0875  0.2311
12509W        W30033   3.845   0.273   4.068  0.0792  0.0391 -0.0252
12510W        W30034  17.800  16.610   5.184  0.1057  0.1611  0.1392
12511W        W30035   0.810  15.846  12.221  0.1491 -0.0075  0.2698
12512W        W30036  12.596  14.349  14.412  0.1056 -0.3410 -0.1225
12513W        W30037  17.599  14.347   1.074 -0.0365  0.0654 -0.0376
12514W        W30038  16.967  16.502  15.999  0.1215  0.3567 -0.2360
12515W        W30039   7.001   8.944  14.093 -0.3231 -0.0611  0.0982
12516W        W30040   9.420  17.447   1.032 -0.3480  0.3801  0.0102
12517W        W30041  16.895  10.852   1.515  0.0431  0.2201 -0.0394
12518W        W30042   4.122  18.176  15.026  0.0062  0.1521  0.0628
12519W        W30043  14.510   5.552   3.176  0.1107  0.2715 -0.1030
12520W        W30044  17.000   1.815   0.514  0.0114  0.0329 -0.0780
12521W        W30045  10.862  13.344   0.703 -0.0285 -0.0006 -0.1308
12522W        W30046   9.829   8.463  15.894  0.0191  0.0977 -0.1340
12523W        W30047   1.271  13.789   0.414 -0.0577 -0.1614 -0.2724
12524W        W30048   7.305  14.712   3.541  0.1294  0.1126 -0.5694
12525W        W30049   2.861   0.636  13.030  0.2286 -0.0387 -0.3247
12526W        W30050   5.586   5.794  13.990 -0.0524 -0.2058  0.6182
12527W        W30051  15.553  14.340   0.215 -0.0549 -0.3626  0.3529
12528W        W30052   2.353  17.800   3.245 -0.0747  0.2991 -0.2092
12529W        W30053  17.003   6.206  14.643 -0.0465  0.1392  0.1745
12530W        W30054   3.833  11.036   0.703  0.2634 -0.1356  0.0653
12531W        W30055  10.600  15.822   1.433 -0.2110  0.1616  0.4048
12532W        W30056  12.734  10.292   3.473 -0.1350 -0.0222 -0.0377
12533W        W30057   7.398  15.385  14.263 -0.0748  0.0097  0.0885
12534W        W30058   5.121   7.983   3.207 -0.1526 -0.1679 -0.1285
12535W        W30059  11.159  15.883  11.102  0.1736 -0.1552  0.4289
12536W        W30060  12.285   3.268   4.542 -0.0565  0.0555  0.0075
12537W        W30061   8.464   7.909  15.842  0.3716 -0.2011 -0.0999
12538W        W30062  12.506   4.304   1.108  0.1661 -0.1830 -0.0618
12539W        W30063  10.710  11.670  15.843 -0.1144 -0.0219  0.0363
12540W        W30064  12.332   9.057  14.507  0.3495 -0.1016  0.1582
12541W        W30065   9.992   0.543   0.839  0.0207 -0.1380 -0.7715
12542W        W30066   6.425  10.862  12.330 -0.1990  0.1840  0.1453
12543W        W30067  10.430   5.016   2.637  0.0035  0.0376  0.0992
12544W        W30068  17.504   5.035   0.982  0.0347  0.1321 -0.3391
12545W        W30069   3.904  14.340   1.347  0.1044  0.0071  0.0930
12546W        W30070  10.649  10.817  15.105  0.1419  0.0244 -0.2351
12547W        W30071  16.856   1.698  15.274  0.1061 -0.0513 -0.0993
12548W        W30072  12.565   1.760  15.706  0.0587 -0.2710  0.2079
12549W        W30073  16.786  15.663   1.246  0.1089 -0.3961 -0.2388
12550W        W30074   0.317  15.951  13.065  0.1483  0.4572 -0.0551
12551W        W30075   0.815   5.857   1.261 -0.1454  0.3035 -0.1083
12552W        W30076   9.587  10.200   3.503 -0.1015  0.1286  0.1542
12553W        W30077  15.543   2.042   4.123  0.1975  0.2793  0.2455
12554W        W30078  15.891   4.253   4.042  0.1038  0.1266  0.1011
12555W        W30079   3.497  16.134   1.704  0.0707 -0.3064  0.1183
12556W        W30080   5.822   8.384   1.741  0.2787 -0.2113 -0.1797
12557W        W30081  16.695   9.942   4.326 -0.3142 -0.0132 -0.0727
12558W        W30082  11.812  11.282  12.423  0.0961 -0.0122 -0.0147
12559W        W30083  16.435  11.994   2.247  0.2357 -0.1002  0.0183
12560W        W30084  11.350   9.411   1.143  0.0967  0.2461 -0.1381
12561W        W30085  11.016   2.266  12.958 -0.3177  0.2477  0.2818
12562W        W30086   6.493   6.539   4.153 -0.1847 -0.1714 -0.3095
12563W        W30087  16.479  10.165   2.117 -0.4387 -0.0060 -0.1462
12564W        W30088   3.255   6.253   3.516  0.2361  0.0864  0.0715
12565W        W30089  17.325   4.866  14.929 -0.0976 -0.1599  0.0903
12566W        W30090   9.167   7.432   3.658 -0.0473  0.6930  0.2262
12567W        W30091   3.159   2.477  15.752 -0.2068  0.1317  0.1109
12568W        W30092  16.114   7.828   3.516  0.1346 -0.1327  0.1230
12569W        W30093  15.735  10.895   2.216  0.0755  0.2337  0.0956
12570W        W30094   8.144  16.012  13.380  0.0155  0.2475  0.2777
12571W        W30095  11.751  17.365  11.440 -0.0012 -0.1173  0.4313
12572W        W30096  11.550  16.102   3.186  0.1763 -0.2174  0.0239
12573W        W30097  15.241  16.694  11.728 -0.1124 -0.2228 -0.2823
12574W        W30098   9.556   7.159  14.389  0.2541 -0.0293 -0.1895
12575W        W30099   5.858   6.809   4.978  0.1097 -0.0026 -0.0870
12576W        W30100  17.070   9.202  13.669  0.1950 -0.2649 -0.2588
12577W        W30101   7.294   2.217   1.339  0.0843  0.0928  0.0821
12578W        W30102  10.750  16.725   4.193 -0.1457 -0.0425  0.2150
12579W        W30103   7.569   1.769  13.533  0.0936 -0.2062  0.1331
12580W        W30104  18.038  11.476   0.432  0.0458  0.1377  0.0602
12581W        W30105  17.880   8.480   0.272 -0.1191 -0.0356 -0.0505
12582W        W30106  16.024   3.282   1.809 -0.3420 -0.4694 -0.2043
12583W        W30107   0.784   4.204   3.355 -0.4869  0.1881 -0.3217
12584W        W30108   1.712   4.513   3.110 -0.1272 -0.1879  0.0959
12585W        W30109   3.896  15.702  12.627 -0.1212  0.2105  0.3297
12586W        W30110  10.381  17.588  12.163 -0.2887  0.0441 -0.4228
12587W        W30111  15.480   7.829   2.658 -0.2587  0.1244  0.0551
12588W        W30112  10.181  12.759   1.635 -0.1597  0.2015  0.2080
12589W        W30113   7.489  14.912  11.334 -0.1948  0.0982  0.0413
12590W        W30114   8.339   8.328   0.012  0.1760 -0.0558 -0.2507
12591W        W30115  10.797   9.301   5.666 -0.0226 -0.0969 -0.2538
12592W        W30116   7.837   3.937   0.046 -0.1611  0.0167 -0.2447
12593W        W30117   0.568  10.007  12.561  0.0271 -0.2352 -0.1403
12594W        W30118   6.096   9.714  13.081  0.1127 -0.0223  0.2415
12595W        W30119  12.242   8.073   5.195 -0.0975  0.0764 -0.0349
12596W        W30120   7.686   9.542   3.685  0.0556 -0.2111  0.3580
12597W        W30121  15.075  15.391  13.621 -0.1329  0.0451 -0.0408
12598W        W30122  14.713  16.894   4.471 -0.0160 -0.0335 -0.1475
12599W        W30123  18.165   4.545  14.759 -0.1426 -0.0462 -0.0287
12600W        W30124   8.724  13.622  13.841 -0.0341  0.0166  0.1364
12601W        W30125   9.687  12.330  15.792 -0.1812  0.1820  0.0121
12602W        W30126   1.257   8.353   4.507 -0.2121 -0.1936 -0.0359
12603W        W30127  12.577  15.034   4.826  0.0004  0.1609  0.2019
12604W        W30128  12.533   8.018   2.137 -0.0442  0.3120  0.1829
12605W        W30129   4.578  14.718  15.084  0.3891  0.0495 -0.1410
12606W        W30130  13.580  11.235   2.816  0.0420 -0.3552  0.1791
12607W        W30131  10.048  14.475   1.092  0.0025  0.1580  0.4131
12608W        W30132  10.564   1.569  11.416  0.1643  0.1102 -0.1384
12609W        W30133  16.412  15.770   2.813 -0.0637 -0.1452  0.0561
12610W        W30134   8.453   3.833  14.559  0.4437  0.1894 -0.1402
12611W        W30135  17.204   2.960   4.560 -0.1086  0.1114  0.3289
12612W        W30136  16.348   6.412   3.902  0.0486 -0.3083 -0.1164
12613W        W30137  16.361  12.711  11.706  0.1308  0.1392 -0.2009
12614W        W30138  11.424   4.112  15.289  0.2542  0.3093 -0.1325
12615W        W30139   1.941  12.866  15.154  0.0366  0.2133 -0.1601
12616W        W30140   5.888  13.385   4.602  0.1787 -0.2705 -0.1533
12617W        W30141  15.657  12.751  15.027 -0.3929  0.0009  0.1459
12618W        W30142   7.039  13.865  15.281 -0.1383  0.0479  0.1502
12619W        W30143  13.440  15.801  12.706 -0.0499 -0.1083 -0.2160
12620W        W30144   1.217  10.830   2.992  0.2327 -0.0834 -0.0977
12621W        W30145   4.229  17.076   2.088 -0.0029 -0.1245 -0.1927
12622W        W30146  17.324   6.906   3.926  0.2795  0.0042 -0.2191
12623W        W30147   3.742   6.926  10.426  0.2729  0.2316  0.2730
12624W        W30148  17.133   6.331   0.766  0.1532  0.4915 -0.0358
12625W        W30149   7.257   6.100   1.518 -0.2686  0.0104 -0.1304
12626W        W30150   2.671  14.278   2.875  0.1799  0.2750 -0.2472
12627W        W30151   5.064  15.151   5.034 -0.2535 -0.0304  0.0466
12628W        W30152   0.705   1.403   0.918 -0.1444 -0.2975  0.0627
12629W        W30153  13.009   8.390   0.746 -0.2406 -0.1659  0.0757
12630W        W30154   0.604   6.713   0.343 -0.2610  0.1621  0.3072
12631W        W30155  11.215  16.315   1.944  0.1915 -0.0911 -0.1422
12632W        W30156   8.242  11.574   4.545 -0.2749 -0.3387  0.1015
12633W        W30157   6.932   5.610  14.152 -0.0741 -0.1243  0.3607
12634W        W30158  12.853  14.824  14.454  0.0140 -0.1572 -0.2913
12635W        W30159  16.570   6.690   2.964  0.2499 -0.1075  0.0860
12636W        W30160   6.829  13.271   0.632  0.2534 -0.1197  0.1168
12637W        W30161   9.118  10.042   3.826 -0.0928  0.0739 -0.0757
12638W        W30162   9.407   9.765   5.016  0.2951 -0.0162  0.1447
12639W        W30163  10.633   8.504   2.030  0.1300  0.1018 -0.0074
12640W        W30164   2.661  15.502  12.592 -0.1037 -0.4562 -0.1077
12641W        W30165   8.980  12.115  13.354  0.3645 -0.0558 -0.1173
12642W        W30166   0.261  12.326  14.567  0.0641 -0.2875  0.2660
12643W        W30167   3.618   4.067  14.798  0.2156  0.1110  0.0620
12644W        W30168   7.902   9.957   0.556 -0.1787  0.1955  0.2310
12645W        W30169   7.866  12.593  15.835 -0.1426  0.0303  0.0366
12646W        W30170   9.701   6.508  14.445 -0.1070 -0.5020 -0.1948
12647W        W30171  11.949   8.649   2.171 -0.1749 -0.2903 -0.2228
12648W        W30172   6.391   1.327   3.821 -0.4064  0.3566  0.0628
12649W        W30173   1.394   8.920   0.096  0.0974  0.1790 -0.1753
12650W        W30174  11.185   6.756  14.523 -0.0746  0.2959 -0.1447
12651W        W30175   8.928   7.429   3.239 -0.2028 -0.0460 -0.1414
12652W        W30176   4.791  15.901   1.198 -0.0539  0.0407 -0.1489
12653W        W30177  10.531   6.262  12.535  0.0965 -0.0743 -0.2413
12654W        W30178  16.855  16.364   2.005  0.2235  0.0260  0.0316
12655W        W30179  12.640   1.068   1.752 -0.1799  0.0304 -0.3197
12656W        W30180  11.991   4.391   1.256 -0.0514  0.1478  0.0288
12657W        W30181   2.263   8.388  13.991  0.0321  0.0602  0.0347
12658W        W30182   1.341  15.791  12.851  0.1499  0.1516 -0.0126
12659W        W30183  11.040   0.853   0.701 -0.0105 -0.0956  0.0227
12660W        W30184  11.263   7.098  14.082  0.0793 -0.1930  0.0431
12661W        W30185  12.453   0.279   2.960 -0.0665  0.1244  0.1018
12662W        W30186  18.090   2.440   0.648 -0.1173  0.2099  0.4491
12663W        W30187  17.436  10.735  14.204  0.4996 -0.1224 -0.0029
12664W        W30188  13.244   6.085  12.055 -0.0663 -0.0340  0.1598
12665W        W30189   7.149  15.452  14.684  0.2451 -0.1946  0.0398
12666W        W30190  15.668  17.860   0.189 -0.1520 -0.0277 -0.0661
12667W        W30191   6.896  10.733  12.183 -0.1938 -0.1318 -0.1159
12668W        W30192  12.951  10.978  11.381  0.0427 -0.0181 -0.1249
12669W        W30193   9.283   3.204  15.969 -0.1262  0.2040  0.0025
12670W        W30194  17.126  10.834   4.455  0.0316 -0.2310 -0.2492
12671W        W30195   9.351  10.153  10.191  0.1045 -0.0324  0.0377
12672W        W30196  14.858  10.499  14.423  0.0437  0.1239  0.5734
12673W        W30197  16.651   2.788  12.530 -0.2102  0.1677  0.2235
12674W        W30198  15.714  15.482   2.884 -0.2037 -0.2629  0.2407
12675W        W30199   6.643   2.554   0.313  0.1008 -0.1971 -0.3561
12676W        W30200   1.449  14.604  11.903 -0.0635  0.1347 -0.1130
12677W        W30201   2.934   2.394  14.197 -0.0039 -0.1494 -0.1834
12678W        W30202   5.260  16.601  11.578 -0.0610 -0.1972 -0.1075
12679W        W30203  16.793   9.496   5.016  0.0478 -0.3150  0.2075
12680W        W30204   4.740  15.072  14.777  0.0399 -0.0338  0.1305
12681W        W30205  14.105   8.296  11.544  0.1043  0.1014 -0.1957
12682W        W30206  17.609  11.072   4.951 -0.1104  0.0393  0.0631
12683W        W30207   4.807  13.793  13.283 -0.2562 -0.0250  0.0485
12684W        W30208   8.402   6.437  12.086  0.2186  0.2060 -0.1422
12685W        W30209  10.921  14.755   4.215  0.0484 -0.1618 -0.0727
12686W        W30210   8.393   5.990  11.779 -0.2517 -0.2631 -0.0329
12687W        W30211  13.782   7.600   3.903  0.2808 -0.2816 -0.1369
12688W        W30212   1.980   2.310  11.142 -0.3344  0.2129 -0.1871
12689W        W30213  12.222  11.863  14.512 -0.0123 -0.3035  0.0654
12690W        W30214   4.498  17.235  10.907  0.2563 -0.2782  0.0021
12691W        W30215  10.137  17.078  11.309  0.0847 -0.1714 -0.0245
12692W        W30216   1.188   3.790   4.229 -0.1093  0.2845 -0.0883
12693W        W30217   8.532   0.853  11.663  0.2075 -0.2257  0.1103
12694W        W30218  15.864   1.617  14.976  0.0718 -0.3182  0.2578
12695W        W30219  13.713  13.671   2.800  0.1627 -0.0803  0.1518
12696W        W30220   4.495  10.719  11.236 -0.0242 -0.0066 -0.1417
12697W        W30221   7.998   3.239  11.440 -0.4931  0.2114 -0.2349
12698W        W30222  13.772   4.710   4.862  0.0556  0.0988 -0.0395
12699W        W30223   5.402  14.108  15.363  0.0065  0.0680 -0.2071
12700W        W30224  14.347  11.151  13.632  0.2088 -0.0944  0.0667
12701W        W30225   8.106  16.445  13.708 -0.0649 -0.0377  0.2184
12702W        W30226  12.297   8.889   3.230 -0.2250  0.3517 -0.0041
12703W        W30227   7.996   6.002  12.683 -0.2306  0.1158 -0.1058
12704W        W30228   2.921  13.603   4.942  0.3817  0.1318 -0.0732
12705W        W30229   2.746  17.438  11.489  0.0799 -0.0713  0.0408
12706W        W30230  10.122  12.353   4.072 -0.1148 -0.1125  0.4287
12707W        W30231  14.215   3.715  15.973 -0.0838  0.0984  0.1162
12708W        W30232  17.463  15.319  10.787 -0.1140 -0.1865  0.1231
12709W        W30233   9.768   3.117  14.689  0.1612 -0.0768 -0.0733
12710W        W30234  12.678  11.446   3.677 -0.1381 -0.1122  0.1011
12711W        W30235   3.328  11.703   2.529 -0.0053 -0.2466  0.2127
12712W        W30236  14.953   4.705   2.557  0.2643  0.0853 -0.0139
12713W        W30237   8.586   0.575  15.828  0.1640  0.1014  0.0818
12714W        W30238  16.400  18.123   1.812 -0.2435  0.2305 -0.2768
12715W        W30239   9.120   5.212   4.949 -0.1109 -0.1097  0.3219
12716W        W30240   4.669   9.551  10.009  0.1771 -0.1728  0.0986
12717W        W30241   7.822   2.353   2.945  0.1954 -0.3236  0.1313
12718W        W30242  17.197   0.515   0.535  0.0634 -0.1260  0.0457
12719W        W30243   7.506   7.217   5.545 -0.0393  0.0020 -0.0508
12720W        W30244   0.690  16.408   1.086  0.0017 -0.0637  0.1333
12721W        W30245   0.914   7.571   3.525 -0.2118 -0.1367 -0.0619
12722W        W30246  12.875   9.289  15.185 -0.0602  0.0083  0.0999
12723W        W30247   9.288  16.174   1.409  0.1446 -0.2512 -0.1610
12724W        W30248   7.951   4.848   1.309 -0.4657 -0.0665  0.1186
12725W        W30249   9.120  12.347   4.730 -0.1817  0.3091  0.1223
12726W        W30250  14.689   6.873   4.278  0.0413 -0.1715 -0.3586
12727W        W30251  11.372  13.082  12.908  0.0849 -0.2133 -0.1426
12728W        W30252  17.391   7.199   2.654 -0.1087 -0.0613  0.2364
12729W        W30253  10.990  13.386   1.315 -0.1676 -0.1944 -0.0702
12730W        W30254  10.090  12.394  15.453  0.0577  0.3804  0.0809
12731W        W30255   1.655   1.133   4.409  0.1604  0.2084 -0.0266
12732W        W30256   0.459  16.104  11.717 -0.1663 -0.2603  0.0260
12733W        W30257  13.095   6.554  11.971 -0.0457  0.0807 -0.1219
12734W        W30258  11.479  11.543  13.057 -0.2185 -0.0739  0.0837
12735W        W30259  14.333  17.529   1.672  0.1883 -0.1786  0.0796
12736W        W30260  14.581  14.902   2.803  0.0031 -0.0728  0.1199
12737W        W30261   8.911  15.095   0.223  0.0277 -0.2588  0.0500
12738W        W30262   1.738   7.694   4.413 -0.2312  0.0530 -0.0312
12739W        W30263   6.733   5.493   3.277  0.2086 -0.0251  0.1393
12740W        W30264   2.090   7.977  13.376  0.2226 -0.1644  0.0113
12741W        W30265   6.895   4.573   2.331 -0.1245 -0.1131  0.1231
12742W        W30266   2.570   0.427   3.599 -0.2472  0.1672  0.1985
12743W        W30267  14.032  11.804   1.196  0.1423  0.0530 -0.1260
12744W        W30268  15.158  14.786   4.370 -0.2449  0.4132 -0.0010
12745W        W30269   0.731  13.728  13.634  0.3513  0.3629 -0.0386
12746W        W30270  14.657  17.355   4.693  0.0737 -0.1526 -0.1478
12747W        W30271   3.322   7.204   0.038 -0.1226  0.2397  0.1170
12748W        W30272  12.827  11.866   4.293  0.2231 -0.0212  0.0769
12749W        W30273   9.394   5.670  12.730 -0.2524  0.2469  0.0662
12750W        W30274   5.806  17.404   0.035 -0.1121 -0.0940  0.3034
12751W        W30275  10.702   3.905  13.724 -0.2093 -0.0098  0.0035
12752W        W30276  17.393   3.914   1.730 -0.7436  0.1834  0.0619
12753W        W30277   1.477   0.582  14.855  0.1032  0.1024  0.0030
12754W        W30278   1.350  14.179   3.158  0.1765 -0.3221  0.2525
12755W        W30279   3.472  11.592   5.474 -0.0467 -0.1587  0.1893
12756W        W30280  10.319   8.369  12.541  0.0018 -0.2058 -0.3781
12757W        W30281   7.003   1.582   2.146 -0.0411 -0.0693  0.1875
12758W        W30282   6.312  14.731  12.270 -0.1667  0.1177 -0.0020
12759W        W30283   3.713  12.115   3.341  0.0868 -0.0355  0.2046
12760W        W30284   1.272   1.467   2.593 -0.2553  0.0764 -0.1145
12761W        W30285  14.127  17.977  11.135 -0.1806 -0.1632  0.0961
12762W        W30286   2.815   3.382  11.447  0.1904  0.1356  0.0871
12763W        W30287   5.319   3.516  12.257 -0.0549  0.2533 -0.2746
12764W        W30288  17.628   7.207  13.659 -0.1250  0.1314  0.0621
12765W        W30289   6.753   5.394  13.687 -0.0643  0.3395 -0.1646
12766W        W30290   8.205   5.073  15.451 -0.1739  0.0748 -0.1433
12767W        W30291   4.779  14.598  11.569  0.1117 -0.1816  0.1073
12768W        W30292   3.253  10.502  11.996 -0.0727  0.2396  0.0217
12769W        W30293   7.152  12.312  12.566  0.0629  0.1098  0.2014
12770W        W30294  16.327  12.529   5.370 -0.0508  0.1700 -0.0942
12771W        W30295   7.051  17.480   1.340  0.3849 -0.1051  0.2547
12772W        W30296   4.734   1.196  13.304  0.0750 -0.0140 -0.0892
12773W        W30297  16.151   4.058  10.832  0.2018 -0.3728  0.1203
12774W        W30298   8.409  14.181  13.847 -0.3378  0.0457 -0.0604
12775W        W30299   2.491  16.726   4.130  0.2114  0.0284  0.1845
12776W        W30300  11.686   6.662  11.673  0.3537  0.0081  0.0609
12777W        W30301  15.268  15.615  15.367  0.0917 -0.1029 -0.0567
12778W        W30302  12.098   7.701   3.368  0.0014  0.1796 -0.1210
12779W        W30303   4.332   4.042   1.725  0.0131 -0.2026 -0.1937
12780W        W30304   6.757   7.832   2.434 -0.2623  0.0487 -0.0299
12781W        W30305  16.330  11.988  11.378 -0.2469 -0.1618  0.0969
12782W        W30306  14.243   1.525  15.829  0.0826 -0.1957  0.0060
12783W        W30307  11.791  12.021  11.322 -0.3642  0.0574  0.1227
12784W        W30308   4.962   3.524   3.007 -0.1248  0.2696  0.1088
12785W        W30309   0.262   6.414   4.668  0.0217  0.0047 -0.0078
12786W        W30310   4.108   9.122  13.344  0.2692 -0.0988  0.1194
12787W        W30311  14.834   7.739   2.741 -0.2098 -0.3496 -0.0414
12788W        W30312   0.810  14.660   3.218  0.0762  0.0231  0.0771
12789W        W30313  17.023  15.586   1.666 -0.0834 -0.1828  0.2030
12790W        W30314   9.250   0.822  11.034  0.0650 -0.0699 -0.3033
12791W        W30315  16.129   5.985   1.708 -0.3590  0.1240 -0.4911
12792W        W30316   7.079   7.339  11.009  0.1504  0.5610 -0.0876
12793W        W30317   3.232   6.615   0.620 -0.1281 -0.0616 -0.1843
12794W        W30318   4.760   3.273   3.733  0.0422 -0.2648 -0.0789
12795W        W30319   5.975  11.599  15.400  0.3577 -0.0954 -0.0834
12796W        W30320  11.075  10.836  12.539 -0.0315  0.0494 -0.3358
12797W        W30321   3.138   1.643   0.666 -0.3939  0.0401  0.0697
12798W        W30322  17.783   1.032  11.819 -0.3454  0.1411  0.4152
12799W        W30323  11.393  16.988   0.515  0.1434  0.4738  0.1232
12800W        W30324  16.963  13.889  11.774  0.1333  0.2502 -0.1621
12801W        W30325  10.575   3.342   2.219  0.1000  0.0664  0.0164
12802W        W30326  11.661   2.871  12.345 -0.2202  0.1434  0.0482
12803W        W30327   6.261  13.213  16.035  0.0895  0.2331 -0.1034
12804W        W30328  16.792   1.915   3.929 -0.4459  0.1414  0.3034
12805W        W30329   2.266  16.469  16.059  0.3844 -0.1649 -0.2040
12806W        W30330  12.300  10.580   3.694  0.0365  0.1943  0.0974
12807W        W30331  14.954   9.850   0.637 -0.2514 -0.4507  0.1329
12808W        W30332   8.462   5.901   4.602  0.2024 -0.2117  0.2414
12809W        W30333   4.891  10.443   0.088  0.0420 -0.2367  0.1809
12810W        W30334  15.704   0.873  14.712  0.1512 -0.2560 -0.1571
12811W        W30335   5.717   7.439  13.203 -0.1342 -0.1568 -0.3483
12812W        W30336  10.591   8.223  11.156  0.0869 -0.2497 -0.0565
12813W        W30337  12.893  12.099  14.033 -0.0644 -0.0296 -0.1388
12814W        W30338   7.551   9.651   2.315  0.0989  0.2030  0.0962
12815W        W30339  16.352  11.062  15.429 -0.1725  0.2211 -0.0609
12816W        W30340   4.779  14.528   1.468  0.0160  0.0396 -0.2531
12817W        W30341   5.128   5.702   1.977 -0.2235  0.1236  0.2043
12818W        W30342   6.287   1.128  13.494 -0.1479 -0.3715 -0.2246
12819W        W30343  17.140  10.727  12.900  0.0334  0.2304  0.1261
12820W        W30344   1.170   6.176  14.944  0.2507 -0.0703  0.1946
12821W        W30345   0.916  16.536  15.775  0.0905  0.1824  0.1897
12822W        W30346   6.168  13.656  14.581 -0.3306 -0.1933 -0.0902
12823W        W30347   1.841  13.246  12.996  0.1332  0.1229 -0.0305
12824W        W30348  16.403  17.457  12.238  0.3017  0.0799  0.1266
12825W        W30349   3.875  16.915  13.109  0.1032  0.1476 -0.0154
12826W        W30350   8.757   1.691  12.754  0.1366  0.0821  0.0372
12827W        W30351   9.275   9.006   0.249  0.3091 -0.1868  0.1369
12828W        W30352   0.786   3.976   0.071 -0.0236  0.1696 -0.0217
12829W        W30353  15.959  13.670   4.804 -0.0448 -0.0150  0.0112
12830W        W30354   8.553   5.480   1.002 -0.4178  0.1475 -0.0955
12831W        W30355   3.032  16.856  13.358 -0.1822  0.3209  0.1452
12832W        W30356  11.933  15.458   4.082 -0.1785 -0.1701 -0.0103
12833W        W30357  13.217  15.352   4.003 -0.1028 -0.0401 -0.1689
12834W        W30358  13.483   2.376  13.060  0.0676  0.1947 -0.1232
12835W        W30359   6.772   0.249  15.715  0.1492  0.0489  0.1072
12836W        W30360  16.818   7.888  12.173 -0.4722  0.3047 -0.1943
12837W        W30361  11.306  11.825  13.600  0.0402 -0.2553  0.2416
12838W        W30362  10.572  14.036   3.409 -0.1984 -0.0228  0.1183
12839W        W30363   9.479   4.654   1.407  0.0609 -0.1206 -0.1310
12840W        W30364  10.790   4.947  12.806  0.1013 -0.0848  0.0379
12841W        W30365   3.444   7.619   4.682  0.0979  0.0039  0.1149
12842W        W30366  13.690  13.755  13.895 -0.0523  0.4520  0.0077
12843W        W30367  16.716  17.666   1.938 -0.1841 -0.0164  0.1441
12844W        W30368  15.048  12.566   3.337 -0.2912  0.2328 -0.0385
12845W        W30369  10.558  17.385   5.505  0.2446 -0.3381 -0.2420
12846W        W30370  17.347  12.967   4.674 -0.4057  0.0930  0.0968
12847W        W30371   1.415  16.073  12.417  0.2752  0.0389 -0.2770
12848W        W30372   6.136  10.526  11.145  0.3578  0.2983  0.1289
12849W        W30373   9.816  15.011   1.602 -0.1010  0.0982 -0.1868
12850W        W30374  14.861   9.554  13.180 -0.0938 -0.0019  0.2495
12851W        W30375   8.724   4.875  11.778  0.0740  0.1288 -0.0169
12852W        W30376   5.160   7.576  11.895  0.0107 -0.1804 -0.3071
12853W        W30377   1.404   3.275   1.808  0.0006 -0.0908  0.1538
12854W        W30378   1.508   7.436  11.425  0.0223 -0.2544  0.1651
12855W        W30379   3.662   6.300   4.977  0.1626 -0.1429  0.0539
12856W        W30380   9.274  13.267   0.057  0.2005  0.4136 -0.0808
12857W        W30381   4.522   8.663   1.561 -0.1458  0.1112  0.1223
12858W        W30382   7.557  15.313   0.751 -0.0086  0.1120 -0.1058
12859W        W30383   1.537   0.674   3.200 -0.3310 -0.3266  0.0149
12860W        W30384  15.541   5.940   2.556  0.1454  0.0291 -0.1134
12861W        W30385   0.061  12.496   1.099 -0.0473  0.4004 -0.0711
12862W        W30386   1.920   4.269   4.602 -0.2425 -0.0103 -0.0297
12863W        W30387  12.366   5.554  11.301  0.0637  0.3366 -0.3077
12864W        W30388  12.675  12.252  15.071  0.0329  0.3498 -0.3758
12865W        W30389  13.454   3.801  14.552 -0.0441  0.0574  0.1346
12866W        W30390  14.420  12.154   1.304  0.0346  0.0364  0.1047
12867W        W30391   8.518  10.146  14.949 -0.0192  0.0844 -0.0054
12868W        W30392   9.978   4.116   1.744  0.1197 -0.2703  0.4188
12869W        W30393   1.602   5.607  12.602  0.1464  0.1279  0.0674
12870W        W30394  14.285  16.291   4.998 -0.0696 -0.1255 -0.0606
12871W        W30395  16.094   3.656   4.497 -0.0811 -0.0474 -0.0558
12872W        W30396  12.542   8.518  14.312 -0.1253  0.0196  0.2046
12873W        W30397   7.310   5.521   3.329  0.1522  0.0457  0.1395
12874W        W30398   0.380  16.806  11.737  0.1398 -0.0801  0.0303
12875W        W30399   8.773  17.875   0.639 -0.4289  0.0592  0.2308
12876W        W30400  13.875  16.904   5.523 -0.2448  0.0633 -0.1452
12877W        W30401   4.313  16.851  12.292 -0.2027  0.1118 -0.2197
12878W        W30402   8.340  12.680  15.607  0.1576 -0.0097 -0.0925
12879W        W30403   1.333   8.829   1.648  0.0588 -0.0458 -0.1640
12880W        W30404   3.734   6.883  12.287  0.0269  0.0228 -0.1871
12881W        W30405  17.218  15.513   0.826 -0.1702  0.1539 -0.1515
12882W        W30406   6.981  11.097   3.549  0.0009  0.1878  0.0721
12883W        W30407   2.011   3.361  12.498 -0.0744  0.3515 -0.0404
12884W        W30408   6.578   4.935   0.781  0.0899 -0.2439 -0.1104
12885W        W30409  15.003   8.802  15.882  0.2350 -0.1986 -0.0098
12886W        W30410   7.961   5.901  10.971  0.1510 -0.1481 -0.0261
12887W        W30411  17.426  15.279   0.444 -0.3366  0.0441  0.2201
12888W        W30412   5.278  16.166  15.160  0.2761  0.1467  0.2371
12889W        W30413  17.294  13.994  14.380 -0.0116 -0.0242  0.0569
12890W        W30414   4.876   4.295   4.034 -0.1285  0.1294 -0.1360
12891W        W30415   0.595   6.397  12.368 -0.2683 -0.0120 -0.2937
12892W        W30416   7.679  16.042  15.876 -0.0058 -0.2860 -0.3190
12893W        W30417  14.164   1.845  12.940 -0.1997 -0.0551  0.3038
12894W        W30418   4.820   9.168   1.646  0.1644 -0.1338 -0.3509
12895W        W30419   2.603  12.954  14.389  0.0086  0.3990  0.0148
12896W        W30420   3.999   8.577  15.349 -0.0167  0.0906 -0.1020
12897W        W30421  11.452  12.120  13.215  0.1398 -0.1495 -0.1797
12898W        W30422  17.254  14.263   1.421  0.1570 -0.1915 -0.3981
12899W        W30423  14.970  11.969   0.695 -0.0545  0.0099 -0.0505
12900W        W30424   9.036   3.493   4.290 -0.3427  0.1080  0.2097
12901W        W30425  18.000  16.420  14.087 -0.0971 -0.3539  0.0958
12902W        W30426   1.636   7.112  13.702  0.1931  0.0501 -0.2450
12903W        W30427   8.181   8.779   4.102 -0.0644  0.0323  0.0574
12904W        W30428   2.166  11.991   0.176  0.3262 -0.1594  0.1193
12905W        W30429   2.693  16.330  11.207 -0.2909 -0.0629 -0.1524
12906W        W30430  16.281   6.925  12.586  0.1713  0.2772  0.0207
12907W        W30431  13.192   0.163   4.342 -0.0244  0.1526 -0.1429
12908W        W30432   1.824   6.787   1.895 -0.3116 -0.0109  0.0416
12909W        W30433  10.278   7.456  15.514  0.0347 -0.0928 -0.0075
12910W        W30434  13.165   7.573  12.605 -0.0798 -0.1003  0.0249
12911W        W30435   7.014   6.660   2.291 -0.0769 -0.3132 -0.1220
12912W        W30436   1.306   0.226   4.246  0.0537  0.3570 -0.1446
12913W        W30437   8.674  11.830   4.659  0.0332  0.1670  0.1525
12914W        W30438   6.163  13.672  15.890 -0.0767  0.1651  0.2318
12915W        W30439   5.964  13.968   2.707 -0.2215 -0.0302  0.2610
12916W        W30440  15.852   5.921  13.430 -0.3088 -0.0444  0.0076
12917W        W30441   6.572   9.111  15.811 -0.0591  0.0776  0.2480
12918W        W30442  12.493  12.544   1.106  0.4240 -0.0489 -0.1081
12919W        W30443   8.262   5.492   3.293  0.2355  0.0209 -0.0732
12920W        W30444  10.776   7.936   1.845  0.2201  0.2034 -0.0422
12921W        W30445   5.186  13.971   3.607  0.0756  0.1915  0.2535
12922W        W30446   2.156  17.337   3.345 -0.0302 -0.0301  0.0991
12923W        W30447   2.675  14.539   0.963 -0.0721 -0.0588  0.1231
12924W        W30448  17.309  16.820  11.618 -0.1195  0.2134 -0.0115
12925W        W30449   9.277   5.623   5.680 -0.2189 -0.1383 -0.0204
12926W        W30450  14.243  13.812   2.690  0.0302 -0.1259  0.1070
12927W        W30451  12.557  12.821  11.211  0.0543  0.1275 -0.1418
12928W        W30452   5.195  10.124   2.587  0.2143 -0.0433  0.2411
12929W        W30453   2.789   6.187  11.771  0.2096  0.1085  0.0358
12930W        W30454   2.238   8.699  12.694 -0.1917  0.1288 -0.0575
12931W        W30455   5.550   5.924   5.135  0.1138 -0.3383 -0.0641
12932W        W30456   3.139   4.183  12.750 -0.2599 -0.0244 -0.3264
12933W        W30457  14.542   6.316   3.716  0.0845  0.0057  0.0841
12934W        W30458  13.529  14.333  15.119 -0.0731  0.0565  0.0648
12935W        W30459  11.980   4.080   3.263  0.0881 -0.1837 -0.1282
12936W        W30460   8.378  15.563  14.293 -0.0501  0.0517 -0.2931
12937W        W30461   2.351   5.734  13.314  0.3055  0.1729 -0.0881
12938W        W30462  11.552  13.751  12.620 -0.1462  0.0001 -0.3694
12939W        W30463   9.100  17.750  15.395  0.2191  0.0685  0.1661
12940W        W30464  10.055  16.842  15.384 -0.1549  0.3786 -0.0875
12941W        W30465   7.195   6.672   3.489 -0.2208 -0.4461  0.1394
12942W        W30466  15.602   5.332  12.231 -0.2305 -0.2117 -0.2231
12943W        W30467   9.795  17.113  14.483 -0.0241  0.0049 -0.1633
12944W        W30468  17.336  15.093  12.012 -0.1252 -0.2163  0.0829
12945W        W30469  16.430   2.491   5.335  0.0065 -0.1340  0.1843
12946W        W30470  14.467  11.219  12.454 -0.0171 -0.0275 -0.2226
12947W        W30471  17.829   6.262  13.997 -0.0157  0.1264 -0.2382
12948W        W30472   9.667   8.173   3.618 -0.2429 -0.0175  0.2061
12949W        W30473   7.881  13.980  14.422 -0.1676 -0.0871  0.1472
12950W        W30474  17.336   3.267   2.400 -0.0534  0.0888  0.2414
12951W        W30475  16.608   2.804  10.732 -0.0387 -0.1005 -0.0331
12952W        W30476  10.763  12.865   0.906  0.1083 -0.0522 -0.1173
12953W        W30477   1.507   8.591   0.582  0.0938 -0.1190  0.1924
12954W        W30478  11.603  16.929   3.555 -0.2745 -0.1521 -0.0099
12955W        W30479   0.543   1.960   2.956 -0.1047 -0.3576 -0.0918
12956W        W30480   3.749   5.966   2.835  0.0901  0.1267 -0.1198
12957W        W30481   0.863   5.222   5.041 -0.0627 -0.1173 -0.0234
12958W        W30482  13.748   8.858   4.280 -0.2555 -0.2922  0.1568
12959W        W30483  15.941  12.799   0.721  0.1339  0.0191  0.0797
12960W        W30484   6.521  11.636   1.097  0.3993  0.1748  0.0684
12961W        W30485  11.231  15.336   2.114 -0.1840 -0.0222  0.0826
12962W        W30486   0.199  17.399  12.184 -0.1201  0.0259  0.0972
12963W        W30487   5.815   4.586  12.818  0.2314  0.1810  0.0847
12964W        W30488  12.803   0.637  12.002 -0.2140 -0.1626 -0.1822
12965W        W30489   9.915  14.532   0.469  0.2335 -0.0270 -0.0522
12966W        W30490  10.022  13.153  11.544 -0.1426 -0.3458  0.1281
12967W        W30491  10.405   1.306   3.551  0.2667 -0.1424 -0.1469
12968W        W30492   7.137   9.536   2.114 -0.3184  0.0340  0.1076
12969W        W30493  14.905  14.038   4.014  0.1399 -0.1557 -0.0042
12970W        W30494   9.133   7.402  12.709 -0.2116 -0.0380 -0.1200
12971W        W30495   9.698   6.580  15.043  0.0524 -0.1083 -0.5088
12972W        W30496  14.401   9.608  15.747  0.1012  0.0275  0.0965
12973W        W30497   0.202  12.721  15.300  0.2489  0.1096  0.0267
12974W        W30498   0.929  17.004  13.688  0.0400 -0.0221  0.1344
12975W        W30499  16.193   8.258  12.245  0.3061  0.1687 -0.2801
12976W        W30500   4.901   9.471  14.712  0.0433  0.2876  0.4176
12977W        W30501  13.491   6.156   3.111  0.1751 -0.0316  0.0458
12978W        W30502  13.359  11.523  14.714  0.0149  0.2833  0.0278
12979W        W30503  16.780  12.073  14.395  0.2638  0.2170 -0.1404
12980W        W30504  13.203   3.861   2.615 -0.0368  0.2539 -0.0108
12981W        W30505   7.479  13.810  15.628  0.1633 -0.0585 -0.3769
12982W        W30506   9.240  14.319   3.805 -0.2116 -0.2675 -0.1649
12983W        W30507   9.342  10.745  13.341 -0.2314  0.0641  0.1061
12984W        W30508  17.375   1.502   2.196  0.1295  0.0523 -0.0143
12985W        W30509  16.603   5.997  11.509  0.1358  0.1400  0.0239
12986W        W30510  16.025  10.808  11.791 -0.0196 -0.1375 -0.0684
12987W        W30511  10.045   5.721  15.131 -0.0297 -0.3118  0.1615
12988W        W30512   4.354  12.331  11.954  0.0443 -0.1626 -0.3696
12989W        W30513  12.068   1.580   3.158  0.0455 -0.1687 -0.0683
12990W        W30514  11.525   7.692   5.148  0.1137 -0.2265  0.2062
12991W        W30515   8.976  13.722  15.011 -0.0649  0.0690  0.1203
12992W        W30516  15.277   7.783  14.388  0.1006 -0.0361  0.1979
12993W        W30517   3.495  16.016   3.805 -0.0349 -0.1266  0.1240
12994W        W30518  17.845  11.062  14.184 -0.0703  0.1677  0.0721
12995W        W30519   4.185  12.737   1.081 -0.0298  0.2624  0.1044
12996W        W30520  11.411  14.643  11.489  0.0282 -0.1755 -0.0955
12997W        W30521   5.310   1.074   4.356 -0.2026 -0.1806  0.2087
12998W        W30522  12.331   9.095  12.345  0.1845 -0.1023  0.1786
12999W        W30523   0.260   3.161  13.906  0.1464  0.0587  0.4441
13000W        W30524   5.685   8.756   4.880  0.0975  0.1040 -0.0868
13001W        W30525  18.091   1.068  14.094 -0.0235 -0.1738 -0.0535
13002W        W30526   3.886   0.293   1.854  0.2261  0.2315 -0.1493
13003W        W30527  16.361   0.981  11.680 -0.2001 -0.1162 -0.0343
13004W        W30528  17.807  16.077   4.216 -0.0391  0.4228  0.5137
13005W        W30529  15.519   8.742  14.668 -0.1935 -0.0022 -0.4693
13006W        W30530   6.611  11.261  16.010 -0.0356  0.1450  0.2421
13007W        W30531  10.288  16.635   2.881 -0.0344 -0.0952  0.0496
13008W        W30532   2.932   9.321   2.844  0.0757  0.1211  0.2459
13009W        W30533   8.637   2.680  12.340  0.1570  0.4128  0.2359
13010W        W30534  12.026  13.421  13.328  0.2470  0.0885 -0.2423
13011W        W30535   9.908  13.155  12.560  0.0787  0.1139  0.0343
13012W        W30536  15.040  16.660   2.493  0.3326  0.2516  0.0673
13013W        W30537  13.759   1.389  15.991  0.0052 -0.1080 -0.1950
13014W        W30538  13.187  13.584   1.558 -0.3549  0.4175  0.0754
13015W        W30539  10.330  11.377   3.852  0.3202  0.2451  0.1660
13016W        W30540  15.606  11.948   2.172  0.0473 -0.0903 -0.1459
13017W        W30541  17.395   2.556   6.111 -0.1148  0.2078 -0.0718
13018W        W30542   2.920   4.163   3.849  0.1552 -0.0701  0.4113
13019W        W30543  13.560   5.040  14.169 -0.0641 -0.0302 -0.0599
13020W        W30544  12.787  15.929   4.687 -0.2246  0.4170 -0.0773
13021W        W30545   4.575  10.615   3.817  0.1360  0.2203  0.0470
13022W        W30546   9.295  14.064   0.047 -0.3466 -0.0938  0.3106
13023W        W30547  17.615   4.161  14.228 -0.0104  0.3344  0.1850
13024W        W30548   5.691   5.260   3.063 -0.2583  0.2563 -0.0834
13025W        W30549  17.138  12.754  12.260  0.0870  0.3537 -0.0664
13026W        W30550  15.209   4.221   0.238 -0.1317 -0.1947 -0.0964
13027W        W30551   9.036   4.677  14.946 -0.1749 -0.0427 -0.0856
13028W        W30552  11.299   3.712  14.900 -0.0714 -0.0612 -0.2281
13029W        W30553   4.947   8.142  11.185 -0.0698  0.2460  0.2405
13030W        W30554   7.618  17.046  12.156 -0.1511 -0.1754  0.1881
13031W        W30555   3.497  14.631  12.236 -0.1657 -0.1695  0.0529
13032W        W30556   7.360  17.776   4.030  0.2190  0.2661 -0.0437
13033W        W30557   9.783   6.061  15.675 -0.0175  0.0303 -0.0385
13034W        W30558   5.122   7.305   2.019 -0.0013 -0.2254  0.1718
13035W        W30559   2.566  13.780  11.853 -0.2006 -0.1832 -0.0605
13036W        W30560   3.995   0.245   2.326 -0.0919 -0.1193  0.1248
13037W        W30561  15.834   4.644   1.080 -0.1357 -0.1371  0.0017
13038W        W30562   7.056  10.040   1.073  0.1405  0.1618 -0.1827
13039W        W30563  15.242   0.110  13.387 -0.1077 -0.1872  0.1898
13040W        W30564   7.554   5.936  13.520 -0.0968  0.0015  0.2654
13041W        W30565  10.069  10.046   3.479  0.0259  0.0453  0.0121
13042W        W30566  13.405   1.554  15.324  0.0969  0.1929 -0.0992
13043W        W30567  14.115  11.698   3.044  0.0125 -0.2338  0.1612
13044W        W30568   0.150   2.350  12.124 -0.1735  0.0090 -0.3373
13045W        W30569  14.076   0.265   2.717 -0.0533 -0.0370  0.1007
13046W        W30570  12.809   4.396  13.290  0.3212  0.3131 -0.2769
13047W        W30571   5.126   4.407  13.088 -0.1795  0.1181 -0.0499
13048W        W30572   5.971   4.586   1.875  0.2559  0.0440  0.0392
13049W        W30573   1.572  12.496   3.770  0.3677  0.0404  0.1730
13050W        W30574  12.713  10.786  14.483  0.0181  0.1551  0.2856
13051W        W30575  17.429   9.303   0.827  0.1451  0.2298 -0.0176
13052W        W30576  12.231   2.624   1.517 -0.0133 -0.2632  0.0038
13053W        W30577   6.969  15.067  13.401  0.0354 -0.1191  0.1694
13054W        W30578  17.501   8.178   1.706 -0.1852  0.0546 -0.1392
13055W        W30579   1.739   7.302   4.757 -0.1697  0.0610 -0.2135
13056W        W30580   1.376   0.151  15.985  0.2113 -0.0545  0.1860
13057W        W30581   9.934  13.025  12.025  0.0903  0.0274  0.0233
13058W        W30582  16.136  15.430  16.060 -0.2457  0.1084  0.3256
13059W        W30583  18.041   9.393  16.077 -0.2858  0.0827  0.0079
13060W        W30584  12.035  11.610  12.062 -0.2841  0.1978  0.0242
13061W        W30585  11.670  16.162  15.137  0.1663  0.2483 -0.1496
13062W        W30586  13.914   2.912   0.071  0.3767 -0.1624  0.2300
13063W        W30587   2.824   0.807  15.172  0.2993  0.4395  0.2174
13064W        W30588   7.145  17.734  14.682 -0.1604  0.1108 -0.1123
13065W        W30589  17.427   9.985  11.454 -0.1811 -0.1230  0.2113
13066W        W30590   5.215   9.069   2.493 -0.1951 -0.1025 -0.3270
13067W        W30591   9.091  17.040   3.601 -0.2042  0.1187  0.0051
13068W        W30592  12.442  14.866  14.126  0.3257  0.1386 -0.0491
13069W        W30593  10.016  10.229   0.606 -0.0132  0.2952 -0.1895
13070W        W30594   6.236  14.626  11.229  0.0249 -0.2010  0.2270
13071W        W30595  16.346   0.362   1.097  0.2206  0.0384  0.2119
13072W        W30596   5.884  12.883  12.510 -0.1180 -0.2497 -0.1838
13073W        W30597   9.114   9.471   0.910  0.2024 -0.2181  0.1177
13074W        W30598  15.495  13.772  13.572 -0.0285 -0.0686 -0.2877
13075W        W30599  15.693  10.893   4.512 -0.0922  0.2147  0.1120
13076W        W30600   8.608  14.001   3.233 -0.0739  0.0477  0.0344
13077W        W30601  10.730   0.434  14.626  0.0413 -0.4871  0.0877
13078W        W30602  10.948   6.756   0.165 -0.2796 -0.2796 -0.1969
13079W        W30603  13.041  14.747   0.376  0.0846 -0.3383  0.2133
13080W        W30604   2.903   1.248   1.536  0.4181  0.0982  0.0969
13081W        W30605   9.236  17.537  11.313  0.3502 -0.0841 -0.3842
13082W        W30606   7.439   1.448  12.392 -0.0551 -0.0185  0.4556
13083W        W30607   4.677   9.716  12.740 -0.1273  0.1212 -0.2536
13084W        W30608   6.230  14.701  13.960  0.0555  0.2582  0.2461
13085W        W30609  13.425  15.323   4.861  0.2786  0.2177 -0.1700
13086W        W30610   4.661  11.613  11.458 -0.1319  0.0941 -0.0426
13087W        W30611  14.634  12.315  13.865 -0.1670 -0.1793 -0.1270
13088W        W30612   7.842  15.124   1.712  0.1564  0.0248  0.1419
13089W        W30613  13.008   9.458  14.392  0.1852 -0.1210  0.0402
13090W        W30614   5.213   7.050  12.042  0.2174 -0.0128 -0.1850
13091W        W30615  14.084  15.378  14.587  0.0243  0.0345  0.1495
13092W        W30616  10.302  15.848  14.605  0.0362 -0.0660  0.1451
13093W        W30617   3.860   6.480  12.590 -0.1359  0.2581 -0.0389
13094W        W30618  13.373  10.534   4.627  0.2519  0.1654  0.4283
13095W        W30619  11.674   6.970  11.282 -0.1597 -0.3466  0.0311
13096W        W30620   9.244   9.044  13.729 -0.1605  0.1636  0.2776
13097W        W30621   4.386   0.724  15.259 -0.0018 -0.1832 -0.0499
13098W        W30622  14.275  16.356   1.441 -0.0099  0.0454  0.1972
13099W        W30623   1.253  16.859   1.240 -0.1830 -0.3133  0.1132
13100W        W30624   1.267   2.480   4.424  0.1514  0.1339  0.0213
13101W        W30625   8.540   6.912   2.170  0.3140  0.0940  0.0655
13102W        W30626  17.088   6.058  13.040  0.2547  0.0557  0.1578
13103W        W30627  11.291  13.797   0.757 -0.2768 -0.2564  0.2087
13104W        W30628  15.343  14.745   2.392 -0.1291 -0.0801 -0.0533
13105W        W30629   7.949   7.802   2.435  0.0262 -0.2863  0.0592
13106W        W30630  13.505  13.382   3.160 -0.1342 -0.1457  0.1522
13107W        W30631  17.039   1.707   5.873  0.0686  0.0404  0.3459
13108W        W30632  12.052  15.993  14.800 -0.2718  0.0182  0.2863
13109W        W30633   7.438   1.144   3.424  0.3069 -0.0227 -0.1122
13110W        W30634  17.402   5.326   0.184  0.1193  0.0732 -0.0549
13111W        W30635   4.765   4.681  14.104 -0.0614  0.2002  0.0810
13112W        W30636   5.833   9.423   4.250  0.0082 -0.4823 -0.0020
13113W        W30637  13.939   1.514   1.675  0.0288  0.1610 -0.3043
13114W        W30638   8.711   2.130   0.653 -0.1222 -0.1914  0.0759
13115W        W30639   4.530  15.407   0.415 -0.0159  0.1845 -0.1539
13116W        W30640  11.348   1.335   2.215  0.2890 -0.1563  0.0475
13117W        W30641  15.244  14.872   4.853  0.2312 -0.1491 -0.0822
13118W        W30642  11.224   2.081  11.791 -0.1630 -0.0958  0.2550
13119W        W30643   0.854  17.344  12.757  0.0926 -0.1015 -0.3954
13120W        W30644   1.978  14.062   1.079  0.0029  0.0790 -0.1673
13121W        W30645   4.322  14.790   4.530 -0.0796 -0.0146 -0.1457
13122W        W30646  14.053   9.671  12.007  0.1897 -0.0470 -0.1965
13123W        W30647  10.383  10.499   2.852 -0.3396  0.1665  0.0377
13124W        W30648  10.078  14.461  12.115  0.0796 -0.1587  0.3039
13125W        W30649   7.645  18.162  15.420  0.4190 -0.6505  0.1746
13126W        W30650  17.768   3.473  14.976  0.0420 -0.1551  0.0326
13127W        W30651  14.545  15.418   2.084 -0.1719 -0.3897  0.1741
13128W        W30652   3.157   3.610  12.846  0.1890  0.1007 -0.0283
13129W        W30653  10.701   9.079   2.711  0.1033  0.1188 -0.2426
13130W        W30654  10.528  15.443   3.781  0.2454 -0.4602 -0.1114
13131W        W30655  17.154   5.955   1.169 -0.3473  0.0888 -0.1563
13132W        W30656   9.895   2.579   3.519  0.2386 -0.2314  0.0400
13133W        W30657   0.896  14.574   0.408 -0.0790  0.0073  0.0450
13134W        W30658   5.153  11.885   5.916 -0.5895 -0.1966 -0.2976
13135W        W30659  16.022   8.300  11.010 -0.0508  0.2934  0.1494
13136W        W30660  15.054  13.390   6.136 -0.0993 -0.1889 -0.0914
13137W        W30661   0.762   9.729   4.336  0.0033  0.0714  0.1494
13138W        W30662   9.289  13.499  14.348  0.1028  0.0992  0.0867
13139W        W30663  10.869  15.356   3.476 -0.0337  0.0131  0.0176
13140W        W30664  12.921  13.896   0.663 -0.2198 -0.2537  0.1459
13141W        W30665  11.339   1.957   4.066 -0.1192  0.0930  0.2175
13142W        W30666   7.180  14.339  14.893 -0.1449 -0.0620  0.1145
13143W        W30667   8.840   6.515   1.913 -0.1123  0.0013 -0.0516
13144W        W30668  10.932   8.021  15.751  0.0329  0.0681  0.1662
13145W        W30669  16.110  10.318  13.011 -0.0230 -0.1815  0.0784
13146W        W30670   5.141  12.195  10.899  0.0760  0.1321  0.3520
13147W        W30671   5.428   7.515   1.503  0.0541  0.2438 -0.2902
13148W        W30672   9.202  15.965   5.082  0.1483 -0.1535  0.0700
13149W        W30673   0.101  17.743   2.857  0.0140  0.0267 -0.1969
13150W        W30674  10.969   3.256  12.879  0.3629  0.0733 -0.0822
13151W        W30675   0.151  14.242   5.504  0.1413 -0.0575  0.5586
13152W        W30676   0.703   1.702   3.413 -0.0370  0.0785  0.0191
13153W        W30677   3.220  12.963  11.395 -0.1835 -0.0884  0.3170
13154W        W30678  12.794  16.109   2.796 -0.4063  0.1621  0.1517
13155W        W30679  10.871  14.486   0.134  0.3313 -0.0154  0.1417
13156W        W30680   9.361   9.993  15.348  0.1123 -0.0103 -0.0160
13157W        W30681   8.396  17.620  14.332  0.3311  0.2203 -0.0065
13158W        W30682  15.293   9.961  14.013 -0.3743 -0.0903  0.4674
13159W        W30683   0.284   8.652   4.775  0.0732  0.1200  0.1362
13160W        W30684   2.792   5.559  14.089  0.0350 -0.0278  0.0466
13161W        W30685   5.656   3.014  15.187 -0.2482 -0.1616  0.0158
13162W        W30686  16.277   4.708   1.454 -0.1616 -0.0627 -0.2358
13163W        W30687   7.839  17.781  13.602  0.1270  0.4659  0.2177
13164W        W30688   8.904   3.192  15.603  0.0738  0.2328 -0.0343
13165W        W30689   8.727   5.457   3.000  0.0181 -0.1094  0.0673
13166W        W30690   5.087  14.314  15.749 -0.0649  0.0187 -0.1828
13167W        W30691   6.640   4.651   2.834 -0.2417  0.1417  0.0235
13168W        W30692  16.613  17.376   0.513 -0.1634  0.0765 -0.3120
13169W        W30693   4.297   3.075  14.434  0.2955 -0.3834  0.0086
13170W        W30694  11.876   3.703   0.442  0.2153 -0.0614  0.0229
13171W        W30695  12.001   2.583   3.680  0.0910  0.1325 -0.2339
13172W        W30696  16.247   0.481   0.596  0.0217 -0.1606  0.0041
13173W        W30697   7.906  14.509   1.160 -0.0450 -0.0644  0.0570
13174W        W30698   0.887   4.804  14.980  0.2302  0.0144 -0.1257
13175W        W30699   2.925  13.963   3.961  0.0250 -0.0590 -0.2137
13176W        W30700  12.946  10.401  14.232  0.1078  0.1866  0.0636
13177W        W30701   9.051  16.033  14.675 -0.0261  0.1606  0.1028
13178W        W30702  17.578   4.323   2.595 -0.2213 -0.0032  0.1942
13179W        W30703  10.771  11.934   1.363  0.0374 -0.0168  0.0374
13180W        W30704   2.000   5.832  11.841 -0.2102 -0.1562 -0.0285
13181W        W30705   2.316   2.243  12.590  0.1462 -0.0261  0.1375
13182W        W30706  12.000   6.618   3.486 -0.3944  0.0757  0.1064
13183W        W30707   3.274   9.803   1.198 -0.2661 -0.2342  0.1610
13184W        W30708   7.669   2.902   3.278 -0.0921  0.1799  0.1524
13185W        W30709  14.458  10.561   4.031 -0.1941 -0.0647  0.0958
13186W        W30710   0.810  10.618   4.389  0.0481 -0.1350 -0.1181
13187W        W30711  15.128  10.697  12.080  0.1683  0.1660 -0.0490
13188W        W30712  14.034  10.175  15.736  0.3301  0.0653 -0.3297
13189W        W30713  15.926   0.010  11.849  0.0680  0.0504 -0.3120
13190W        W30714  11.722  13.094  14.732  0.0205 -0.3325  0.1324
13191W        W30715   6.731   3.336  13.550  0.1783  0.1399 -0.0328
13192W        W30716   9.599   2.382   2.032  0.3872  0.0611 -0.4188
13193W        W30717   8.796   0.431  13.401 -0.0654 -0.1479 -0.0772
13194W        W30718   1.567  13.298   4.243 -0.2025  0.0855 -0.2497
13195W        W30719  11.283   5.368   0.501  0.0356  0.4893  0.1223
13196W        W30720   5.009  10.803   4.673  0.0227 -0.1019  0.1967
13197W        W30721  16.505  13.132   2.404 -0.0805  0.1361  0.0069
13198W        W30722   7.879  14.898  14.361  0.2737 -0.0642 -0.2599
13199W        W30723  12.071  12.936   2.932 -0.0648 -0.1039  0.0836
13200W        W30724   2.605  11.992   3.268  0.2587  0.0405  0.1534
13201W        W30725  17.664  11.567   4.836 -0.2064 -0.0353  0.2420
13202W        W30726   3.738  14.024   4.481  0.0339  0.0189  0.0144
13203W        W30727   1.994   3.096  13.498 -0.0281 -0.0287  0.0830
13204W        W30728   8.073  13.639  12.310 -0.0393  0.1969 -0.0294
13205W        W30729   0.765   0.203   3.656  0.0699 -0.1807 -0.1174
13206W        W30730   3.948  14.706  15.385  0.2135  0.1023 -0.1024
13207W        W30731  14.186  16.423   4.008 -0.1855 -0.0643 -0.2635
13208W        W30732   3.456   4.501  12.442 -0.0888  0.1099 -0.0458
13209W        W30733   1.023   8.988   2.035 -0.0976 -0.2404 -0.2868
13210W        W30734   0.662  10.886  11.959  0.0366 -0.3918 -0.0958
13211W        W30735  16.496   3.856  14.743 -0.2517 -0.0311 -0.2630
13212W        W30736   9.012  13.764   4.248 -0.1754  0.0230  0.3312
13213W        W30737   1.312  14.347  14.307 -0.2267  0.1505 -0.3152
13214W        W30738   3.122  10.087  12.821 -0.2988 -0.5431  0.2723
13215W        W30739  15.348  13.222   4.194 -0.0803 -0.0712 -0.2639
13216W        W30740  11.393  15.592   0.748 -0.0754 -0.1833 -0.0086
13217W        W30741   1.632   4.847  15.594 -0.1933 -0.1695 -0.0102
13218W        W30742  15.544  14.125   0.724  0.0911  0.1145  0.0179
13219W        W30743  15.546   6.486   0.528  0.1681  0.1393  0.0014
13220W        W30744  17.477   3.916   4.252 -0.0056  0.2612 -0.3532
13221W        W30745  13.948   5.501   5.007  0.3650  0.1156  0.2842
13222W        W30746  13.423   8.674   2.824 -0.2704  0.3024  0.2664
13223W        W30747  12.163  16.689   3.117 -0.0476  0.2431  0.1592
13224W        W30748   9.797   5.016  13.861  0.2840 -0.1346 -0.1957
13225W        W30749  11.251   9.122  14.366  0.0493 -0.0424 -0.2892
13226W        W30750   9.244  14.081   0.746 -0.2002  0.0997  0.3676
13227W        W30751   1.821   9.430   3.940  0.1024  0.1463  0.3399
13228W        W30752   3.256  14.932  13.189 -0.0725  0.0703  0.1955
13229W        W30753  13.581  17.545  11.428 -0.0896 -0.2682  0.0508
13230W        W30754  17.914  17.222  14.457  0.0117 -0.2147  0.1205
13231W        W30755  12.054   4.821  12.321 -0.2939  0.0170 -0.1748
13232W        W30756  17.121  14.287   2.911  0.4101  0.0681 -0.1213
13233W        W30757  16.361   9.452   3.510 -0.0716  0.2363 -0.1038
13234W        W30758   2.369  17.992   2.762  0.0715 -0.2282 -0.0480
13235W        W30759   0.941   8.360   1.561  0.4900  0.0436 -0.1839
13236W        W30760  13.685  10.545  11.611 -0.2783 -0.1899  0.0632
13237W        W30761  17.415  13.747   4.206 -0.0603  0.1052  0.1970
13238W        W30762  10.499   8.243   1.115  0.1649 -0.2273  0.1299
13239W        W30763   6.961  11.205  11.911 -0.0357  0.0775  0.0607
13240W        W30764  16.212  10.482   5.051  0.0614 -0.2684  0.2294
13241W        W30765  14.900  14.663   0.951 -0.1969  0.0656 -0.2190
13242W        W30766  16.975  15.175  14.238 -0.1465  0.5946 -0.0904
13243W        W30767  14.927   6.079   0.003 -0.2677 -0.0553 -0.0158
13244W        W30768   5.321   5.497   3.590 -0.2167 -0.1362  0.1156
13245W        W30769   5.156  16.071  12.952 -0.0888  0.2721  0.0459
13246W        W30770   9.444  12.225  14.504 -0.0971 -0.1003  0.0217
13247W        W30771   6.677   2.063   1.956 -0.0917  0.3608  0.3027
13248W        W30772  14.969   8.235   0.595  0.0181 -0.0555  0.0280
13249W        W30773  10.030   0.251  13.159 -0.0142 -0.1929 -0.0357
13250W        W30774  17.375  15.173   3.869 -0.2440 -0.1830 -0.0273
13251W        W30775  13.891   1.992   3.098  0.0564  0.0533 -0.0820
13252W        W30776  13.139   1.698   5.326  0.2522 -0.2968 -0.0620
13253W        W30777   7.768  17.562   0.109 -0.3110  0.2019  0.0536
13254W        W30778  13.018   5.954   0.607  0.0093  0.1568  0.1482
13255W        W30779   6.436  10.458  12.011 -0.0406 -0.2245 -0.0407
13256W        W30780   5.677   3.867   1.175  0.1946 -0.0138 -0.0733
13257W        W30781   3.463   4.026   4.467 -0.0810 -0.2225  0.1694
13258W        W30782  11.713   6.881   1.884 -0.1664  0.2580 -0.2383
13259W        W30783   5.601  11.746   0.818 -0.2992  0.2980 -0.1443
13260W        W30784   8.838   0.085   2.630  0.0638 -0.0710  0.0689
13261W        W30785   3.851  15.190   3.882  0.2481 -0.1688 -0.2117
13262W        W30786   7.156  13.820   2.155 -0.1543 -0.1021  0.1560
13263W        W30787   7.761  18.105  13.228 -0.1608  0.0963 -0.1989
13264W        W30788  17.824   0.021  11.357  0.1322  0.1183 -0.2560
13265W        W30789  17.767   0.237   2.454  0.3576  0.0481  0.1889
13266W        W30790   7.995   0.154  12.337 -0.3640 -0.0252  0.0616
13267W        W30791   0.514  13.098   1.857 -0.1601  0.3743 -0.2304
13268W        W30792   1.473  16.550   1.591 -0.1048  0.0399 -0.1283
13269W        W30793   9.041   7.790   0.351  0.1943  0.0201 -0.0448
13270W        W30794  13.687   2.372   1.594  0.0995  0.2312 -0.0815
13271W        W30795   8.452  17.240   1.353  0.0688  0.3022 -0.2156
13272W        W30796   7.943  13.646   4.111  0.2146  0.1876 -0.1472
13273W        W30797  11.257  14.566  14.021  0.1907 -0.0457 -0.1018
13274W        W30798  15.268   7.333  12.880 -0.1510  0.3345 -0.0322
13275W        W30799   3.799  13.489  13.428 -0.0223 -0.0966  0.1192
13276W        W30800  11.038   3.342   1.474 -0.1608  0.2606 -0.0842
13277W        W30801   2.371  14.034  12.663 -0.1054 -0.1655  0.1225
13278W        W30802   8.155   4.408   2.091 -0.2355  0.2620 -0.1610
13279W        W30803   0.186   9.621  15.127  0.0831  0.0274  0.0371
13280W        W30804   8.516  13.202   4.525  0.0062  0.2927  0.0423
13281W        W30805   1.891  12.122  12.335  0.2253  0.1431 -0.5275
13282W        W30806  10.818   8.354  13.969  0.4093  0.1283 -0.2548
13283W        W30807  17.340   3.270   1.796  0.1229  0.0015  0.0511
13284W        W30808  14.925   9.842  15.762 -0.0565  0.2537 -0.0427
13285W        W30809  17.972  13.799   2.132  0.0029 -0.1185  0.0818
13286W        W30810  11.628   1.268  14.813 -0.0150 -0.1017 -0.2506
13287W        W30811   4.385   4.598  14.591  0.0591  0.2005  0.2337
13288W        W30812   0.319   3.267  14.342 -0.0165 -0.1521  0.1358
13289W        W30813  17.977   1.734  13.173 -0.1622  0.1209  0.0386
13290W        W30814  14.689  13.143  14.427  0.1145 -0.0234 -0.1561
13291W        W30815  15.676  17.942   0.696 -0.0634  0.0335 -0.3033
13292W        W30816   9.146  14.252  14.231  0.0338  0.1945 -0.3946
13293W        W30817   3.401   8.667   1.557  0.0312 -0.1201  0.0041
13294W        W30818  13.081  13.172  13.416  0.1026 -0.0322  0.1973
13295W        W30819  15.077   2.549  13.018 -0.0537  0.1693  0.0299
13296W        W30820  14.048  11.503  15.848 -0.2434  0.2205 -0.1882
13297W        W30821  10.811   7.181   2.172  0.2498  0.0726  0.0276
13298W        W30822   6.727   2.017  13.136  0.2857 -0.0335  0.0528
13299W        W30823   6.587   1.705  15.380  0.0997  0.0512  0.2240
13300W        W30824   2.005  13.783  11.791 -0.0562  0.1560  0.1197
13301W        W30825   8.273   6.361   2.121 -0.3056  0.0439 -0.1601
13302W        W30826   6.202   0.597   0.349  0.0241 -0.1598 -0.2069
13303W        W30827   9.265  11.118  14.178  0.1019 -0.2043  0.0245
13304W        W30828   7.603   4.650   4.462  0.4112 -0.0611 -0.1721
13305W        W30829  12.089   2.689   0.100  0.0275  0.4562 -0.1131
13306W        W30830  12.938  10.049  10.318 -0.1746 -0.1560 -0.0444
13307W        W30831  11.470   4.940   0.753 -0.4445 -0.1186  0.1717
13308W        W30832   3.413  15.340   2.336  0.2238 -0.2192 -0.2701
13309W        W30833  13.039   6.432  14.347 -0.2252  0.0361 -0.1968
13310W        W30834  10.143   8.477   2.834  0.0956  0.0138 -0.1201
13311W        W30835   8.915  17.403   1.567 -0.2554 -0.1046  0.0443
13312W        W30836  16.191   1.437   1.257 -0.0969  0.0552  0.0875
13313W        W30837  15.738   9.910   0.693  0.1276  0.1896 -0.1084
13314W        W30838   2.333  11.914  11.596  0.0384 -0.1807 -0.2156
13315W        W30839  16.745   6.861   4.833  0.1036 -0.2358 -0.1618
13316W        W30840   8.302   1.860  12.130 -0.1536  0.0839  0.2193
13317W        W30841  16.698   8.221  13.835  0.0927  0.1913 -0.0007
13318W        W30842  14.852  18.190  15.933 -0.0333  0.1143  0.0306
13319W        W30843   8.794   7.386  11.558 -0.0712 -0.0134  0.0038
13320W        W30844  15.387  13.325   3.420  0.2039 -0.2099  0.2370
13321W        W30845  13.800  12.392   4.683  0.2259  0.1444 -0.2631
13322W        W30846  13.038   2.228   4.646 -0.0775 -0.4082 -0.2309
13323W        W30847  10.064  15.242   1.969 -0.1521 -0.2287 -0.1628
13324W        W30848   3.810   4.280  12.091  0.0706  0.0153 -0.3471
13325W        W30849   2.691   7.630   1.187  0.2010  0.4692 -0.0863
13326W        W30850   8.971   5.483  15.069 -0.1519  0.1584 -0.1888
13327W        W30851  16.286   0.904   5.311  0.1321 -0.5799 -0.0304
13328W        W30852  12.206  17.890  12.262 -0.0784 -0.1467  0.1794
13329W        W30853   0.892   6.190  10.409  0.1057 -0.2314  0.1048
13330W        W30854  18.037   8.159  14.933 -0.1224  0.2531  0.0507
13331W        W30855  17.677   3.784  11.590 -0.1935  0.0240 -0.1623
13332W        W30856  15.643  13.359  14.385 -0.1351  0.0103 -0.3204
13333W        W30857  17.840   2.878  12.596  0.1166 -0.1228 -0.0858
13334W        W30858   8.799   6.004  10.934  0.0815  0.1044 -0.0272
13335W        W30859  12.306   1.494  12.298  0.1563 -0.3057  0.1947
13336W        W30860   3.787   6.674   4.691 -0.1432  0.0027 -0.1430
13337W        W30861   2.784   7.194   1.736 -0.2411  0.0489 -0.1153
13338W        W30862  12.116   1.210  13.222  0.3178  0.2417  0.2255
13339W        W30863   3.200   0.757   5.725 -0.1412 -0.2486 -0.0635
13340W        W30864  17.692  17.076  12.546  0.0104  0.0959  0.3908
13341W        W30865   4.652   9.143  15.230 -0.2534 -0.2857  0.0010
13342W        W30866   5.366  15.620  13.235 -0.2452  0.1410  0.1678
13343W        W30867   7.531  12.604  15.320  0.0199  0.1252  0.1742
13344W        W30868   8.533   3.614   2.597  0.0211  0.0634 -0.1889
13345W        W30869  15.317   0.152  15.158 -0.1938  0.0194 -0.2625
13346W        W30870   5.113  12.991   2.598 -0.3258  0.1317 -0.0148
13347W        W30871   0.965   7.467   4.165  0.1553 -0.0747  0.0047
13348W        W30872  12.357   4.929   1.907  0.0556 -0.0746 -0.0788
13349W        W30873   4.222   6.059  14.907  0.1452 -0.2289  0.2875
13350W        W30874  13.633   3.657   5.022  0.0625 -0.0981  0.2423
13351W        W30875   2.306  14.832  15.757  0.2388  0.2985  0.1990
13352W        W30876   7.352  11.348   2.804 -0.1424 -0.3302  0.0395
13353W        W30877   5.383   0.756  14.445 -0.0603 -0.2046 -0.0636
13354W        W30878  17.255  11.991  14.037  0.1914  0.3979  0.0791
13355W        W30879   6.793   3.702  12.526  0.0156  0.1880  0.1833
13356W        W30880  13.587   6.990   1.496  0.4205  0.0525  0.1689
13357W        W30881   0.556  17.094  14.005 -0.0283 -0.0895  0.3940
13358W        W30882   4.227  10.324   1.647  0.1942  0.0894  0.3175
13359W        W30883   5.475   6.610   1.404  0.0403 -0.2386 -0.1403
13360W        W30884  17.299   6.745   6.128  0.1214 -0.2016  0.1596
13361W        W30885   1.701  14.047   1.519  0.1896  0.0029  0.1718
13362W        W30886  14.281  10.418   4.843  0.0883  0.2235  0.0463
13363W        W30887  12.535   1.160   2.435 -0.2316  0.0849  0.1168
13364W        W30888   7.813   0.806  11.257 -0.1424 -0.1932 -0.1185
13365W        W30889  12.986  13.279   3.114 -0.2614 -0.2204  0.0968
13366W        W30890  11.364   6.305  13.446 -0.0445 -0.0834 -0.0914
13367W        W30891  12.625   4.623   2.150  0.1246  0.0778  0.2617
13368W        W30892  13.815  17.544  15.725 -0.0652  0.1050  0.2030
13369W        W30893   8.900   4.480   0.874 -0.0814 -0.1540 -0.4608
13370W        W30894   6.508  10.101  11.105 -0.1084  0.2617  0.1228
13371W        W30895   5.905  12.375  15.530  0.1497  0.2539  0.1187
13372W        W30896   4.620   3.097   3.124 -0.0246 -0.3083 -0.0494
13373W        W30897  16.899   3.563   1.895  0.4505 -0.1284 -0.2954
13374W        W30898   4.127  17.629   4.576 -0.0100  0.2280  0.0288
13375W        W30899   7.716  16.504   4.507  0.0118 -0.0634  0.0460
13376W        W30900   7.824  13.527  13.691 -0.1566 -0.0953  0.2346
13377W        W30901  11.965   6.825  15.624  0.2286  0.0140  0.0910
13378W        W30902   6.737   3.263   3.291  0.0107  0.0883 -0.1952
13379W        W30903   5.890   3.093   1.045 -0.0140  0.1273 -0.3865
13380W        W30904  13.133   5.348  13.538 -0.2206  0.2643 -0.2079
13381W        W30905   2.308  12.389   0.463 -0.0156  0.1424 -0.1258
13382W        W30906  16.953   2.403  15.722 -0.0784 -0.3631  0.1936
13383W        W30907   4.063  13.154  12.031  0.0713  0.1228  0.1399
13384W        W30908   9.135   8.476   4.931 -0.1899 -0.1659  0.1065
13385W        W30909  13.316  10.949   2.295 -0.0667  0.0526 -0.0963
13386W        W30910   7.841   1.938  14.460 -0.1500  0.5078 -0.0140
13387W        W30911   8.878  14.135  13.112 -0.0745  0.1796  0.2343
13388W        W30912   8.383  12.462  11.734 -0.2260 -0.2821 -0.0458
13389W        W30913   8.839   4.428  10.940  0.0132 -0.1720  0.3402
13390W        W30914  15.742   1.811   1.843 -0.4583 -0.2250  0.0315
13391W        W30915   7.734   4.934  14.549  0.0401 -0.3462 -0.0816
13392W        W30916  14.705   7.393   3.153 -0.0161  0.0373  0.0684
13393W        W30917   8.118   4.301  13.877  0.3671  0.0274 -0.1879
13394W        W30918  13.446   3.051  13.681  0.1259 -0.0299  0.3080
13395W        W30919   0.781   1.736   1.660 -0.0362  0.0065  0.3503
13396W        W30920   8.503  17.645   1.773  0.0456  0.1296 -0.0774
13397W        W30921  16.585  17.348   4.497 -0.2879  0.4292 -0.1994
13398W        W30922   8.907  13.998  12.046  0.0555  0.0029  0.0009
13399W        W30923   0.725   1.749  15.361  0.1702 -0.1574  0.1443
13400W        W30924  17.136  16.348  12.096  0.2547  0.1306  0.1961
13401W        W30925   4.048  12.604   0.606  0.0283  0.2353  0.1802
13402W        W30926  12.753  10.750  15.893 -0.0917  0.1364  0.0609
13403W        W30927   6.817   4.002  10.467  0.2031  0.1100 -0.1035
13404W        W30928  15.365   2.175  15.068  0.1220  0.2049 -0.1151
13405W        W30929  11.147   0.625   3.792  0.1390  0.0999 -0.4641
13406W        W30930  15.406   2.605   3.363  0.1312 -0.3300 -0.2682
13407W        W30931  16.930   1.624   5.064 -0.0963  0.5156 -0.0156
13408W        W30932  15.769  14.915   0.491  0.0207  0.5039  0.1462
13409W        W30933  14.905   1.937  15.279  0.0302  0.2171  0.2142
13410W        W30934   6.624  13.526   3.206 -0.0935 -0.0042 -0.5046
13411W        W30935   0.777   7.524   0.168 -0.0419 -0.0231  0.2330
13412W        W30936   0.235   3.625   2.516 -0.2307  0.0491  0.1331
13413W        W30937   0.663  10.920   2.451 -0.1555  0.0265  0.0197
13414W        W30938  15.897  16.978  14.750 -0.1390  0.1352  0.1896
13415W        W30939  15.459  12.673   5.027  0.0111 -0.0082  0.4287
13416W        W30940  11.886  12.881   4.049  0.1111  0.0621 -0.1236
13417W        W30941   1.117  15.112   4.515  0.0684 -0.1267 -0.0954
13418W        W30942   7.414  11.446   3.447 -0.1497 -0.2101 -0.2094
13419W        W30943  14.324  13.076  13.975 -0.1007  0.1352  0.2567
13420W        W30944  15.508  18.043   3.836 -0.3894  0.1423 -0.2521
13421W        W30945   1.649  15.210   0.450  0.0515 -0.1216 -0.0785
13422W        W30946  16.093  14.789  12.293 -0.0393 -0.2331  0.0285
13423W        W30947   1.368   7.965  10.657  0.0329  0.0067  0.1733
13424W        W30948   4.104   4.487   4.512  0.0245 -0.1620  0.2702
13425W        W30949  15.616   0.658  13.456  0.0583 -0.1863 -0.1868
13426W        W30950   5.213   6.279   0.343  0.0342 -0.0304  0.0987
13427W        W30951  16.897   8.494  16.019 -0.0295 -0.0619  0.4793
13428W        W30952   1.053  14.109  12.212 -0.0651  0.2633  0.1129
13429W        W30953   7.522  10.401   1.880  0.1796 -0.1348 -0.0840
13430W        W30954   3.395  16.432   3.975 -0.1297  0.2245 -0.4596
13431W        W30955   4.747   1.527   0.893 -0.3793  0.1902 -0.3381
13432W        W30956  17.009   4.469  12.322  0.1399 -0.1875  0.1904
13433W        W30957   5.923  10.094  14.133 -0.5224  0.0455 -0.1016
13434W        W30958  10.198  12.512  13.947 -0.1265 -0.0527 -0.1283
13435W        W30959  12.488  11.815   3.933  0.0890  0.0589  0.1129
13436W        W30960  17.545  15.192   4.778  0.3001 -0.0760  0.0202
13437W        W30961   3.326  13.488   1.602  0.0778 -0.1731 -0.2120
13438W        W30962   7.073   1.153   4.899 -0.2144  0.0372 -0.1903
13439W        W30963  13.406  14.879   5.221 -0.1395  0.0852 -0.1893
13440W        W30964  15.559  16.680  15.721 -0.0398 -0.1649  0.0055
13441W        W30965   6.741  10.023  15.685 -0.2155 -0.3498  0.0279
13442W        W30966  11.561   1.409   4.465  0.3493  0.3889  0.0538
13443W        W30967   7.010   6.532  13.392 -0.0054  0.1751  0.3190
13444W        W30968   7.508  12.140  12.025  0.0905 -0.0520 -0.2592
13445W        W30969   2.883   1.366  15.284 -0.1103 -0.0531  0.1540
13446W        W30970   8.791   7.620  12.017 -0.1447  0.2750 -0.0728
13447W        W30971   9.449   7.836  12.539 -0.1456  0.1195 -0.0292
13448W        W30972  14.883  10.504   3.172 -0.0754 -0.1256 -0.3528
13449W        W30973   7.964  17.737  15.304  0.3804 -0.3304 -0.0967
13450W        W30974  15.151  11.631   4.141 -0.2216  0.0919  0.1383
13451W        W30975  13.516   8.484  13.804 -0.1834 -0.0695 -0.0920
13452W        W30976  13.799   4.639   4.150  0.0097 -0.0714  0.0667
13453W        W30977   3.162  15.395  15.398  0.0659  0.2260 -0.0027
13454W        W30978   1.571  13.742   5.714  0.1678  0.1925 -0.1791
13455W        W30979   7.008  17.558   4.296 -0.1239  0.0382 -0.1965
13456W        W30980   8.167   1.957   4.050 -0.1690 -0.1902 -0.0415
13457W        W30981  10.675  13.253  10.894  0.4457  0.3258 -0.1501
13458W        W30982  12.774   0.386  15.781 -0.3198 -0.1921  0.1755
13459W        W30983  12.778  12.429   3.435  0.0011 -0.0310 -0.1654
13460W        W30984   9.700   4.512   1.860 -0.0206 -0.0151 -0.0063
13461W        W30985  16.385   8.534  14.736 -0.0171  0.1824  0.0430
13462W        W30986  10.974  12.376   0.242 -0.1033 -0.2190 -0.3973
13463W        W30987   2.594   5.258  14.495 -0.1694 -0.0466 -0.1595
13464W        W30988  14.980   3.699  11.907 -0.1408 -0.2064  0.1439
13465W        W30989   6.818   3.519   1.429 -0.1200  0.0418  0.0849
13466W        W30990   8.645  14.613  15.521 -0.0253 -0.0427  0.0183
13467W        W30991   0.750   9.511   5.469 -0.1399  0.0266  0.3650
13468W        W30992  16.427  12.669   3.438  0.1774  0.0155  0.0060
13469W        W30993   2.082   5.303   0.135 -0.0619  0.0020  0.2343
13470W        W30994  17.608   1.990   3.639 -0.2611 -0.0733 -0.1325
13471W        W30995   1.155   7.757   5.387  0.1409  0.0946  0.1236
13472W        W30996   7.215   9.342   0.584 -0.2926  0.0363  0.2490
13473W        W30997  14.826  11.344  13.381 -0.0012 -0.0928  0.2567
13474W        W30998   3.543   1.029  14.703  0.2803 -0.3434 -0.4826
13475W        W30999  12.906  16.853  14.494 -0.0252 -0.1686  0.2382
13476W        W31000   4.353   3.538   0.239  0.1077 -0.0751 -0.1566
13477W        W31001   2.811   4.494   2.979  0.0634 -0.1236 -0.3015
13478W        W31002   5.252   6.740   4.172  0.1280  0.1935  0.1163
13479W        W31003   7.647  14.372  14.225 -0.0423  0.1463 -0.0418
13480W        W31004   0.131  15.554  12.675  0.0988  0.0493  0.0022
13481W        W31005   8.212   2.042  11.619  0.2054  0.1758 -0.0218
13482W        W31006  13.657   3.531   0.996 -0.0188  0.4423  0.0217
13483W        W31007  10.879   4.337  11.682 -0.1818  0.3000 -0.2253
13484W        W31008  10.374  16.420  14.003 -0.3620  0.1068  0.1745
13485W        W31009  15.331  16.035  13.225 -0.3050  0.0075 -0.0937
13486W        W31010   1.730   8.044   3.314 -0.0043 -0.0487  0.3855
13487W        W31011  13.728  17.227   2.369  0.0518 -0.0970  0.0385
13488W        W31012  17.968   3.560  13.265  0.2235  0.0752 -0.1612
13489W        W31013   4.981   4.504   2.746  0.2769  0.0471  0.0537
13490W        W31014   9.011   3.582  12.367 -0.0244  0.1213 -0.2772
13491W        W31015   7.553   4.172  11.918 -0.2616  0.1272 -0.0613
13492W        W31016  11.942  17.408   2.351 -0.1707  0.2311 -0.0035
13493W        W31017   8.498   9.908   2.212 -0.2307  0.0500  0.0518
13494W        W31018   5.879   3.445  12.664 -0.2563 -0.3608 -0.0093
13495W        W31019   8.902  10.751  15.681  0.2586  0.5024 -0.0614
13496W        W31020   1.944   0.162   4.260  0.1821 -0.1134  0.1423
13497W        W31021  11.762   2.407   3.283  0.2313 -0.1067  0.4303
13498W        W31022   0.794   8.871   1.591 -0.1389 -0.0446 -0.3685
13499W        W31023  17.386  17.892  15.553 -0.2542 -0.0233 -0.1838
13500W        W31024  17.134   1.251  14.098 -0.3853 -0.4394  0.3734
13501W        W31025  13.689   3.002  11.707 -0.1813 -0.2476  0.2184
13502W        W31026   9.248   7.813  11.781 -0.2052 -0.1031  0.2816
13503W        W31027  12.512  16.755  14.731  0.0740  0.1008 -0.1454
13504W        W31028   8.353  10.890  15.411  0.0965 -0.0543 -0.0336
13505W        W31029  10.232   5.857  13.385  0.0534  0.0160 -0.2055
13506W        W31030  15.758  14.705  15.959  0.2262 -0.0307 -0.0475
13507W        W31031  17.941  15.794   3.285 -0.0835  0.1475  0.1894
13508W        W31032   8.827  11.662  14.070  0.0897  0.1225  0.0112
13509W        W31033   6.345   0.560  15.881  0.2460  0.2318 -0.0952
13510W        W31034  17.934  13.583  14.656 -0.4263  0.2381 -0.0275
13511W        W31035   3.892   8.589   1.449  0.0668  0.2318  0.0038
13512W        W31036   7.769  13.522   2.970 -0.2141  0.0347 -0.2145
13513W        W31037  16.929  14.786   2.025  0.0582 -0.2557  0.0528
13514W        W31038   0.588   0.044  11.814 -0.1954 -0.1976  0.2399
13515W        W31039   6.702  10.272  14.852 -0.1040 -0.1616  0.3342
13516W        W31040   1.752   1.186  13.859 -0.2284  0.1126  0.1898
13517W        W31041  12.624  17.812  11.947 -0.0343 -0.0082  0.1586
13518W        W31042   3.885  16.883   1.750  0.2253 -0.1471  0.1929
13519W        W31043   7.882  12.524  11.152 -0.1767 -0.1200 -0.6964
13520W        W31044  13.650   4.783   2.661 -0.0251 -0.1481  0.2011
13521W        W31045  13.823  13.385   4.436  0.1210 -0.1190  0.1386
13522W        W31046   4.840  16.031   1.903 -0.0047  0.2238  0.3205
13523W        W31047   7.423   9.190  14.184 -0.0664  0.2971  0.1464
13524W        W31048   8.782   9.504   4.383  0.2057 -0.0950  0.2766
13525W        W31049   6.626   6.855  13.047 -0.1946  0.0269 -0.1374
13526W        W31050   8.002   7.034  11.860 -0.1747 -0.1983  0.2575
13527W        W31051   2.925   7.919   3.413  0.1901 -0.2730 -0.2866
13528W        W31052   8.871   6.554  11.099 -0.1592  0.0855  0.3398
13529W        W31053   4.435   6.965  12.996  0.0343  0.1051  0.1028
13530W        W31054  12.827  11.748  15.362 -0.0150  0.3313 -0.0779
13531W        W31055   8.200   6.446   4.468  0.0816 -0.1590  0.0055
13532W        W31056  13.123  10.960   0.777  0.2065  0.0147  0.0155
13533W        W31057  11.530  15.226  12.699  0.0268  0.0800 -0.2689
13534W        W31058   2.690  15.960   2.867  0.1566  0.1375 -0.0478
13535W        W31059  10.179   0.695   0.254 -0.2652  0.2381  0.4281
13536W        W31060  11.197   6.688  12.627 -0.0256  0.3552  0.1398
13537W        W31061  16.815   9.071  13.203 -0.0538 -0.0027 -0.1566
13538W        W31062   6.337  11.834   4.889 -0.0995 -0.2138 -0.0096
13539W        W31063   8.368   1.710   2.548  0.0633 -0.0611  0.4850
13540W        W31064   6.043  15.608   2.826  0.3452  0.2064  0.0321
13541W        W31065   3.285  12.775   4.887  0.0914  0.2033 -0.1203
13542W        W31066   6.284   1.391   3.035 -0.1295 -0.0773  0.0338
13543W        W31067  15.597   4.017  15.818  0.2888  0.0388  0.2678
13544W        W31068   7.929   5.969  11.455 -0.1419 -0.2293 -0.0852
13545W        W31069   1.722  16.144   1.468 -0.1663  0.1201  0.2666
13546W        W31070   0.484   8.364  12.854 -0.2250 -0.0249  0.1480
13547W        W31071   9.836   5.771   2.789 -0.2197  0.1417  0.1892
13548W        W31072  10.400   9.136   2.129 -0.0223  0.3035  0.2861
13549W        W31073   0.112  12.280   2.457  0.1257  0.1185 -0.2531
13550W        W31074  16.610   3.309   4.413  0.1377 -0.0177 -0.0680
13551W        W31075  13.269   2.956   3.022  0.1325  0.5853 -0.1469
13552W        W31076  14.474   4.503   1.009  0.0320  0.0563  0.2952
13553W        W31077  15.742   3.448   3.786  0.0942 -0.0202 -0.0446
13554W        W31078  14.009  17.286  12.299  0.1830 -0.0328 -0.3360
13555W        W31079   4.657  11.639  12.404 -0.0242 -0.1798  0.1597
13556W        W31080   1.001   2.507   3.868 -0.1593  0.2809  0.1658
13557W        W31081  16.650   2.314   1.654  0.1459 -0.0179 -0.1725
13558W        W31082   6.512   7.574  14.537 -0.0600  0.0975 -0.0700
13559W        W31083  16.686   4.299  15.732 -0.2532  0.1262 -0.1309
13560W        W31084  12.702   5.922  11.351  0.0212  0.3488  0.2082
13561W        W31085  12.330  11.573  12.560 -0.0787  0.0636 -0.0663
13562W        W31086  13.668  16.732   2.846 -0.1835 -0.0392 -0.2188
13563W        W31087   0.856  13.001   4.878 -0.0609  0.1283 -0.3167
13564W        W31088   2.049   3.108  12.937 -0.3160 -0.1777  0.1367
13565W        W31089  17.645  11.763  10.938 -0.1804  0.0773  0.0761
13566W        W31090  13.964   0.573   3.584 -0.1618 -0.2350  0.1677
13567W        W31091   3.368  15.026   3.582 -0.0658  0.3582  0.0921
13568W        W31092  15.629   0.046   2.221  0.0754  0.0499 -0.0584
13569W        W31093   6.346   0.565  12.126 -0.2453  0.3737 -0.2223
13570W        W31094   4.760  13.027  10.644  0.1106  0.0787 -0.0181
13571W        W31095   5.078  16.424   3.822 -0.0109  0.1065  0.4161
13572W        W31096  12.352   5.133  12.083 -0.0081  0.2534  0.1342
13573W        W31097   9.841   8.949  13.077 -0.4503  0.1550 -0.2049
13574W        W31098   6.020  15.165  13.989 -0.2679  0.2445  0.0061
13575W        W31099  15.246   1.693  15.779 -0.0676 -0.0853 -0.0433
13576W        W31100   4.946   9.910   4.329 -0.3313  0.1263 -0.0792
13577W        W31101   1.669   1.572   2.924 -0.0802  0.1983  0.0709
13578W        W31102  11.823  12.360   0.524 -0.1392 -0.0725 -0.1317
13579W        W31103  17.467  10.104  13.735 -0.0116 -0.0957  0.1371
13580W        W31104  16.985   7.067  11.627  0.0068  0.1011  0.0611
13581W        W31105   6.728   1.463   4.184  0.1880 -0.2998 -0.3959
13582W        W31106   3.743  17.559   4.272  0.0224  0.2373  0.0485
13583W        W31107   8.659   5.941   0.071  0.2241 -0.1536  0.1732
13584W        W31108  14.002  17.009  14.314 -0.0093 -0.1921 -0.2348
13585W        W31109   3.168   7.493  13.258  0.0132 -0.0590 -0.1679
13586W        W31110   2.623   9.249  13.047  0.0010  0.0199 -0.1482
13587W        W31111  10.700  12.009   2.618 -0.0790 -0.0419  0.4177
13588W        W31112   9.383  12.178   2.558  0.1678 -0.0332  0.3693
13589W        W31113  15.409   9.423   1.808 -0.1467 -0.2075  0.1945
13590W        W31114   8.211   5.930   1.968 -0.1371  0.0968  0.0323
13591W        W31115   2.692   4.805   2.098  0.2906 -0.4561  0.4155
13592W        W31116  11.120  15.063   1.058 -0.0703 -0.0324  0.0334
13593W        W31117   5.956  10.980   0.560 -0.3568 -0.0661  0.1948
13594W        W31118  11.934  11.395  12.875 -0.1844  0.2583 -0.1489
13595W        W31119  13.798   7.531   2.621  0.0003 -0.3280  0.0159
13596W        W31120   9.189   0.714  13.424  0.1204  0.3227 -0.0521
13597W        W31121   9.083   2.310  15.758  0.0418 -0.1158  0.2567
13598W        W31122   3.317   7.956   2.074  0.0442  0.1273  0.2044
13599W        W31123   1.412   5.254  15.905  0.2655 -0.1469  0.1679
13600W        W31124  14.167   4.513   5.027 -0.2087 -0.1445 -0.1091
13601W        W31125   0.978  16.831  14.835  0.3507  0.1459 -0.0510
13602W        W31126   5.213   9.161   3.686 -0.1413  0.0501 -0.1278
13603W        W31127   8.582   1.820   1.791  0.0203 -0.0501  0.1131
13604W        W31128   6.453  14.836  15.674  0.2950 -0.0580 -0.1070
13605W        W31129  16.383   7.837   1.393 -0.0840 -0.3059 -0.1915
13606W        W31130   2.977  15.661   4.616  0.2989  0.2764  0.2587
13607W        W31131   7.761  17.461   4.926  0.4505 -0.2332 -0.0295
13608W        W31132  16.562  11.893   2.765 -0.0296 -0.1765 -0.0458
13609W        W31133   2.523  14.801  14.996  0.0219  0.0921  0.3128
13610W        W31134   2.373  15.770   0.750 -0.3714 -0.1271 -0.0071
13611W        W31135  11.508   4.608  10.976  0.0158  0.2263  0.2235
13612W        W31136  11.603   7.396  15.070 -0.0720  0.1796  0.3293
13613W        W31137   8.409   6.559   1.265  0.0269 -0.1394  0.1389
13614W        W31138   1.943   2.372   1.702  0.1106  0.3787  0.1246
13615W        W31139   0.581  11.218  13.732  0.1181 -0.2126  0.0807
13616W        W31140  11.658  14.543  13.742  0.0313 -0.0796  0.1421
13617W        W31141  13.922  16.688  11.215 -0.2884 -0.3382  0.3698
13618W        W31142   7.491   5.558   1.561 -0.0854 -0.1812 -0.0663
13619W        W31143   1.877   0.270  13.245 -0.2927 -0.0146 -0.1886
13620W        W31144   7.760  12.364   2.034 -0.1706 -0.2402 -0.2063
13621W        W31145  10.875  15.102  13.182 -0.0139 -0.1859  0.1293
13622W        W31146   6.316  10.195  10.491  0.1509  0.1174  0.0682
13623W        W31147  17.295  10.898  12.381  0.0625  0.1124  0.0653
13624W        W31148  12.041  10.308   2.083  0.1069  0.0885 -0.2736
13625W        W31149   6.004   3.642  12.213  0.0542  0.1098  0.1452
13626W        W31150   8.059   9.481  10.846  0.2139  0.1523 -0.0712
13627W        W31151  18.051   5.430  14.676 -0.0484  0.0818  0.1098
13628W        W31152  15.911   2.080  15.116  0.2888 -0.2580  0.0267
13629W        W31153  14.597  13.833  11.938 -0.2339  0.1793 -0.4205
13630W        W31154   0.329   9.880   3.951 -0.1994 -0.1218  0.2686
13631W        W31155  10.413  11.353  14.413  0.0843  0.3009 -0.2935
13632W        W31156   1.933   4.740   6.147 -0.3104  0.0399  0.1048
13633W        W31157  14.155   2.332   1.941  0.2161 -0.0599 -0.2909
13634W        W31158  10.842  16.388  14.808 -0.0986  0.1944  0.0260
13635W        W31159  14.164   1.493   3.068  0.1552  0.1469  0.2132
13636W        W31160   4.023  13.216   4.523 -0.2766  0.2085 -0.0285
13637W        W31161   0.457  17.772  15.699 -0.1918  0.0628 -0.1502
13638W        W31162   5.838   7.810   1.427 -0.3532 -0.3767  0.1300
13639W        W31163   1.900   7.662   1.843  0.0845 -0.2380 -0.0424
13640W        W31164   3.861  15.892  13.043  0.1098 -0.1860 -0.1451
13641W        W31165  18.071  16.680  11.708  0.1044  0.3469 -0.0328
13642W        W31166   5.564   5.785  15.549  0.2025  0.3793 -0.0316
13643W        W31167   5.190   5.767   0.370 -0.0024 -0.2100  0.0835
13644W        W31168   1.225   9.183   2.487  0.0471 -0.1901 -0.0942
13645W        W31169  13.711  16.588  15.475  0.0008 -0.1214  0.2694
13646W        W31170  14.232  17.019   1.889 -0.2865 -0.1876  0.0045
13647W        W31171   0.515  13.235   1.383  0.0502 -0.2594  0.0989
13648W        W31172   3.191  14.049  15.854  0.1038 -0.1615  0.1854
13649W        W31173   0.817  14.204   1.237 -0.1207 -0.2219  0.2390
13650W        W31174  13.597   4.026  13.657 -0.0797  0.1790 -0.0216
13651W        W31175   5.148   4.431   4.545 -0.2789  0.1394 -0.3008
13652W        W31176  13.095  10.018  11.591 -0.4717 -0.4764 -0.2334
13653W        W31177   1.659   8.302  15.675 -0.1921  0.2305 -0.1013
13654W        W31178   3.175  12.849  13.290  0.4057 -0.0346  0.1815
13655W        W31179   9.983   4.105  13.886 -0.3939 -0.1151  0.3598
13656W        W31180   9.652  13.284   3.277  0.2586 -0.0943  0.1038
13657W        W31181  17.693   7.955   3.785  0.1471  0.2601 -0.0768
13658W        W31182   0.056  10.905  12.025  0.0204  0.4100 -0.0844
13659W        W31183   7.594   7.032  15.202 -0.1545  0.1462  0.1941
13660W        W31184   1.974  15.747  11.276  0.1198  0.0576 -0.2536
13661W        W31185   9.370  10.838   0.432 -0.1305 -0.1948  0.0709
13662W        W31186   8.283  13.448  12.733  0.0383  0.0314 -0.3196
13663W        W31187  10.672  12.443  11.876 -0.2573  0.0201  0.0417
13664W        W31188   1.069   6.602   4.699  0.2988  0.0121 -0.1995
13665W        W31189   1.231   2.443   2.336 -0.1067 -0.0251 -0.0760
13666W        W31190  14.337   8.418  12.907 -0.1924  0.2987 -0.0420
13667W        W31191  10.252  17.443   3.618 -0.0288 -0.2726  0.0829
13668W        W31192   1.173  13.025  13.115  0.0913 -0.1615  0.1397
13669W        W31193  17.538  13.613   0.886  0.1318 -0.0378  0.1044
13670W        W31194   0.548  14.903   3.574 -0.0632 -0.0137  0.2929
13671W        W31195   5.267  16.413   0.142 -0.2529 -0.0314  0.0625
13672W        W31196  10.351  15.366  11.384  0.1194  0.0425  0.3078
13673W        W31197  13.420  10.755   2.767  0.3018  0.0207 -0.0425
13674W        W31198   8.393  17.957  13.534  0.2720  0.1303 -0.0922
13675W        W31199  15.169   6.706   4.395 -0.1470  0.1904 -0.3000
13676W        W31200  14.809   3.210   2.175  0.3511 -0.0598  0.0050
13677W        W31201   6.888  17.711   3.824 -0.1789 -0.2732  0.0520
13678W        W31202  15.535  16.962   0.799 -0.3215 -0.1274 -0.1658
13679W        W31203   3.417  13.436  14.452 -0.0908 -0.3113 -0.2235
13680W        W31204  10.345   3.934   1.401 -0.0521  0.2817 -0.1165
13681W        W31205   1.064  10.723   2.123  0.1409 -0.1008  0.1823
13682W        W31206   0.203   0.635   0.414  0.2278  0.1578  0.0912
13683W        W31207  18.032   5.789  12.068 -0.2386  0.1024 -0.1397
13684W        W31208  16.580   4.229  12.152 -0.0292  0.0621 -0.1200
13685W        W31209  17.019   5.616   1.532 -0.0396  0.1806  0.1565
13686W        W31210   6.526   3.547  10.935  0.0594 -0.2437  0.0548
13687W        W31211   4.458   5.929   4.795  0.0567 -0.0394  0.0266
13688W        W31212  11.802   7.528  12.741  0.1145  0.0111  0.0034
13689W        W31213  15.662  16.172   2.941 -0.1282  0.2104 -0.1448
13690W        W31214   5.217  12.354   1.955  0.1573 -0.0650  0.1624
13691W        W31215  12.682  18.031  14.927  0.3791  0.1112 -0.1331
13692W        W31216   5.327   6.920   3.217 -0.1266 -0.0192  0.5354
13693W        W31217   5.486  11.845   1.313 -0.1245 -0.0835  0.0340
13694W        W31218   6.238  16.759   0.423 -0.1227 -0.0201 -0.1454
13695W        W31219  10.839  12.544  14.758 -0.3400  0.0416  0.0095
13696W        W31220  15.518  11.353  14.122 -0.0924 -0.3727  0.1735
13697W        W31221  13.515  12.970   5.632  0.1133  0.2733 -0.2486
13698W        W31222   8.119   3.096   2.601 -0.1770 -0.2138 -0.0965
13699W        W31223   2.300   2.534   3.262 -0.0976  0.0040  0.1114
13700W        W31224  12.987   2.260  12.590  0.1425 -0.0606 -0.4485
13701W        W31225   6.393   7.892  15.655  0.2792 -0.3069 -0.0883
13702W        W31226  12.712   2.748  11.766 -0.0592 -0.1306  0.1343
13703W        W31227   5.527   2.017   2.258 -0.2960  0.1127  0.0282
13704W        W31228   7.696  13.504   0.985  0.0547 -0.1608 -0.1197
13705W        W31229  11.041  13.121   9.998  0.0582  0.2052 -0.0582
13706W        W31230   4.745  15.286  12.558  0.0407  0.0948 -0.0523
13707W        W31231   1.303   2.840  12.388 -0.0493 -0.1170  0.0220
13708W        W31232  14.849   7.586   2.247 -0.1662 -0.0112 -0.0283
13709W        W31233  17.665   9.596  15.049  0.1436  0.2392 -0.0271
13710W        W31234   2.188  12.976   5.774 -0.2381  0.1097 -0.0203
13711W        W31235   7.587  12.182  13.371 -0.0596 -0.2338 -0.0288
13712W        W31236  12.344  14.787   3.960  0.1915 -0.0323  0.0911
13713W        W31237  17.592   4.095  12.014 -0.1797 -0.2248 -0.1197
13714W        W31238  13.594   2.020  14.658 -0.0718  0.0641 -0.0851
13715W        W31239  17.293   2.891  14.385 -0.0637 -0.0553 -0.1563
13716W        W31240   0.436   3.476   0.816  0.3122  0.0959  0.0534
13717W        W31241   8.156  14.544  12.445 -0.3996 -0.0172 -0.2573
13718W        W31242   4.872  17.387  11.988  0.2375  0.0682  0.1022
13719W        W31243   9.144  13.631  13.494  0.1100 -0.1682  0.2209
13720W        W31244  17.479  14.669  11.828 -0.2919 -0.4761 -0.1783
13721W        W31245  17.706  17.652   0.723  0.0918 -0.0004 -0.0785
13722W        W31246   1.986   9.344   3.017  0.1885 -0.1144  0.0982
13723W        W31247  11.698   0.603   2.681  0.1910 -0.0431 -0.0880
13724W        W31248   6.413  14.395  12.665  0.1930  0.3299 -0.0556
13725W        W31249   5.555  17.127  13.863 -0.0519  0.1224  0.1030
13726W        W31250   9.829  10.293  14.091  0.5953 -0.0750 -0.1216
13727W        W31251  11.492  14.757   2.773 -0.0330 -0.0766  0.1155
13728W        W31252   6.916   0.293   2.026  0.0834  0.2690 -0.0108
13729W        W31253   7.353   2.765  14.187  0.0390  0.1880  0.1050
13730W        W31254  12.877  10.001   5.240 -0.0298  0.1110  0.0735
13731W        W31255  16.040   6.749   5.401 -0.0531  0.0262 -0.5032
13732W        W31256   2.996  10.628   3.404 -0.2683  0.4897  0.0437
13733W        W31257   0.294   0.095   0.277 -0.1002 -0.1387  0.0179
13734W        W31258  12.813  17.130   4.252 -0.0197  0.1161 -0.2846
13735W        W31259  12.449  10.074  15.432  0.0135  0.0904 -0.1267
13736W        W31260  10.597  10.281  12.332  0.0800  0.0703 -0.0152
13737W        W31261  12.927  11.375   0.970  0.0039 -0.1822  0.0743
13738W        W31262  16.636   6.303   5.566  0.1269 -0.1305  0.0204
13739W        W31263   4.185   9.058   1.510 -0.1347 -0.1195 -0.0044
13740W        W31264   8.880   8.236   0.074 -0.0692 -0.4216  0.0360
13741W        W31265  10.002  10.503   4.231  0.0626  0.3008 -0.0007
13742W        W31266   7.210   3.673  15.730  0.3299 -0.0782  0.0411
13743W        W31267  18.091   6.925  11.785  0.2051 -0.1252  0.1049
13744W        W31268   1.299   4.975  12.934 -0.0336  0.0303 -0.0639
13745W        W31269  10.417  16.211  11.394 -0.0548 -0.1027  0.4802
13746W        W31270  16.297  18.048   1.315  0.0283  0.1712  0.0701
13747W        W31271   2.941   9.980   4.879 -0.3663 -0.0867  0.0688
13748W        W31272  17.690   1.635  14.496  0.0517  0.3098 -0.1983
13749W        W31273   1.846  14.989   0.832 -0.0187 -0.3838  0.1746
13750W        W31274   0.616  11.827  14.534  0.3137  0.3445 -0.0985
13751W        W31275   6.955  16.072  12.546 -0.0240 -0.0825  0.2354
13752W        W31276   0.784   0.546   1.654 -0.3941 -0.1953  0.2154
13753W        W31277   6.064   7.606  12.279 -0.2891  0.0951  0.0568
13754W        W31278  14.590   2.127   1.118  0.0284 -0.2968  0.1361
13755W        W31279  13.035   4.556   3.360  0.1139  0.3398 -0.0468
13756W        W31280  16.717   6.156   3.650 -0.4556 -0.2741 -0.1534
13757W        W31281   6.365   1.376  11.789 -0.0545  0.0421 -0.0231
13758W        W31282   5.144   1.930  11.435 -0.3340 -0.1596 -0.4441
13759W        W31283  14.267   2.332   2.819 -0.0602 -0.1201 -0.0484
13760W        W31284  12.682  15.147  15.489  0.1863 -0.2602  0.2355
13761W        W31285  13.105  15.106  13.599  0.1230 -0.0905  0.2821
13762W        W31286   4.605  13.077   2.700  0.3109 -0.1863 -0.1101
13763W        W31287   5.063   5.989   0.815  0.0794 -0.0113 -0.1182
13764W        W31288   7.856  10.621   3.102 -0.3061  0.1741 -0.0808
13765W        W31289   9.138  15.627  13.763  0.0049 -0.0066 -0.2811
13766W        W31290   9.312   6.202   0.390 -0.1199  0.1770 -0.3256
13767W        W31291  11.781  13.892  12.002 -0.0030  0.0509  0.0384
13768W        W31292  12.821   3.700   2.058  0.2469 -0.2821  0.0236
13769W        W31293   5.444  13.846   2.750 -0.2305 -0.3333  0.1522
13770W        W31294   4.288   9.933  13.953  0.2501 -0.0953  0.2590
13771W        W31295  17.351  10.958   4.018 -0.0240 -0.0663 -0.0820
13772W        W31296   1.393   4.637   1.346 -0.2768 -0.0888  0.0766
13773W        W31297   2.776   9.338  11.395  0.2431  0.1573  0.0965
13774W        W31298   0.205   4.616   2.001 -0.2956 -0.0087 -0.0501
13775W        W31299   4.110   5.277  12.918  0.0670  0.1947  0.4679
13776W        W31300  10.142  12.958   0.339 -0.0133 -0.1385  0.0501
13777W        W31301   8.405  13.116   5.652  0.0585 -0.1236  0.4095
13778W        W31302   2.353   7.409   2.921  0.0516  0.1968  0.3087
13779W        W31303   7.389   5.344   2.735  0.0405 -0.3529 -0.2083
13780W        W31304  12.685   3.470  14.017 -0.2400  0.0846  0.0059
13781W        W31305   5.811   6.284  14.180 -0.2685 -0.1014  0.0665
13782W        W31306   8.005  15.701   2.985 -0.0836 -0.1057 -0.0244
13783W        W31307  11.965   7.645   5.431 -0.1201  0.0026  0.1025
13784W        W31308   2.683  16.445   4.492  0.2236  0.0897 -0.1087
13785W        W31309   1.286   5.226  14.911 -0.3686 -0.1173  0.0035
13786W        W31310   0.357   9.761   2.060  0.1617  0.1807  0.1469
13787W        W31311  15.480   0.607  15.077  0.0042  0.1033  0.1032
13788W        W31312   6.046  16.627   1.402  0.0621 -0.0917 -0.2417
13789W        W31313   4.223  11.364   2.351  0.0569  0.0318  0.1657
13790W        W31314   4.475   7.827  13.040 -0.0294 -0.1060 -0.1856
13791W        W31315   6.183   8.748  15.165 -0.1581 -0.0642 -0.2651
13792W        W31316  15.197  13.479   4.892 -0.0174 -0.0113  0.0888
13793W        W31317   4.497  11.002   3.009  0.1801 -0.1907 -0.0025
13794W        W31318  13.770  11.170   2.311 -0.1335 -0.0215  0.1308
13795W        W31319  10.892   1.840  13.860  0.3400 -0.1754  0.1829
13796W        W31320   5.246  12.684   4.069 -0.1298 -0.2685  0.0505
13797W        W31321   3.994   6.738   2.947 -0.1545  0.1486 -0.1887
13798W        W31322  13.938  16.303  11.541 -0.1387 -0.0493  0.0694
13799W        W31323   4.338   0.126  11.309  0.1169 -0.2620 -0.0405
13800W        W31324  12.678  14.498  16.096 -0.0276  0.3652 -0.1628
13801W        W31325   7.182   8.245  12.684 -0.0171 -0.2584  0.0840
13802W        W31326   8.425  16.177  12.845  0.2025 -0.4834  0.0642
13803W        W31327   2.584  13.139  10.265  0.2000  0.3168 -0.2292
13804W        W31328   4.981  15.479  11.174  0.2842 -0.3045  0.0066
13805W        W31329  14.641  12.104  15.482  0.3715 -0.1916  0.0494
13806W        W31330   1.441   6.360  16.057 -0.0928 -0.2721 -0.3867
13807W        W31331   6.856  17.622  15.502  0.3315  0.0680 -0.0455
13808W        W31332   7.878   5.353  11.001 -0.0111  0.0289  0.2712
13809W        W31333  11.548  10.690  13.593 -0.0059 -0.2943 -0.1532
13810W        W31334  13.102   8.668  11.424 -0.0648 -0.1906  0.0850
13811W        W31335  17.480   1.287   1.153 -0.1221  0.0491  0.5511
13812W        W31336   2.849  12.481  13.523  0.1298  0.1969 -0.4308
13813W        W31337   5.586   6.513  13.100  0.2328  0.2063  0.0301
13814W        W31338   8.757   1.104   1.134 -0.2352 -0.1660 -0.3432
13815W        W31339   4.451   7.695  13.520  0.4656 -0.0722 -0.1835
13816W        W31340  13.077  16.420   3.982 -0.0888  0.1820 -0.1590
13817W        W31341  17.951  17.741   4.607  0.1377 -0.0664 -0.0991
13818W        W31342   2.636   1.120   2.525  0.0480  0.0690 -0.0220
13819W        W31343   5.449  11.916  11.171 -0.2153 -0.0981  0.1458
13820W        W31344  14.219   1.514  15.337  0.0477  0.0235 -0.0484
13821W        W31345   9.640   4.759   4.235  0.1427  0.1890 -0.0519
13822W        W31346   2.149   0.527   0.576  0.0889  0.0998 -0.0384
13823W        W31347  15.009   5.190  14.760 -0.0331  0.5511  0.2782
13824W        W31348  14.141  17.478   0.012 -0.1954 -0.2314  0.1466
13825W        W31349   2.298   7.268  10.898  0.2849  0.3020  0.2561
13826W        W31350  13.540   0.223  12.749  0.2370 -0.2858 -0.0714
13827W        W31351   3.640   7.885   4.305  0.0607 -0.0915 -0.3365
13828W        W31352  16.248   9.595   3.994 -0.0309  0.1510  0.1228
13829W        W31353   0.211   9.459  12.797 -0.2726  0.1621 -0.1552
13830W        W31354   7.455  13.175  14.307  0.3468  0.2788  0.0628
13831W        W31355  12.674   2.031  13.022  0.0045  0.0327 -0.4014
13832W        W31356  10.403   6.150  14.302 -0.1020 -0.3051  0.1716
13833W        W31357  16.488  13.197   1.890 -0.0159 -0.1180 -0.0639
13834W        W31358   7.031  14.110   1.236 -0.1504  0.0423  0.0498
13835W        W31359   3.650   6.309   3.239 -0.1277  0.3547  0.0761
13836W        W31360   0.400   6.242   2.027 -0.0364 -0.0952  0.1306
13837W        W31361   9.954  16.570   5.809 -0.1728 -0.0819  0.0762
13838W        W31362  18.050   7.080  15.804  0.1032 -0.0014 -0.0525
13839W        W31363  12.843  13.158   1.718  0.0249  0.1193 -0.1560
13840W        W31364  13.288   0.384  15.280 -0.1245 -0.1181 -0.0213
13841W        W31365   2.958  16.213   3.293  0.1869 -0.3557 -0.1355
13842W        W31366  15.646   1.523   2.291 -0.0789  0.1661 -0.2073
13843W        W31367  12.046  11.585  10.984 -0.0976 -0.1938  0.2358
13844W        W31368  12.851  18.064   2.070  0.2294 -0.0277  0.1589
13845W        W31369   6.951  11.410  15.332 -0.0160 -0.1001 -0.0239
13846W        W31370  12.214  14.792   3.502  0.1867  0.0153  0.1497
13847W        W31371   5.284  14.559  11.463  0.3103  0.3884 -0.3104
13848W        W31372  14.908  15.820  15.049  0.2164 -0.1920 -0.0451
13849W        W31373  16.765   8.012   0.636  0.0874  0.0044  0.0244
13850W        W31374   8.200  17.616  12.269 -0.0488 -0.0537  0.0213
13851W        W31375  16.675   3.453   0.124 -0.0014 -0.2321 -0.1353
13852W        W31376  16.537  10.984   2.877  0.1887  0.2634 -0.2316
13853W        W31377  18.066   8.906   5.699 -0.1288 -0.2204  0.0117
13854W        W31378  10.795  14.133   4.329 -0.1776  0.1052  0.1922
13855W        W31379  16.168  14.648   4.050 -0.2254  0.1312 -0.0827
13856W        W31380   0.006  16.153  15.365  0.2842 -0.1762 -0.0497
13857W        W31381  10.335   2.045  15.512 -0.1334 -0.2417  0.0359
13858W        W31382   6.676   0.800   0.163 -0.0037  0.2289  0.0233
13859W        W31383   3.790   4.732  13.349  0.0475  0.1689 -0.1729
13860W        W31384  17.950  15.060   2.169 -0.0891 -0.0250  0.4285
13861W        W31385   8.117   7.793  15.432  0.0248 -0.0569  0.2130
13862W        W31386   0.068  17.631  14.446 -0.1836 -0.0795 -0.1151
13863W        W31387  12.098   4.218  13.344 -0.0208  0.0869 -0.1802
13864W        W31388   4.241  10.877  11.928  0.1891 -0.0442 -0.1834
13865W        W31389   0.264   1.564  12.215 -0.0801  0.2372 -0.3432
13866W        W31390   7.668   7.510   5.994  0.0128  0.0191  0.3949
13867W        W31391   0.933  10.397   5.369  0.0025  0.4099 -0.2180
13868W        W31392   8.713   7.803   2.098 -0.1529 -0.1200  0.2042
13869W        W31393   9.970  13.588  13.491  0.4764  0.1675 -0.1166
13870W        W31394   8.159   5.367  13.658 -0.1140 -0.2054  0.0610
13871W        W31395   0.451   9.465  13.651 -0.2737  0.2948 -0.0607
13872W        W31396  17.809  10.237   4.880 -0.0633  0.2065 -0.1259
13873W        W31397   8.932   5.770   0.710  0.2365 -0.0966  0.1914
13874W        W31398   2.703   6.488  15.846  0.1605  0.2218 -0.0794
13875W        W31399  15.115  10.207  12.206  0.2697 -0.1010 -0.1470
13876W        W31400  10.258  14.607   2.968 -0.1497 -0.1385  0.0471
13877W        W31401   1.837   7.665  14.374 -0.2615 -0.0821  0.0326
13878W        W31402   8.630   3.222  12.113 -0.2487  0.0081  0.0494
13879W        W31403   5.174   2.407   0.748 -0.2816  0.2385 -0.0863
13880W        W31404  16.956   3.874   3.295 -0.2938 -0.0199 -0.2308
13881W        W31405   1.241  17.304  14.030 -0.1847  0.2278  0.0615
13882W        W31406  17.556   4.850   4.228  0.0071 -0.1519  0.0036
13883W        W31407   5.415   7.799  15.906  0.0649  0.2656  0.2217
13884W        W31408   8.579  12.787   0.522  0.0281  0.0776 -0.1156
13885W        W31409  14.368   5.435   3.623 -0.2097  0.0845 -0.2721
13886W        W31410  10.103  12.041   4.661  0.2396 -0.0024 -0.2886
13887W        W31411   5.039   9.445  10.382  0.0059 -0.3525  0.0416
13888W        W31412   4.403   4.314   0.905  0.0796  0.0793  0.0255
13889W        W31413  17.108  10.583  14.983  0.0941 -0.2646  0.0967
13890W        W31414   6.499  17.313   4.982 -0.4352 -0.1123  0.1058
13891W        W31415  12.679  10.776  13.942 -0.0997  0.0713  0.0987
13892W        W31416   5.112   0.934   3.852  0.0025 -0.1237  0.0593
13893W        W31417   6.793   8.701  11.549  0.2570 -0.2582  0.0770
13894W        W31418  10.340  16.331   0.271 -0.1177  0.1371 -0.2496
13895W        W31419  14.767   6.428   4.626  0.1647  0.1532 -0.2964
13896W        W31420   9.873   4.482   3.832 -0.0023 -0.3563 -0.0548
13897W        W31421   9.441   2.433   3.633  0.2422  0.2614 -0.0432
13898W        W31422  10.318   5.910   2.985  0.3607  0.0668  0.1554
13899W        W31423   6.797  17.700   4.830  0.0873  0.3809 -0.2586
13900W        W31424   1.689  11.014  11.624 -0.0485 -0.3177 -0.1018
13901W        W31425   1.360  10.915  13.472  0.1862 -0.0530  0.1500
13902W        W31426  15.303   4.551  14.597 -0.2819  0.2750 -0.1908
13903W        W31427   1.541  14.742  12.476 -0.2620 -0.4228 -0.2368
13904W        W31428   0.911   3.503  15.731 -0.0574 -0.2974  0.3401
13905W        W31429   2.454   0.920  12.819  0.0250  0.1076  0.1512
13906W        W31430   0.555   9.951  13.528  0.0790 -0.2498  0.4731
13907W        W31431   5.210   9.245  15.103  0.3151  0.0760  0.0389
13908W        W31432   2.417  12.833   2.241  0.0727  0.0963  0.2300
13909W        W31433  10.041  10.503   1.905  0.1602  0.0700 -0.2171
13910W        W31434  17.749   5.956   3.705  0.1025 -0.2139 -0.1051
13911W        W31435   0.971  17.090  15.367  0.2456 -0.0129  0.2080
13912W        W31436   4.297  14.373   2.474 -0.0027 -0.0072 -0.1792
13913W        W31437   6.371   9.090   5.625  0.1608 -0.1340 -0.1367
13914W        W31438  15.182   6.658   1.790  0.1816 -0.0078 -0.1061
13915W        W31439   6.147   8.238  10.945  0.2376 -0.1372  0.1304
13916W        W31440   2.027   1.366   5.412  0.0218  0.1463 -0.3122
13917W        W31441  12.752  11.966   1.419  0.2026 -0.1101 -0.0640
13918W        W31442   9.902   1.118   2.296  0.2187  0.1447 -0.0043
13919W        W31443  14.525   5.475  15.585  0.1636 -0.0894  0.0107
13920W        W31444   5.721  10.819   3.602  0.3047  0.3106 -0.1724
13921W        W31445  14.874   2.777  14.480  0.1921 -0.0130 -0.0513
13922W        W31446   7.808  18.117   1.109 -0.1551  0.0759  0.2802
13923W        W31447  17.226   4.816   3.523  0.1038  0.1346  0.1919
13924W        W31448   3.894   3.663  12.271 -0.1551 -0.0552 -0.2220
13925W        W31449  14.496   0.158   4.250  0.1108  0.0865 -0.2810
13926W        W31450   8.675   1.136  12.618 -0.0757  0.0002 -0.1794
13927W        W31451  16.749   8.921   0.547  0.4103  0.0105  0.2003
13928W        W31452   7.497  17.534   1.543 -0.0731 -0.1012 -0.3020
13929W        W31453   1.184  13.491   2.365  0.1919  0.1705  0.1131
13930W        W31454   6.662   8.870  14.945 -0.0638 -0.0995 -0.0670
13931W        W31455   8.045   4.580   4.187 -0.0154  0.1413  0.3685
13932W        W31456  12.106  16.995  14.410 -0.1865  0.2052 -0.3053
13933W        W31457  14.729   7.236  11.730 -0.2114 -0.0812 -0.0814
13934W        W31458   0.340   3.215  12.200 -0.0346  0.0047 -0.1759
13935W        W31459  11.581   3.090   3.894 -0.3040 -0.1929  0.1227
13936W        W31460   4.735   2.615   0.739  0.1846 -0.2890 -0.0964
13937W        W31461   8.838  11.857  12.328 -0.4164 -0.1490  0.1536
13938W        W31462  10.662   5.410   0.911 -0.1009  0.0374 -0.1340
13939W        W31463   5.178  11.779   5.018 -0.0279 -0.2622 -0.0055
13940W        W31464  12.193   8.311   3.550 -0.2285 -0.1861 -0.1150
13941W        W31465  10.609   9.659   1.795  0.1294  0.1934  0.0896
13942W        W31466  14.866  16.404   0.233  0.0385 -0.1642 -0.1363
13943W        W31467   1.295  12.165   0.086 -0.0373  0.0298 -0.2306
13944W        W31468   9.877   7.595  15.216  0.2288 -0.6378 -0.4928
13945W        W31469   2.489   0.196  13.981  0.0725  0.1939 -0.1166
13946W        W31470   7.606   6.371   1.284 -0.2738 -0.1628  0.3890
13947W        W31471   2.549  11.568   2.544 -0.1548  0.2779  0.0209
13948W        W31472   1.498   7.545   0.947 -0.1997  0.0541  0.0913
13949W        W31473  16.937  12.343   0.686 -0.1577 -0.1627  0.1756
13950W        W31474  12.368   9.030   1.142  0.4046  0.3695  0.0952
13951W        W31475   7.739   2.444  11.124 -0.3160  0.2471  0.0964
13952W        W31476   6.547   6.453   2.208 -0.2760  0.1558  0.3042
13953W        W31477  11.898  11.433   3.811 -0.1013 -0.0941 -0.1808
13954W        W31478   4.146  15.806  14.936  0.3330 -0.1543  0.2992
13955W        W31479   4.222   8.557  12.254 -0.2340 -0.0588  0.3310
13956W        W31480   8.822   0.530   3.415 -0.2530 -0.2128  0.1807
13957W        W31481  16.988  14.334  11.339 -0.2125  0.4463 -0.0459
13958W        W31482  11.802   9.558  15.109  0.4224 -0.1104 -0.1850
13959W        W31483   9.382  13.287   1.568  0.0515  0.0392 -0.0370
13960W        W31484  13.026  16.180   1.641 -0.3071  0.0690 -0.1846
13961W        W31485  15.118  17.034  12.742 -0.1717  0.0904 -0.1476
13962W        W31486   9.379  12.472   0.146 -0.0587  0.2116 -0.3297
13963W        W31487  12.745   2.543   1.436 -0.0160  0.1479 -0.1551
13964W        W31488   3.748  14.263   2.400  0.0600  0.2970 -0.1848
13965W        W31489  14.254  11.151  11.567  0.0787 -0.2890  0.1911
13966W        W31490  13.522   7.653   1.413  0.3091 -0.0520 -0.3113
13967W        W31491   7.042   8.497   1.817 -0.0854  0.2010 -0.2197
13968W        W31492   5.137  13.291  15.247  0.1303  0.2052  0.1252
13969W        W31493   4.246  11.654   4.846 -0.1442 -0.4847  0.0101
13970W        W31494   0.561   3.570   3.039  0.0045  0.1306 -0.0782
13971W        W31495  14.823   8.438  15.110  0.1088 -0.2240 -0.4007
13972W        W31496  15.026   6.952  13.134  0.2725  0.1176  0.1087
13973W        W31497  16.977  17.782   3.446 -0.0074  0.1921  0.1669
13974W        W31498  13.008   5.715  14.382  0.2237 -0.4687  0.1959
13975W        W31499   7.544   1.942   2.670 -0.3090  0.0837 -0.0686
13976W        W31500  16.849   0.662  11.720 -0.0313  0.0500 -0.0159
13977W        W31501  16.293  12.104  13.255 -0.3548  0.1639 -0.5096
13978W        W31502   5.802  13.475   0.636 -0.0735 -0.0454 -0.1033
13979W        W31503   3.329  11.603  11.765  0.2080  0.2424  0.1912
13980W        W31504   8.945  17.127  14.844 -0.1090  0.0780  0.0720
13981W        W31505   7.357   5.349   2.027  0.0511 -0.0571  0.0408
13982W        W31506  16.465  17.783   4.253  0.0146 -0.3785 -0.1235
13983W        W31507  13.080   9.615  13.491  0.2101  0.0181 -0.0397
13984W        W31508   0.727  14.267   4.258 -0.0949  0.0328  0.2267
13985W        W31509   9.728  11.568   3.707 -0.0256  0.1420  0.3111
13986W        W31510  16.070  10.675  14.078 -0.0152 -0.0567 -0.0742
13987W        W31511  12.888   2.184  10.648  0.0657 -0.1588 -0.3213
13988W        W31512   6.497  11.374  12.594  0.1212 -0.1353 -0.2805
13989W        W31513   2.918  18.030   4.079 -0.1184 -0.5054  0.2600
13990W        W31514   0.490  17.326   3.017 -0.2077  0.0862 -0.0402
13991W        W31515  14.852   3.479  15.171  0.0153  0.0479  0.1180
13992W        W31516  17.229  10.060  14.135 -0.3774 -0.1593 -0.0326
13993W        W31517   5.152   1.591   4.424 -0.0724 -0.3157  0.0717
13994W        W31518  13.014   1.420  13.556  0.4802 -0.0704  0.0865
13995W        W31519  10.013   3.901  14.389  0.1144 -0.1006 -0.0416
13996W        W31520  13.240  13.353   5.142 -0.3355 -0.2855 -0.1390
13997W        W31521  13.382  16.867   1.744 -0.1015  0.0385 -0.0124
13998W        W31522   4.235  12.150  13.751 -0.1319  0.0998  0.4328
13999W        W31523   5.907   1.009   1.406  0.0018 -0.2140  0.2545
14000W        W31524  10.108  15.814  11.285  0.1172  0.3061  0.3748
14001W        W31525  11.960   5.529   2.454 -0.0542 -0.1150  0.2782
14002W        W31526   3.824   9.155   2.967  0.1188 -0.0317 -0.0590
14003W        W31527  11.479   6.800  10.873  0.0854 -0.3456  0.1060
14004W        W31528   1.078   1.627   0.324  0.4450 -0.3196  0.0587
14005W        W31529   7.565  14.572   3.139  0.0796 -0.0079 -0.0322
14006W        W31530   2.970  10.187   0.809 -0.0365  0.1196  0.1121
14007W        W31531   2.301  10.499   1.904  0.0384 -0.0085  0.0253
14008W        W31532   9.151   6.055  13.193 -0.3432 -0.1782  0.2443
14009W        W31533   8.744  10.625   2.396  0.1714 -0.0694 -0.2712
14010W        W31534  16.269   5.811  14.176  0.0863 -0.1789 -0.1733
14011W        W31535   1.117   2.063   1.981  0.0963  0.0211 -0.0933
14012W        W31536   6.915  11.660   2.798  0.0979 -0.3956 -0.1163
14013W        W31537  16.452   5.108  15.851  0.0682  0.0141 -0.1784
14014W        W31538  11.334   7.789  11.140  0.2109  0.0213  0.1115
14015W        W31539   6.469   7.151  10.846  0.2392  0.0397 -0.3374
14016W        W31540   8.100  18.103  11.919  0.2210  0.3368  0.2536
14017W        W31541  10.320  13.271  14.465 -0.3159 -0.0235 -0.2056
14018W        W31542   5.969   4.818  15.631  0.1093 -0.2336 -0.2724
14019W        W31543  13.973   8.459   5.194  0.4424  0.1044  0.1221
14020W        W31544  15.671   4.127  15.300  0.2515  0.1893  0.1816
14021W        W31545   4.566   2.914   9.965  0.0158 -0.2576 -0.3875
14022W        W31546  13.157  12.918   0.911 -0.1465 -0.0622  0.1096
14023W        W31547  11.188   2.625   0.254  0.1688 -0.0788  0.0304
14024W        W31548   3.562  15.518  12.019 -0.2754 -0.0470 -0.2576
14025W        W31549   5.017  15.392  13.445 -0.1019  0.2286 -0.4886
14026W        W31550   4.040   6.413  10.443 -0.1723 -0.1740  0.2220
14027W        W31551  14.657  12.939   1.238 -0.1083  0.2314 -0.1933
14028W        W31552   7.578   0.445  15.621  0.1710  0.2315 -0.4001
14029W        W31553  16.267  12.273   0.782  0.0192 -0.1978 -0.2923
14030W        W31554  12.933  17.019  12.900 -0.0591  0.0431 -0.0963
14031W        W31555   9.625  10.579  12.264 -0.1199 -0.0365 -0.2056
14032W        W31556  14.460   3.489   4.619  0.1090 -0.1098 -0.4023
14033W        W31557  14.537  16.222  12.778  0.3488 -0.1879 -0.3394
14034W        W31558  10.254  12.191  11.504  0.2150 -0.2696 -0.0824
14035W        W31559  14.281   1.752   2.600 -0.1308 -0.2139  0.0534
14036W        W31560   5.619  14.404  15.659 -0.0764 -0.0055  0.0576
14037W        W31561   3.089   5.218   2.773  0.1829 -0.0421  0.1746
14038W        W31562  13.612   9.694   2.288 -0.2207 -0.1302 -0.0564
14039W        W31563   1.723   4.161  12.216  0.1729  0.0732 -0.0283
14040W        W31564  15.091   3.429   1.449  0.1208 -0.0545 -0.1072
14041W        W31565   4.471   0.823   4.729  0.2467  0.1528  0.3618
14042W        W31566   8.956  11.992   1.068  0.0853  0.0362  0.4613
14043W        W31567   4.490   7.386   3.213  0.1086 -0.0550  0.0582
14044W        W31568   0.766  14.101   0.353  0.0691  0.1763  0.2770
14045W        W31569   2.990  16.773  12.338  0.1026 -0.2979 -0.2332
14046W        W31570  17.861   5.095  15.535  0.1105  0.3772 -0.0340
14047W        W31571  16.344  13.862  15.402 -0.0159  0.1658 -0.1170
14048W        W31572  10.223  15.226  15.701 -0.3209 -0.1751 -0.1920
14049W        W31573   7.940  17.638   0.829  0.0845  0.0912  0.1171
14050W        W31574  17.087   2.854  13.973 -0.0117  0.3787 -0.0420
14051W        W31575   4.636  11.243   2.596  0.2117 -0.0254  0.2596
14052W        W31576  16.976   0.414  16.033 -0.2592 -0.0481 -0.2022
14053W        W31577  14.244   6.915   6.477 -0.2035  0.2218 -0.1750
14054W        W31578  12.869  11.141  11.958 -0.0706  0.0742 -0.1998
14055W        W31579  14.079  16.263  13.066  0.1941  0.2627  0.1078
14056W        W31580  11.072  10.559  14.878 -0.0096  0.3289  0.4385
14057W        W31581  10.219   0.154  14.189 -0.0895  0.1220  0.1729
14058W        W31582  11.312  10.245   2.389  0.2669  0.2742  0.4090
14059W        W31583  13.024   2.913  13.964 -0.0471 -0.3451  0.0388
14060W        W31584   2.662   7.818   5.397  0.2937 -0.0297  0.3540
14061W        W31585  17.467   1.807   1.755  0.2768  0.1473  0.1147
14062W        W31586  11.783   5.468   1.573  0.3444 -0.2081 -0.0509
14063W        W31587  14.701   9.873  12.130 -0.0163 -0.1956  0.1097
14064W        W31588   4.073   3.001   4.239 -0.0697  0.2820 -0.2259
14065W        W31589   0.970   8.036   2.845  0.1308 -0.1917 -0.0985
14066W        W31590   7.863   2.086  12.135  0.1846 -0.0944  0.4336
14067W        W31591  16.360   0.088   4.585  0.0810  0.0499  0.1441
14068W        W31592  16.063  15.958   1.596  0.2417 -0.1045 -0.0744
14069W        W31593   8.959  11.602   2.569 -0.0359  0.1190  0.2404
14070W        W31594  12.607  11.580   2.298  0.0420  0.2238  0.3473
14071W        W31595   9.825  12.624  14.269  0.2351 -0.0765  0.1263
14072W        W31596   1.325   6.391   4.298 -0.1320  0.0945 -0.0520
14073W        W31597   7.179   6.396  14.846  0.0052 -0.0470 -0.0984
14074W        W31598  10.147  10.848  11.786  0.0620 -0.1608 -0.2130
14075W        W31599   7.719   7.130   4.437 -0.0995  0.2342  0.0477
14076W        W31600   1.867   3.541   3.307 -0.1516  0.2236  0.4074
14077W        W31601   5.094   7.452   9.904  0.1026  0.1085  0.2421
14078W        W31602  11.859   6.445  15.142  0.0636 -0.2459  0.0180
14079W        W31603   8.140  13.367  11.825  0.1656  0.1510  0.2034
14080W        W31604  12.787   9.155  12.655  0.1828  0.0357  0.0736
14081W        W31605  10.885  13.084   4.234  0.3507  0.0945  0.0854
14082W        W31606   8.301   2.289   4.407  0.3370  0.0426  0.1297
14083W        W31607  17.924   5.194   4.212  0.0086  0.1687  0.0551
14084W        W31608   3.838   7.642  15.827 -0.0425  0.0818  0.0150
14085W        W31609  15.650   5.041   0.637  0.1209 -0.1227 -0.0183
14086W        W31610  10.303   0.785  12.020 -0.2482  0.1666 -0.2711
14087W        W31611   7.092   8.353  11.896 -0.3213 -0.0522 -0.1799
14088W        W31612  17.296   6.835  12.468  0.0590 -0.1863  0.1878
14089W        W31613   3.073  13.008  15.862  0.2383 -0.1234 -0.5257
14090W        W31614   6.488  14.177   0.271  0.0780  0.1160 -0.0038
14091W        W31615   2.410   2.683  12.913 -0.0411  0.2810  0.2143
14092W        W31616  12.046  16.951  15.087 -0.0521 -0.3943 -0.2423
14093W        W31617  16.659   0.445   2.972  0.1192 -0.1728  0.0552
14094W        W31618   8.542   4.242   1.249  0.1397 -0.2691 -0.1339
14095W        W31619  17.703   0.920  15.922  0.0625 -0.2437 -0.2250
14096W        W31620   6.683   7.368   0.171  0.2008  0.1163  0.0623
14097W        W31621   2.345  14.215  15.716  0.3024  0.1897 -0.1446
14098W        W31622   1.414   0.605   2.334  0.1143 -0.1056  0.0637
14099W        W31623   5.269  17.496  14.784 -0.1848 -0.0303  0.0969
14100W        W31624  16.803  13.074  12.859  0.1350  0.3254 -0.0121
14101W        W31625   2.185  18.021  13.849 -0.3898 -0.0326  0.3070
14102W        W31626   8.221  17.570  13.837  0.1671 -0.0571 -0.0624
14103W        W31627  17.249  15.852   1.193 -0.1102  0.2617 -0.0382
14104W        W31628   3.189  16.276  15.591  0.4435  0.1681  0.0791
14105W        W31629   4.959   6.519  14.720 -0.0163 -0.1270 -0.4287
14106W        W31630  13.754  17.722  12.153 -0.1813 -0.2554  0.0581
14107W        W31631   8.361   5.753  11.179 -0.2082 -0.0257  0.0743
14108W        W31632   4.113   8.090   4.928  0.2246  0.3484 -0.0639
14109W        W31633   8.893   1.033  14.430 -0.1798  0.1672  0.0718
14110W        W31634  11.091   1.434   1.785 -0.1828 -0.1445 -0.0526
14111W        W31635   7.921  12.288   3.435  0.1034  0.0808 -0.0941
14112W        W31636   5.963   4.237  12.465 -0.1340 -0.0805  0.2279
14113W        W31637  14.595   8.529  14.197 -0.0552 -0.0102 -0.0069
14114W        W31638   5.055  10.480  11.837 -0.1482  0.2294 -0.0906
14115W        W31639  14.910  13.437   1.032  0.2479 -0.2015  0.0355
14116W        W31640   3.082   8.274   1.713  0.0902  0.0936  0.1377
14117W        W31641   8.959   6.884   0.447  0.0635 -0.1701  0.0941
14118W        W31642   8.261   6.594   4.024 -0.0776  0.0340  0.0099
14119W        W31643   5.013   2.147   3.558 -0.0786 -0.1000 -0.1231
14120W        W31644   5.900  13.256  15.074  0.2719 -0.1134  0.1986
14121W        W31645   7.847   7.924  11.979  0.2588 -0.1608  0.1654
14122W        W31646   0.723  18.091   0.470 -0.0029  0.3540  0.2778
14123W        W31647   1.989   3.260   1.458 -0.0459  0.0181  0.2506
14124W        W31648  12.856   6.767  12.972 -0.3248 -0.3827  0.0184
14125W        W31649   3.773  10.411   2.358 -0.1691 -0.0277  0.0799
14126W        W31650   1.543  17.230   4.110  0.0467 -0.1398 -0.1955
14127W        W31651  14.885   8.989   4.920  0.2005  0.0136 -0.2034
14128W        W31652   2.125  11.994   0.687 -0.1960 -0.2163 -0.2437
14129W        W31653   4.292   1.259   0.826 -0.3427  0.1179 -0.2362
14130W        W31654   6.848   9.929  15.202  0.1777 -0.0420  0.1095
14131W        W31655  16.557   6.875   2.114  0.0356  0.0377 -0.1130
14132W        W31656   5.594  17.225  15.111 -0.1348  0.1478 -0.1487
14133W        W31657   4.711   1.320   1.389  0.1301  0.3089  0.1159
14134W        W31658  14.399  16.538   3.527  0.0533  0.0586 -0.0631
14135W        W31659   6.620  13.755  12.947  0.0613  0.4495 -0.3092
14136W        W31660  11.257  11.392   3.287 -0.0437 -0.2694  0.2475
14137W        W31661   5.679   9.278  10.910  0.4756 -0.1108  0.2451
14138W        W31662  14.635   4.335   4.289  0.0890 -0.0825 -0.2046
14139W        W31663   3.781  17.698   0.773 -0.2998 -0.0421  0.2231
14140W        W31664  11.692   3.517   9.991  0.2421  0.0159 -0.2547
14141W        W31665  12.348   3.367  11.038 -0.1583 -0.2513 -0.0610
14142W        W31666  11.350  14.018   1.521  0.1505 -0.2877 -0.2755
14143W        W31667  11.144   3.151   3.659 -0.1423 -0.1166  0.0572
14144W        W31668  17.259  14.026   4.643  0.1560 -0.1403 -0.0298
14145W        W31669  16.984   3.164   2.745 -0.2457  0.3775  0.0796
14146W        W31670  10.972  10.521  14.326  0.1543 -0.0566 -0.0027
14147W        W31671   0.310   0.341  13.169 -0.1353  0.1853  0.4854
14148W        W31672   4.274   7.875  16.023 -0.0002  0.1045 -0.0188
14149W        W31673   3.876  15.054   2.356  0.2129  0.1017 -0.0690
14150W        W31674   8.946  16.977  12.045 -0.2817 -0.0567 -0.2207
14151W        W31675   3.090   6.682  12.931  0.1631 -0.2976 -0.1553
14152W        W31676   0.561   1.350   4.696 -0.1510  0.0095 -0.0413
14153W        W31677   9.485   4.175   1.426 -0.0057  0.3389 -0.1785
14154W        W31678  16.352  12.168   3.586 -0.2264 -0.3680  0.3099
14155W        W31679   1.799   2.555  14.555  0.0477 -0.2369  0.2810
14156W        W31680  12.201   4.401  14.500  0.4060 -0.3082 -0.0129
14157W        W31681   0.621   7.337   2.486  0.0897 -0.0388 -0.2251
14158W        W31682  16.994   3.491  13.874  0.2031 -0.0709 -0.0860
14159W        W31683   4.422  18.063   4.358 -0.0306  0.2294 -0.1217
14160W        W31684  10.296  14.201   4.226  0.2661 -0.0837  0.0833
14161W        W31685  13.330  10.757   5.066 -0.1289  0.0693  0.0281
14162W        W31686  17.513   1.493  15.065 -0.0532  0.0508 -0.0324
14163W        W31687  11.070   9.222  15.387  0.0230 -0.2530  0.0675
14164W        W31688  16.895   0.575   1.324 -0.0961 -0.0280 -0.1313
14165W        W31689  12.400  13.867  10.976  0.1244  0.0109  0.2620
14166W        W31690  17.431  13.626  12.731  0.0163  0.0492 -0.0014
14167W        W31691   6.692  14.489   4.356  0.2370  0.1530 -0.0924
14168W        W31692  17.030   8.330  14.644  0.2295 -0.0880  0.0381
14169W        W31693  11.601  11.468   4.249 -0.2307 -0.0738 -0.0453
14170W        W31694   4.636  17.368  12.936 -0.0957 -0.2582 -0.1411
14171W        W31695  12.084  14.018   1.165  0.0244  0.1953  0.0385
14172W        W31696   0.971   4.972  11.219 -0.3314  0.0187 -0.1947
14173W        W31697   6.968   5.055   0.461  0.0629 -0.3040 -0.1476
14174W        W31698   0.489   3.573  15.969 -0.1356 -0.2048  0.0112
14175W        W31699  16.310   2.359  15.776 -0.2850 -0.1599  0.0257
14176W        W31700   8.149  16.320  14.203  0.1771  0.3139  0.1737
14177W        W31701   1.692   1.784  14.233  0.1879 -0.0257  0.1964
14178W        W31702   3.210   7.042   4.704  0.3350 -0.0006 -0.1686
14179W        W31703  17.388   7.824   4.172 -0.0050 -0.3072  0.3275
14180W        W31704   2.056  10.101   1.909  0.3504  0.1191 -0.1634
14181W        W31705   1.314   7.998  13.702 -0.1583  0.3949  0.0317
14182W        W31706  17.377   2.223   2.314 -0.1536 -0.0962 -0.1279
14183W        W31707  10.788   8.611  11.991 -0.0828 -0.0870 -0.0474
14184W        W31708  12.849   0.669   1.515  0.0043 -0.0752 -0.1562
14185W        W31709  16.307  14.375  15.594  0.5027 -0.1602  0.0313
14186W        W31710  16.309  15.362  15.620  0.0509  0.0190 -0.1471
14187W        W31711   5.464   7.717   5.020  0.0911  0.0533 -0.2187
14188W        W31712   4.630   4.430  15.549 -0.2891 -0.0758  0.2282
14189W        W31713  17.143  17.943  16.011 -0.2480 -0.3002 -0.3447
14190W        W31714   3.043   9.642   1.619 -0.0328  0.0773  0.1185
14191W        W31715  13.232  17.078  12.412 -0.2326 -0.1748 -0.0255
14192W        W31716  18.094   5.681   1.509 -0.0216 -0.1271  0.1617
14193W        W31717  10.087   1.067   1.642 -0.0058  0.0018 -0.2348
14194W        W31718  11.991  16.995   3.951  0.0938  0.2568 -0.1337
14195W        W31719   6.759   3.340  12.938  0.2720  0.2294  0.0354
14196W        W31720   2.742   3.463  15.898 -0.2603 -0.2501 -0.0310
14197W        W31721   6.869   0.906  11.336 -0.0537 -0.1263  0.2142
14198W        W31722   5.899  12.006   1.579 -0.0313 -0.1949 -0.1237
14199W        W31723   2.650  15.971  14.858 -0.0085  0.0237 -0.2643
14200W        W31724  15.549   6.759  14.633  0.2199  0.0277 -0.2449
14201W        W31725   1.522   1.278  12.985  0.1867 -0.1625  0.1877
14202W        W31726  17.172   7.752   4.621 -0.1716 -0.4380  0.1184
14203W        W31727  12.692  14.950   3.677 -0.3049 -0.0514 -0.2034
14204W        W31728   7.588   3.168  13.571  0.1953  0.1578  0.0210
14205W        W31729  17.495   8.370   3.532 -0.1795  0.4830  0.4409
14206W        W31730   8.016  11.361  12.394  0.3063  0.0820  0.2950
14207W        W31731  17.391   4.784   2.656 -0.0253 -0.1675  0.0253
14208W        W31732  15.489   2.766   5.612  0.1167 -0.1046  0.2811
14209W        W31733   6.060   0.059   1.253  0.2698  0.4077  0.0603
14210W        W31734   1.256   8.510   3.990  0.1971 -0.0290  0.3216
14211W        W31735   0.260  13.913   4.567  0.0010 -0.3273  0.0551
14212W        W31736  14.783   0.785   1.619 -0.0374 -0.1815  0.1698
14213W        W31737  16.455  11.269   0.260  0.2149  0.0840 -0.0749
14214W        W31738   4.853   5.056   0.656  0.0016 -0.2590 -0.1623
14215W        W31739  16.359   3.938  13.095 -0.0278  0.2894  0.2468
14216W        W31740  14.128  15.355  13.192  0.1040 -0.1751 -0.1321
14217W        W31741   7.076   6.404  12.530 -0.2684  0.5206  0.1799
14218W        W31742  13.238   9.101   2.717 -0.0880 -0.1209 -0.1452
14219W        W31743   7.653  10.417  10.878 -0.2741 -0.0873 -0.0651
14220W        W31744  15.384   3.794  13.133  0.1693 -0.0673 -0.0955
14221W        W31745  17.403   8.580  11.690  0.1720 -0.1727 -0.0162
14222W        W31746   9.024   2.582  11.594  0.2860  0.1446  0.0691
14223W        W31747   3.514   1.904   0.109 -0.1077  0.0819 -0.2194
14224W        W31748  17.935   1.811   4.570  0.0281  0.4122 -0.0066
14225W        W31749  16.401  13.824   4.487  0.0513 -0.1719  0.3145
14226W        W31750   8.994  15.541  14.623 -0.1305 -0.1790  0.1116
14227W        W31751   1.635   7.309   0.483  0.2275 -0.0166 -0.0366
14228W        W31752   1.005  14.811   4.879  0.1407  0.0526 -0.0355
14229W        W31753  11.926   6.227  12.894 -0.1335 -0.0026 -0.2167
14230W        W31754   2.272   8.743  14.332  0.0715 -0.0222  0.0693
14231W        W31755  17.364  10.055  15.052 -0.0182 -0.1305 -0.0319
14232W        W31756   6.971   3.906   1.002 -0.1653 -0.0521  0.0854
14233W        W31757  14.055   9.185   3.381  0.1111 -0.0782 -0.1391
14234W        W31758   3.135  13.880  13.284  0.3397  0.1168  0.2307
14235W        W31759   2.054   2.635  13.666 -0.2980  0.0491 -0.3622
14236W        W31760  14.430   9.683  12.969 -0.0447  0.2077  0.0502
14237W        W31761  14.678  14.410  15.001  0.0981  0.0590 -0.0218
14238W        W31762   4.917  11.964  15.650 -0.4842 -0.1577 -0.1243
14239W        W31763  15.658   9.115  12.671 -0.0922  0.0198 -0.2110
14240W        W31764  17.980  12.801  12.089 -0.3422 -0.3277 -0.5211
14241W        W31765  11.021  10.043  11.314 -0.2685  0.1696 -0.5987
14242W        W31766  16.652   8.793  11.230  0.0639  0.1758  0.3428
14243W        W31767   9.099  13.298  13.030 -0.0029 -0.3569  0.0403
14244W        W31768   0.984   4.431  15.816 -0.0468  0.0851 -0.1438
14245W        W31769  11.859   4.176   5.778  0.0460  0.0004 -0.2962
14246W        W31770   7.356  13.079  12.303 -0.2785  0.2249  0.1552
14247W        W31771   2.913   7.715   3.864 -0.1519  0.1434 -0.1287
14248W        W31772  12.457  17.251   0.328 -0.0845 -0.2342 -0.0542
14249W        W31773   7.585  17.923   1.879 -0.0970  0.0582 -0.1930
14250W        W31774  12.387  17.170   2.141 -0.4074 -0.0687 -0.0484
14251W        W31775  13.112   8.493  13.495  0.1453  0.2615  0.0670
14252W        W31776  12.830   9.616   0.202 -0.4109 -0.3796 -0.2253
14253W        W31777  13.406  17.798   1.863 -0.1487 -0.0805 -0.1853
14254W        W31778  17.136   6.818   2.900 -0.1640 -0.1593  0.1153
14255W        W31779   3.954   8.234  14.563  0.0135  0.2572 -0.2026
14256W        W31780  15.500   2.222   1.016 -0.2077 -0.1442 -0.1024
14257W        W31781  15.968   9.708   1.214 -0.0905 -0.0893 -0.0008
14258W        W31782   2.303   0.410  11.452 -0.0542  0.1890 -0.1475
14259W        W31783   7.299  16.345  11.616 -0.0583  0.1599  0.3712
14260W        W31784   2.798   6.437   0.339  0.0176  0.0872  0.1088
14261W        W31785  11.216  10.885   1.796 -0.3203 -0.0390  0.0644
14262W        W31786  16.583   5.992  16.022 -0.2176 -0.0912 -0.2261
14263W        W31787   3.287   8.749   4.107  0.0262  0.0351  0.2069
14264W        W31788   1.922  14.035   1.981  0.0235  0.1795 -0.0328
14265W        W31789   1.187   3.593   4.729 -0.0093 -0.3833  0.1300
14266W        W31790   0.303   2.956  12.918 -0.4527 -0.0450  0.0152
14267W        W31791  15.414   6.335   1.476 -0.0188  0.2113  0.3955
14268W        W31792   5.438   1.258   1.631  0.0276  0.1374 -0.1433
14269W        W31793   5.089   6.207  15.206 -0.4002 -0.0285  0.1595
14270W        W31794   1.098   6.039  12.717 -0.2732  0.1159  0.2751
14271W        W31795   5.801   2.222   2.628  0.3780  0.2476  0.0243
14272W        W31796  17.392  13.655  14.747  0.0247  0.0132  0.0183
14273W        W31797  14.579   9.340  14.974  0.2179 -0.0920 -0.1282
14274W        W31798  14.236   3.557  12.436  0.2866 -0.0439  0.2362
14275W        W31799  17.830   8.308  11.575  0.1653 -0.0011 -0.1520
14276W        W31800  14.000   6.719  11.705 -0.1673  0.0021 -0.2140
14277W        W31801  16.910   0.230   0.866 -0.0703  0.1713  0.0698
14278W        W31802  11.613   1.526  13.336  0.2094 -0.0716 -0.0922
14279W        W31803  10.059   4.489  12.183 -0.1418 -0.0034  0.1371
14280W        W31804   5.882   7.783  15.090  0.1650 -0.2903 -0.0618
14281W        W31805  15.085   2.397  13.804 -0.1074  0.1299 -0.0029
14282W        W31806   1.258  10.402   0.177  0.1878 -0.1427  0.4711
14283W        W31807  16.328   7.310   4.956  0.0690 -0.1912 -0.0028
14284W        W31808   6.204  10.939   3.775  0.0651  0.0855  0.1681
14285W        W31809   9.101   9.398  11.580 -0.0406  0.1893  0.0244
14286W        W31810  12.942  13.922  14.615 -0.1901 -0.1391  0.2928
14287W        W31811  16.506   9.291   4.258  0.2506 -0.2645  0.2040
14288W        W31812  17.815  10.572   5.302  0.1520 -0.0198  0.1415
14289W        W31813  17.644  15.488   2.354  0.4467  0.0871  0.1587
14290W        W31814  17.332   9.595   2.405 -0.1301  0.2778  0.2709
14291W        W31815  11.258  17.633  12.939 -0.0954 -0.1448 -0.1208
14292W        W31816   3.797  12.503   4.956 -0.1076  0.2650  0.2651
14293W        W31817   9.857   9.225   3.808 -0.1034  0.1096  0.2067
14294W        W31818   0.301  12.627  10.848 -0.0350 -0.3029 -0.2323
14295W        W31819   9.254  17.070   0.133 -0.3689  0.0968  0.3000
14296W        W31820   5.235   5.916   3.285  0.0092 -0.0620 -0.1812
14297W        W31821  10.577   6.689  12.782 -0.2765 -0.2016 -0.2256
14298W        W31822  16.742  10.941   0.479  0.3657  0.1916 -0.2434
14299W        W31823   0.171   6.345   2.912 -0.3390 -0.5703 -0.3526
14300W        W31824   4.752  13.503  12.388  0.1430 -0.1403 -0.4479
14301W        W31825   4.033  14.608  13.744  0.2128  0.0619 -0.1288
14302W        W31826  15.811   9.203  15.500  0.2141  0.1267  0.1704
14303W        W31827   9.769   7.356  12.437 -0.1308 -0.1703  0.0277
14304W        W31828  16.960  12.126   4.979  0.0466 -0.0593  0.1486
14305W        W31829   4.668  14.302  12.007 -0.3827  0.0230  0.0572
14306W        W31830  16.992   1.376  15.719 -0.0549  0.1433 -0.1533
14307W        W31831  16.198   9.706   0.758  0.0690  0.2741  0.1371
14308W        W31832   5.152   0.437  14.765 -0.1435 -0.2789  0.1593
14309W        W31833   3.923   3.254  13.485  0.1476  0.0420  0.3208
14310W        W31834   3.618   6.287   0.751 -0.4029  0.0009 -0.0231
14311W        W31835  13.178   1.808   1.137 -0.2157 -0.0912  0.2711
14312W        W31836   3.466  11.700   2.045 -0.1741 -0.2344 -0.1934
14313W        W31837  15.588  10.026  15.726  0.0173  0.1333  0.1303
14314W        W31838  12.721  15.538  14.422 -0.1680  0.2068  0.3015
14315W        W31839  12.147   4.888  12.902  0.0558 -0.3518 -0.1563
14316W        W31840   1.626  11.830   2.164 -0.1790  0.1064 -0.3850
14317W        W31841  18.146   5.371  13.523 -0.0901 -0.1054  0.0416
14318W        W31842   6.807  14.611  12.380  0.0353  0.1626 -0.0455
14319W        W31843   1.606  15.105  11.575  0.1547 -0.0906  0.3470
14320W        W31844   4.872   6.846   5.027 -0.5772  0.0832  0.1942
14321W        W31845   5.972   3.925  15.960 -0.0845  0.1139 -0.1972
14322W        W31846   3.055   8.719  12.457  0.3894  0.0311 -0.0471
14323W        W31847   6.087   1.425  14.950  0.1694 -0.3097  0.0280
14324W        W31848  17.740   1.606  11.920 -0.0328 -0.3571 -0.1998
14325W        W31849   8.943   9.078   0.596  0.0757  0.1339  0.1440
14326W        W31850   9.770   8.133   1.573  0.0966 -0.0847  0.1078
14327W        W31851   1.554   9.810  12.240 -0.2837  0.1864  0.1396
14328W        W31852  12.927   1.922  11.662 -0.1832  0.4603 -0.1567
14329W        W31853   2.287  15.061  11.965  0.1324  0.2986  0.0038
14330W        W31854  17.695  12.910   4.316 -0.1240 -0.1161  0.0563
14331W        W31855  15.582   8.918  11.765  0.3779  0.4215  0.0362
14332W        W31856   8.914  14.554  12.897  0.0848 -0.0308  0.5076
14333W        W31857   7.575   8.225   1.211  0.1372  0.0671 -0.1756
14334W        W31858  12.824   9.987  10.810 -0.0119 -0.4042  0.1228
14335W        W31859   4.314  14.432   3.983 -0.0014 -0.1857 -0.0697
14336W        W31860  10.387   3.295   4.410  0.0297 -0.2286  0.0934
14337W        W31861  11.040   2.523  11.632  0.0058  0.0484  0.0677
14338W        W31862   0.272   1.171   5.744  0.0923 -0.1448  0.1334
14339W        W31863  13.736  10.345   4.293  0.0709  0.0666  0.5530
14340W        W31864  16.494   3.945  15.256  0.0873 -0.2255  0.0827
14341W        W31865   7.132  10.792   2.674  0.0038  0.1629  0.1507
14342W        W31866  13.326   7.703   2.786 -0.2133 -0.0155 -0.1867
14343W        W31867  13.234   5.763  16.014  0.0709  0.2144  0.3054
14344W        W31868   6.928  12.714   0.422  0.0529  0.0072 -0.1121
14345W        W31869   6.089   9.280  14.820  0.2513  0.1023 -0.0756
14346W        W31870   4.916   7.375   1.554 -0.0893 -0.5208  0.2108
14347W        W31871  13.059   8.115  14.055 -0.1594 -0.0677 -0.0947
14348W        W31872  11.446   0.007  14.821  0.3367  0.2804  0.0277
14349W        W31873   9.249  11.871   4.628  0.0475  0.0326  0.1405
14350W        W31874  13.126  12.818   4.248 -0.3683 -0.1908 -0.0028
14351W        W31875  15.119  13.165  12.141  0.0995 -0.1744 -0.0778
14352W        W31876   0.852   6.840   0.741 -0.1824  0.3070  0.0354
14353W        W31877   0.038  11.282  11.287  0.1537  0.2724 -0.1802
14354W        W31878   7.419  13.514  12.566  0.0532  0.2814  0.1245
14355W        W31879  10.257   9.427  12.392 -0.3399 -0.2946  0.2600
14356W        W31880   4.775  15.738  14.353  0.1556 -0.3827 -0.1499
14357W        W31881   5.332  16.969  15.485  0.2418 -0.1338 -0.1417
14358W        W31882  13.433   6.369   0.751 -0.0270  0.0580 -0.1459
14359W        W31883  10.261   8.529  14.809  0.2529 -0.0612 -0.2089
14360W        W31884   0.232  10.186   0.260 -0.0297  0.0945 -0.1893
14361W        W31885   1.236   9.444  13.981 -0.1068 -0.5857 -0.0319
14362W        W31886  10.874  13.542  11.323 -0.1079 -0.1885 -0.3854
14363W        W31887   8.255  10.518   1.924 -0.1925  0.1456  0.3087
14364W        W31888  12.201  10.651  15.961  0.0027  0.1934  0.0613
14365W        W31889  15.475   2.135  15.978 -0.3848  0.1760  0.1825
14366W        W31890  10.306   3.250  10.996 -0.1205  0.0027  0.2739
14367W        W31891  13.206  17.231   3.533  0.0320  0.0763  0.0833
14368W        W31892  16.983   1.934  13.352 -0.3523 -0.1533 -0.0606
14369W        W31893  11.884  12.028   2.625 -0.1916  0.2417 -0.0826
14370W        W31894  17.830   4.379   5.985  0.3397  0.1491 -0.1135
14371W        W31895   4.186   6.845   2.033  0.2541  0.0180  0.2007
14372W        W31896   7.084  12.352  14.262  0.0360  0.1775  0.1038
14373W        W31897  17.591  13.447   3.339 -0.1118  0.0787 -0.2303
14374W        W31898  15.127  16.333   4.162  0.2520  0.1629 -0.2112
14375W        W31899  15.988   5.667   0.418  0.1055  0.2093 -0.2050
14376W        W31900  11.401  12.800   2.266 -0.2384 -0.2528 -0.0925
14377W        W31901   3.872  17.365   1.939 -0.1662  0.0489  0.2312
14378W        W31902  12.308  14.465  11.612 -0.0980 -0.3855 -0.1357
14379W        W31903   4.254   8.423   0.566 -0.0313  0.1959  0.0817
14380W        W31904   3.126  15.461  11.767 -0.0072  0.2336 -0.1002
14381W        W31905  14.483  14.755   3.246  0.1244  0.1045  0.3496
14382W        W31906  12.680  17.773  15.497  0.2596  0.0398  0.1395
14383W        W31907  13.282  15.775   4.877  0.1026 -0.1007  0.1843
14384W        W31908  14.282   5.622  13.084  0.2549  0.1068 -0.3626
14385W        W31909   4.030   4.280   1.306  0.2272  0.0731  0.0088
14386W        W31910  15.169  14.243  15.372  0.2490  0.0382  0.1853
14387W        W31911  14.480  16.775   1.074  0.0614  0.2696  0.1446
14388W        W31912   6.978   4.261   2.796 -0.0699  0.0430 -0.5061
14389W        W31913   5.867   5.789  15.016  0.0977  0.0455  0.2899
14390W        W31914   9.238   8.617  14.250  0.2136  0.0938 -0.0596
14391W        W31915   1.419   8.827   3.018  0.2182 -0.1208  0.3395
14392W        W31916  14.737   8.105  15.611 -0.0435  0.1259  0.0840
14393W        W31917  15.516  13.482   2.145 -0.2459  0.2385  0.0594
14394W        W31918   4.395  12.070  15.515  0.0436 -0.2437  0.2183
14395W        W31919  13.177   3.480   0.560  0.1375  0.0898  0.0105
14396W        W31920   7.981  13.428  15.091 -0.1275 -0.1155 -0.1872
14397W        W31921   2.504   6.924   0.455 -0.1274  0.0573 -0.2214
14398W        W31922  16.335  13.702   3.557  0.0589  0.1262 -0.0592
14399W        W31923  15.887   0.950  11.566 -0.1417  0.0367 -0.0170
14400W        W31924   9.675  12.742  15.505 -0.2329  0.1160 -0.1494
14401W        W31925   1.329   1.377   4.802  0.1657  0.0852 -0.0293
14402W        W31926  12.267  16.961   4.408 -0.1268 -0.1434 -0.0004
14403W        W31927   0.863  13.655  14.114 -0.2362 -0.1190 -0.1225
14404W        W31928  11.603  11.151  13.366  0.1462 -0.0945  0.1465
14405W        W31929   6.179  11.028  13.786  0.0619 -0.2527 -0.0948
14406W        W31930  15.164   0.182   2.248 -0.0157 -0.0782  0.2162
14407W        W31931   1.477   3.035   5.866 -0.0365 -0.0309 -0.2253
14408W        W31932   0.969  10.445  13.435 -0.0889 -0.0254 -0.0974
14409W        W31933  16.764   2.709   4.420 -0.1142 -0.1838 -0.1644
14410W        W31934   8.488  11.556   0.405 -0.1417 -0.1277  0.1822
14411W        W31935   1.612   0.547   4.052 -0.0370 -0.0803 -0.1233
14412W        W31936  13.278  11.742  15.681 -0.3282  0.1855  0.0158
14413W        W31937   0.401   0.871  15.506  0.0352  0.2825  0.1572
14414W        W31938   5.897  10.044   0.416  0.0707 -0.0821  0.0530
14415W        W31939  16.222   8.049  14.802  0.0301 -0.3099 -0.0128
14416W        W31940  12.014  11.505   0.785  0.1252 -0.2213  0.0978
14417W        W31941   9.966  11.127   3.651  0.0056 -0.5167  0.0860
14418W        W31942  15.733  10.795   3.265  0.0398  0.2951  0.2009
14419W        W31943   7.708   2.033   3.794 -0.1453  0.2186  0.0172
14420W        W31944  11.092  12.050   1.009  0.3254 -0.1873  0.0004
14421W        W31945   6.470   8.178   0.217  0.2335  0.3197 -0.1045
14422W        W31946   9.497   2.750  14.994 -0.0015 -0.3753  0.1848
14423W        W31947   9.423   7.368   4.166  0.2927  0.0823  0.1007
14424W        W31948  11.328   8.732   4.086 -0.1784 -0.1133 -0.0583
14425W        W31949   3.781  16.704   2.635 -0.4559 -0.1498 -0.2310
14426W        W31950  17.778   2.533  15.978 -0.2272  0.1061 -0.0966
14427W        W31951  15.698  13.720   0.480  0.0871 -0.2572 -0.0315
14428W        W31952   7.509   0.998   3.910  0.2295 -0.1011 -0.0131
14429W        W31953   3.502  11.419   0.629 -0.1032  0.4348  0.3280
14430W        W31954  17.014  13.427   0.024  0.0819 -0.3385  0.0460
14431W        W31955  15.561  15.675   3.331 -0.0812 -0.1965  0.2808
14432W        W31956  10.502  16.078   0.693 -0.2416 -0.1410  0.0191
14433W        W31957  10.673   2.920  10.832 -0.1771 -0.2160  0.1174
14434W        W31958  10.932   4.787  12.357  0.1518  0.1574  0.2539
14435W        W31959  18.192   1.692  11.500 -0.1190  0.0409  0.1126
14436W        W31960   8.872   5.114   1.098  0.0231  0.0761 -0.1301
14437W        W31961  18.170  17.253   2.611 -0.5414  0.0036 -0.1279
14438W        W31962  11.368  10.984  12.949  0.0455 -0.1997 -0.0285
14439W        W31963  14.993   1.841  11.793 -0.0035  0.5217 -0.0125
14440W        W31964   2.259  17.053  11.677  0.0177  0.2215 -0.1024
14441W        W31965  16.472  14.619  12.045 -0.0143 -0.0174 -0.1098
14442W        W31966   1.605   8.948   2.216  0.1180 -0.0591  0.1178
14443W        W31967  16.031   1.167   2.273  0.1146  0.0025 -0.1178
14444W        W31968   9.609   4.949   5.078  0.2155  0.1353  0.0601
14445W        W31969  16.546   1.936   3.090 -0.0798  0.1205  0.2482
14446W        W31970  16.917  17.171   3.444 -0.1399 -0.1900 -0.2509
14447W        W31971  11.127   4.688   2.163 -0.0722 -0.0526 -0.1756
14448W        W31972  17.554   7.380  15.459  0.1552  0.0453 -0.3666
14449W        W31973   5.100  12.707  11.840  0.1164  0.0166 -0.0843
14450W        W31974  15.308   7.930   4.749 -0.4474  0.0865 -0.1520
14451W        W31975   8.316   6.178  13.084 -0.0870  0.0857 -0.2486
14452W        W31976   0.926  12.102   0.445  0.2410 -0.0456  0.0247
14453W        W31977   7.339   7.497  13.940  0.1938  0.2009  0.1179
14454W        W31978   9.849   9.432  12.832 -0.0906 -0.3000  0.0397
14455W        W31979  15.842  12.692  11.358 -0.0233  0.0602 -0.3003
14456W        W31980  10.122   5.644  13.978 -0.1231 -0.0239 -0.0529
14457W        W31981   3.539   8.486   0.020 -0.2469  0.0859  0.3677
14458W        W31982  11.235   3.752   2.122 -0.0628  0.4190  0.0091
14459W        W31983  16.646  17.695   1.452  0.1114 -0.2445  0.4100
14460W        W31984  18.082  12.850   0.129 -0.1751 -0.0993 -0.2277
14461W        W31985   7.633  10.078   3.208  0.1562 -0.1131  0.2502
14462W        W31986   6.385   0.840   2.312 -0.1989 -0.0156 -0.3001
14463W        W31987   5.838  13.519   2.441 -0.0256  0.1271 -0.0818
14464W        W31988   7.693   9.869  12.293  0.0605 -0.1227  0.0274
14465W        W31989  14.487   0.376  12.567  0.0006  0.0411 -0.1502
14466W        W31990  10.124   9.791   2.766  0.0382 -0.4050  0.2372
14467W        W31991   8.675   5.402   5.646 -0.0872  0.0528 -0.1391
14468W        W31992   4.923   5.633  11.970  0.1583  0.1543 -0.0641
14469W        W31993   1.183  17.450   0.032 -0.0364  0.0521 -0.0295
14470W        W31994   8.761  15.318  15.057  0.0583 -0.0975  0.2610
14471W        W31995  12.891  15.751   4.180 -0.1602  0.0433  0.1764
14472W        W31996   7.393  12.378  11.426 -0.1266  0.1524 -0.1579
14473W        W31997   3.329   8.890  12.027 -0.0388  0.2145 -0.0238
14474W        W31998  12.307  10.745   2.182 -0.1651  0.0884  0.3002
14475W        W31999   0.401   9.689   3.442  0.2055  0.0412 -0.1695
14476W        W32000   1.380   2.100   1.125 -0.0575  0.0946 -0.2347
14477W        W32001  15.247   2.620  14.844  0.1576 -0.0412  0.3005
14478W        W32002   5.370  18.089  13.390 -0.1746 -0.1083 -0.2519
14479W        W32003   1.010   8.036   1.016  0.0869 -0.0713  0.0325
14480W        W32004  17.235   8.903   2.055  0.2572 -0.0343 -0.0910
14481W        W32005  15.298  12.113  11.570  0.2500  0.0314 -0.2239
14482W        W32006   5.080  13.679   1.589 -0.2659  0.3660  0.1680
14483W        W32007   4.468   3.206  12.089  0.2286  0.1997 -0.0977
14484W        W32008   0.361   5.940   4.876  0.2742  0.3963  0.0880
14485W        W32009   3.307   4.453  14.506 -0.1574 -0.1629  0.3957
14486W        W32010   1.849  14.890   0.042 -0.0126 -0.0772  0.0362
14487W        W32011   7.506  10.244   0.847 -0.4374  0.3325 -0.1136
14488W        W32012   6.576   4.677  11.774 -0.0989 -0.2470 -0.1676
14489W        W32013  13.263   9.305  12.552  0.0078 -0.2195 -0.2617
14490W        W32014  12.961   1.607  16.080  0.2046  0.2768  0.2302
14491W        W32015   2.123   9.112  15.299 -0.1239  0.0058  0.0722
14492W        W32016   3.053  17.786  13.271 -0.0783 -0.0136 -0.0783
14493W        W32017   9.775  13.233   0.047  0.2297 -0.0457 -0.0706
14494W        W32018   4.130   0.694  13.966  0.0925 -0.1621  0.1464
14495W        W32019  11.081   6.706   0.983  0.1472 -0.0473  0.1008
14496W        W32020   7.582  16.136  14.308 -0.3031  0.3077  0.1118
14497W        W32021  12.345   3.185  13.323  0.3362 -0.2529 -0.1400
14498W        W32022  13.886   4.623   3.131 -0.1307  0.1263  0.1519
14499W        W32023   0.261   7.674  15.428  0.0952 -0.1400 -0.0289
14500W        W32024   2.530   1.465  12.017 -0.1673  0.0886 -0.1025
14501W        W32025   9.859   5.830   3.769 -0.0289  0.2564 -0.0013
14502W        W32026  17.184  10.186  13.294 -0.0921 -0.2795  0.0381
14503W        W32027   5.305  13.486   2.361  0.0927 -0.3252 -0.0819
14504W        W32028  17.710  17.825  13.232 -0.1369  0.3325 -0.1982
14505W        W32029  16.420   6.277   0.691 -0.0759  0.1947  0.2115
14506W        W32030   5.029  15.643   4.653  0.1391 -0.1498 -0.0427
14507W        W32031   3.847   3.892   1.619 -0.0103  0.0279 -0.3463
14508W        W32032   6.877  16.060  13.697  0.0820  0.1686 -0.2215
14509W        W32033   4.431  17.046   4.179 -0.0311 -0.0129 -0.1299
14510W        W32034   0.776   8.460   3.632  0.0113 -0.1527  0.1122
14511W        W32035   2.702   1.418  14.548 -0.1331 -0.1238 -0.1493
14512W        W32036   6.682  10.746   3.635 -0.0431 -0.3011  0.0833
14513W        W32037  12.053  16.009  12.765  0.3843 -0.1122  0.3484
14514W        W32038   7.821   0.112  15.931  0.0210 -0.0081  0.0482
14515W        W32039   1.881  12.770  11.564  0.0627  0.3357 -0.0682
14516W        W32040  10.741   2.901  15.703  0.1854  0.2819 -0.1404
14517W        W32041  13.257   2.380  14.682  0.2428 -0.2000 -0.1057
14518W        W32042  13.481   9.533  11.552  0.1825 -0.0403  0.0603
14519W        W32043  11.871  14.977  13.362 -0.1369  0.1322 -0.0690
14520W        W32044   8.831   5.952   5.433 -0.1282  0.1343 -0.0015
14521W        W32045   2.711  17.318   2.653 -0.2214 -0.1504  0.1060
14522W        W32046  14.750   4.263  15.021 -0.1104 -0.3308  0.1609
14523W        W32047   0.583   7.650   2.880 -0.1077  0.0461 -0.1739
14524W        W32048   6.714  15.880   3.015 -0.0192 -0.1006 -0.0457
14525W        W32049   4.217   8.200   3.170 -0.1940 -0.0386  0.2941
14526W        W32050  12.594  17.489  15.910  0.1614 -0.3191 -0.4873
14527W        W32051  15.476  13.831  14.059  0.1255 -0.2705 -0.1735
14528W        W32052   6.161   9.772  13.607  0.2945  0.0857 -0.3411
14529W        W32053   3.016  17.268  15.341 -0.0310  0.2145 -0.2261
14530W        W32054  16.331  16.871  10.652  0.0535  0.0928 -0.0091
14531W        W32055  15.580  17.829  12.724 -0.2843 -0.1456  0.1235
14532W        W32056   8.445  14.758  14.496  0.1879 -0.2692  0.0987
14533W        W32057  11.233  11.331  11.521 -0.2704  0.1203  0.0917
14534W        W32058  12.326  10.663   3.110 -0.0650 -0.0470 -0.0876
14535W        W32059   9.003  14.529  15.040 -0.2599  0.0982 -0.1681
14536W        W32060  12.876  12.458   0.740 -0.2147  0.1665 -0.0684
14537W        W32061   5.581   1.113   1.034  0.0808 -0.2169 -0.3754
14538W        W32062  16.899   9.022   4.133 -0.1390 -0.0474 -0.3194
14539W        W32063  17.735   0.320  12.623  0.0844 -0.0284  0.2619
14540W        W32064   8.279   1.423  11.795 -0.0527  0.3958  0.0703
14541W        W32065   0.746   8.196  14.841  0.0670  0.0917  0.1165
14542W        W32066   9.307   0.319  11.341  0.2012 -0.0045 -0.1323
14543W        W32067   4.525  12.727   4.560  0.0392  0.0937  0.1870
14544W        W32068   8.786  13.192   0.218  0.0775 -0.1917  0.1258
14545W        W32069  10.483   9.718  11.967 -0.0036 -0.4160 -0.3352
14546W        W32070  17.651   5.473  13.457  0.3160  0.0095 -0.1885
14547W        W32071   7.670  17.098   3.625 -0.1460 -0.0541 -0.0823
14548W        W32072  16.984  17.708  14.453  0.0141  0.0306  0.1976
14549W        W32073  13.282   6.759   3.895 -0.0032 -0.1544  0.2917
14550W        W32074   5.202  15.018  15.007 -0.0767  0.0313 -0.1847
14551W        W32075  15.223  14.763   3.735 -0.3685  0.1412 -0.2647
14552W        W32076  14.440   0.663   4.194  0.0459 -0.1769  0.3095
14553W        W32077   3.379   0.478  11.918  0.0825 -0.1286 -0.0954
14554W        W32078  10.418  11.738   2.883 -0.0560  0.3874  0.0948
14555W        W32079  15.571   6.909   3.027 -0.0667 -0.1827  0.1200
14556W        W32080   3.524  17.930  15.860  0.3203  0.0679  0.1063
14557W        W32081   9.804  15.533   3.705 -0.0762 -0.3240  0.0811
14558W        W32082  17.086   1.600   3.020  0.1868  0.1251  0.1618
14559W        W32083   8.994  10.738   3.784 -0.2942  0.0823 -0.1172
14560W        W32084  15.933  17.406  15.091 -0.0740  0.1111  0.0948
14561W        W32085  14.383   8.039  11.162  0.0351 -0.0363 -0.2190
14562W        W32086   1.721   1.999   3.849 -0.0329 -0.3665 -0.1424
14563W        W32087  15.080  18.129   3.543 -0.1598 -0.0787  0.0495
14564W        W32088   8.128  13.503   0.732  0.1606  0.3141  0.1212
14565W        W32089  10.591   8.723   0.131 -0.2338 -0.1414  0.0197
14566W        W32090   6.469   4.476  13.420  0.2388  0.0142 -0.1070
14567W        W32091  10.090  15.530  13.247  0.0979 -0.0641 -0.2654
14568W        W32092  15.156  11.359   0.522 -0.0678  0.2791  0.1689
14569W        W32093   1.437   5.217  13.420  0.0122 -0.0312  0.2292
14570W        W32094   1.069  12.189  15.494  0.3464 -0.1774  0.3360
14571W        W32095  12.054  14.061  15.854 -0.1613 -0.0595 -0.1639
14572W        W32096  17.695   6.046  11.804 -0.1137  0.4355 -0.0120
14573W        W32097   6.785  11.505  13.108  0.4464  0.0804  0.0825
14574W        W32098   7.129  14.176   4.428  0.2343  0.2175 -0.0232
14575W        W32099   2.046   9.693   4.368  0.2185  0.2409  0.2250
14576W        W32100  11.526   2.432  11.480 -0.4554  0.0650  0.0789
14577W        W32101   6.130   1.926  12.336  0.0076 -0.1411  0.3468
14578W        W32102   7.661  10.421   3.584  0.1276  0.1777 -0.2337
14579W        W32103   7.916   9.575  12.858 -0.1602 -0.0295  0.0075
14580W        W32104   0.630   9.082  12.858 -0.0948  0.0635 -0.0708
14581W        W32105   2.571  15.624  13.080  0.2966 -0.2001  0.0128
14582W        W32106  17.544   6.766   4.434 -0.3873 -0.1574 -0.2081
14583W        W32107  16.787   4.226   5.695  0.0636 -0.1233 -0.2305
14584W        W32108  17.491  16.221   5.083 -0.1853  0.0690  0.3299
14585W        W32109   7.349  10.505  12.959  0.3802  0.2647  0.1756
14586W        W32110   0.069   5.548   4.865  0.0466 -0.0631 -0.1430
14587W        W32111   5.753  15.079   1.529  0.1549  0.0271  0.1060
14588W        W32112   0.242   0.345   1.792 -0.2324  0.1081 -0.2088
14589W        W32113   3.259  12.779   0.219  0.0735  0.3311  0.0671
14590W        W32114   5.452   4.273   4.936 -0.2525  0.3502  0.0667
14591W        W32115   5.141  15.914  14.724  0.1790  0.1926  0.1294
14592W        W32116   3.110  14.246  11.513  0.0207  0.0576 -0.1485
14593W        W32117  18.180  12.672   3.144  0.3515  0.0159 -0.0279
14594W        W32118   2.263   6.220   3.292  0.2146 -0.1210  0.1746
14595W        W32119   4.032  12.749  14.738  0.0957 -0.1399 -0.1823
14596W        W32120   2.182   8.019   3.522  0.0061 -0.0901  0.0357
14597W        W32121  13.152  16.670  12.642 -0.0603  0.1136 -0.1442
14598W        W32122   6.258   7.203   2.690  0.2561 -0.0340  0.2004
14599W        W32123  10.459  17.420   2.999 -0.3509  0.0211 -0.1401
14600W        W32124   3.049  10.877  12.247  0.0630  0.1683 -0.0372
14601W        W32125   2.470   3.713   5.065 -0.0382  0.1114  0.0797
14602W        W32126   4.828   9.678   1.711  0.0554  0.0120 -0.2188
14603W        W32127  13.112  17.309  14.336  0.1150  0.0665 -0.0456
14604W        W32128  15.888   9.966  13.483  0.1804  0.3049 -0.1563
14605W        W32129   4.900   2.003  14.935 -0.1503 -0.0604 -0.0121
14606W        W32130  13.866   5.619  12.099  0.3803  0.2653  0.2829
14607W        W32131   2.449   7.054  12.297 -0.1057  0.2732 -0.3730
14608W        W32132  16.817  17.312  13.071  0.1714 -0.0200 -0.2500
14609W        W32133  16.428   9.643  14.007 -0.0671  0.0175 -0.2672
14610W        W32134  10.409   6.028  13.801  0.0435 -0.2914  0.1613
14611W        W32135   5.011  15.115  11.550 -0.2038 -0.0064  0.0998
14612W        W32136  10.223   8.608   0.851 -0.0526 -0.0036 -0.0173
14613W        W32137   1.522  10.727  12.967 -0.0100 -0.1738  0.2729
14614W        W32138   4.220   7.204   0.477 -0.5341 -0.0630 -0.0659
14615W        W32139  15.206   5.384   5.414 -0.1025 -0.0979 -0.0127
14616W        W32140   6.465   8.682  16.089  0.1021  0.0126  0.0898
14617W        W32141  16.769   4.568   0.110  0.1840  0.3757 -0.0528
14618W        W32142   0.909  13.633  14.624 -0.0536  0.3911 -0.1597
14619W        W32143   6.753   2.873  13.339 -0.4786 -0.1426  0.1560
14620W        W32144   9.688   0.595  11.143  0.0666  0.0064  0.2359
14621W        W32145   0.483   7.949   0.082  0.0150 -0.1017 -0.1864
14622W        W32146   7.820   7.131  13.340 -0.3781  0.0699 -0.0432
14623W        W32147   0.630   1.925  13.925 -0.0136  0.0231 -0.2590
14624W        W32148   3.590  16.170  10.202 -0.1954 -0.0381 -0.0361
14625W        W32149  11.593  10.898  15.404 -0.1492 -0.3172  0.4243
14626W        W32150   9.018  15.718  12.390  0.1625 -0.0466  0.1872
14627W        W32151   4.874   1.418  12.850  0.0156  0.1382  0.1451
14628W        W32152  13.089  14.132   0.258 -0.1891  0.0267  0.1476
14629W        W32153  16.898   0.656  10.506 -0.3121  0.3071 -0.4383
14630W        W32154   7.492  11.700   3.914 -0.0816 -0.0127  0.0432
14631W        W32155  11.482   2.204  14.445  0.0320 -0.0996 -0.0828
14632W        W32156  14.275   1.495  12.305 -0.1608 -0.3090 -0.0972
14633W        W32157  14.900  18.065   1.221 -0.1066 -0.2288 -0.1747
14634W        W32158  13.359   2.720   1.253  0.0109  0.1334 -0.1409
14635W        W32159   3.965   1.781  14.680  0.1389  0.1312  0.0923
14636W        W32160  16.192   7.609   2.655 -0.0666 -0.1988  0.0998
14637W        W32161   1.911   0.845   4.734  0.2930  0.0578 -0.2393
14638W        W32162   8.446   5.449   2.553  0.0040 -0.0036 -0.1070
14639W        W32163  13.409  16.176  13.113  0.2150 -0.2658  0.0293
14640W        W32164  17.445   5.526  13.908  0.1718  0.0360  0.0691
14641W        W32165   0.517   9.412  11.347 -0.0388  0.1152  0.1006
14642W        W32166   3.117   4.422   4.193 -0.3440 -0.0725 -0.0846
14643W        W32167  14.327  16.968   4.037  0.0310 -0.2422  0.0075
14644W        W32168  12.711  15.726  11.802 -0.0752 -0.1131 -0.3478
14645W        W32169   2.314  15.355  13.546 -0.2174 -0.2927 -0.1638
14646W        W32170  17.889   4.921  16.041 -0.0568 -0.1758  0.2836
14647W        W32171  10.415  11.384   1.382  0.0634 -0.0132 -0.0298
14648W        W32172   1.447   3.442   5.550 -0.1295 -0.2898  0.3114
14649W        W32173   5.521   6.687   2.792 -0.0900 -0.1794  0.1819
14650W        W32174  16.053  17.128   2.299 -0.0883  0.1576  0.1494
14651W        W32175  12.298  11.244   4.026 -0.1378 -0.2432  0.1765
14652W        W32176   2.165   5.843   4.541  0.1955 -0.1858 -0.2311
14653W        W32177   6.142   2.944  11.458  0.0420  0.0750  0.2310
14654W        W32178   8.465   0.668  13.967  0.1908  0.1251  0.0513
14655W        W32179   6.128   6.169  15.209 -0.0681 -0.3259  0.1966
14656W        W32180   5.806   8.038   3.814 -0.0646 -0.2997  0.2121
14657W        W32181   1.958   0.763  11.456 -0.0704 -0.0950 -0.0277
14658W        W32182   3.381  13.287   1.000 -0.0595 -0.0435 -0.0386
14659W        W32183   7.496  12.391   0.517 -0.0559 -0.3137  0.1356
14660W        W32184   6.834   8.947   5.481 -0.2738  0.0455 -0.0775
14661W        W32185   8.097   6.464   2.652 -0.0108  0.2680  0.2660
14662W        W32186   8.267   1.671  14.565  0.1276 -0.0066  0.1331
14663W        W32187  11.158   5.602   2.192 -0.1949  0.0219  0.1282
14664W        W32188  14.839  10.078  13.192  0.0504  0.1025  0.0362
14665W        W32189   9.816   1.090   3.660  0.1140 -0.3454  0.1395
14666W        W32190   3.304   6.028  13.540 -0.0354  0.2850  0.1209
14667W        W32191  12.787   0.850   4.037  0.2798  0.0389 -0.0984
14668W        W32192  11.590  14.644   4.636 -0.0459 -0.1524 -0.1872
14669W        W32193  11.831   3.863   0.892  0.0496  0.1522 -0.1644
14670W        W32194   9.387  14.706   3.467  0.1360 -0.1091 -0.1688
14671W        W32195  12.400  16.791  13.667 -0.0471 -0.1623 -0.0737
14672W        W32196  17.997  10.818   0.934  0.0787  0.2201 -0.1977
14673W        W32197  14.603   6.752  11.796  0.1714 -0.1486  0.1722
14674W        W32198   0.157  13.857  14.603  0.2534  0.0975  0.0827
14675W        W32199  13.930   3.501  11.533  0.0053 -0.1758  0.1825
14676W        W32200  14.944   7.046   5.513 -0.1461 -0.0523 -0.0683
14677W        W32201  14.148  13.099  14.428 -0.0133 -0.0290  0.3401
14678W        W32202   6.659   5.117  11.501 -0.0741 -0.2539 -0.2101
14679W        W32203  15.774  15.479  15.370 -0.0552  0.3428  0.1999
14680W        W32204   4.999   1.763   2.350  0.2196  0.0141 -0.1211
14681W        W32205   2.947   9.212  15.942 -0.0284  0.0592 -0.0106
14682W        W32206  11.309  15.513  11.354 -0.2369  0.1085  0.1487
14683W        W32207   8.875  11.717  15.197 -0.0474  0.1108 -0.3419
14684W        W32208   2.476   8.617  11.679  0.2679 -0.1005 -0.1521
14685W        W32209   4.660  13.637   2.860  0.0904  0.0714  0.0938
14686W        W32210  11.520   8.677  12.814 -0.2650 -0.0241 -0.3072
14687W        W32211  11.696  11.576   1.657 -0.0643 -0.3247 -0.2146
14688W        W32212  14.384   8.378   3.171 -0.1908  0.0966  0.0538
14689W        W32213  14.001   1.063   3.361 -0.0240 -0.3388 -0.1811
14690W        W32214   6.169  11.891   3.887 -0.1926 -0.0869  0.0061
14691W        W32215  15.595   0.367  12.174  0.1294  0.0651 -0.0756
14692W        W32216  15.709  11.654   2.833  0.1703  0.0617 -0.1195
14693W        W32217  14.630  13.163   4.049 -0.0838  0.1627  0.3389
14694W        W32218  10.509   7.585   3.965 -0.1226 -0.2687  0.2159
14695W        W32219  18.155  13.102   4.376 -0.0049  0.0489 -0.1047
14696W        W32220   4.963  13.485  11.901 -0.0985  0.0379 -0.2965
14697W        W32221   5.202  17.687   1.740  0.0842 -0.0412  0.4762
14698W        W32222   4.777   1.328  14.608  0.0751  0.1818  0.3679
14699W        W32223   4.703  16.842   3.801  0.0313  0.2698  0.0779
14700W        W32224   8.278  11.246  14.481 -0.1186 -0.0004  0.0482
14701W        W32225   0.344  11.494   2.765  0.1183 -0.2712 -0.2746
14702W        W32226   4.899   3.982  12.959  0.2342  0.1166  0.1644
14703W        W32227  16.026  13.827  14.894 -0.0925  0.3203 -0.0820
14704W        W32228  14.426   8.492   1.764  0.2289 -0.2212 -0.0171
14705W        W32229  10.704   7.550  14.664 -0.1940  0.2223  0.0869
14706W        W32230   9.744  14.903   2.204 -0.0326 -0.0009  0.0635
14707W        W32231   7.379  11.148  15.449  0.0521  0.1229 -0.2476
14708W        W32232  16.809  11.237   3.752  0.1019 -0.2079 -0.0568
14709W        W32233  18.124   2.534  13.853  0.2572  0.0462  0.0502
14710W        W32234   3.120  18.154  11.925  0.0012 -0.2798  0.0085
14711W        W32235  17.203   2.744   3.055 -0.0189  0.1245 -0.1438
14712W        W32236  10.853   7.136  14.381 -0.1541 -0.1295 -0.0907
14713W        W32237   6.505   1.030  14.114  0.3045 -0.0805  0.2865
14714W        W32238  15.095  17.215   4.628 -0.0955  0.1140 -0.0967
14715W        W32239  12.134   1.995  13.863 -0.0748  0.2311  0.2970
14716W        W32240  15.040  15.805  12.687 -0.0422  0.2107 -0.0710
14717W        W32241  13.270  10.678  14.594 -0.2217 -0.1571  0.1929
14718W        W32242   8.290  10.993   3.364  0.2065  0.2022  0.2723
14719W        W32243  12.794  15.088  13.079 -0.0922 -0.0143  0.0124
14720W        W32244  17.999   8.469   0.805  0.0890 -0.1333 -0.1611
14721W        W32245  10.157   1.183   4.583  0.2335  0.0817 -0.2612
14722W        W32246  16.721   4.090  11.602 -0.1178 -0.0678  0.1566
14723W        W32247   3.990  16.013  13.552  0.2321 -0.0910  0.1125
14724W        W32248   7.094   0.103  10.365  0.0740 -0.0680 -0.3873
14725W        W32249   3.519   2.147  15.430  0.1967  0.1268 -0.1517
14726W        W32250   9.092   3.943   3.969 -0.0616  0.0709 -0.0483
14727W        W32251  11.213  10.008  13.134 -0.0149  0.0646 -0.0210
14728W        W32252   6.361   0.870  15.459  0.1775  0.1658 -0.1456
14729W        W32253   4.375  16.675  15.427 -0.0722  0.0283  0.0061
14730W        W32254   2.952   1.562  11.670  0.1094  0.1219 -0.0374
14731W        W32255  14.970   9.063  12.963  0.3868 -0.4345  0.0722
14732W        W32256   9.185   0.192   3.527  0.3599 -0.0178  0.1333
14733W        W32257   3.095  13.741  11.302  0.0586  0.1252  0.2997
14734W        W32258   5.255  12.194   4.205 -0.1639 -0.2548 -0.1574
14735W        W32259   0.425  13.501  14.376 -0.1720 -0.2431 -0.1035
14736W        W32260  10.888  10.238   3.620  0.1715  0.0060 -0.1318
14737W        W32261  11.768   2.417   1.011 -0.1914 -0.0090 -0.1332
14738W        W32262   4.277   9.805   9.746 -0.1940  0.0993  0.1251
14739W        W32263   4.122   5.486   4.780  0.2586 -0.1759  0.1165
14740W        W32264   8.816   0.668  12.044 -0.0158  0.0331 -0.0296
14741W        W32265   5.573  11.755   0.118  0.2314 -0.2975 -0.1476
14742W        W32266  10.462  16.895  13.974 -0.4126 -0.0978  0.3505
14743W        W32267  16.099   0.495  15.534  0.1198 -0.3207  0.2366
14744W        W32268   3.539  13.874  13.644 -0.0510 -0.0237  0.2974
14745W        W32269  11.046  10.489  12.111  0.2228 -0.0657  0.0433
14746W        W32270   1.762  14.547   1.622 -0.0056  0.1997  0.0553
14747W        W32271   0.874  10.154   4.700  0.0923 -0.3084 -0.1824
14748W        W32272  16.776  18.185   3.207  0.1567  0.1787 -0.3070
14749W        W32273   6.594   4.531  14.484 -0.0993  0.0575 -0.0847
14750W        W32274  15.592  12.293  15.247  0.1564  0.0350 -0.0703
14751W        W32275   5.872   7.262   2.369  0.0812 -0.0864  0.0650
14752W        W32276   0.264  16.684   1.236  0.1400  0.0080 -0.0578
14753W        W32277  11.111  15.988  15.159 -0.0990 -0.1858  0.3521
14754W        W32278   7.436   2.212  14.487 -0.1209  0.2055  0.0776
14755W        W32279   7.919  14.204  12.843  0.1228 -0.0472 -0.0854
14756W        W32280   3.679   5.417   4.459  0.1550 -0.0469  0.2397
14757W        W32281   9.456   2.929   3.429  0.2860  0.2167 -0.1257
14758W        W32282  11.586  15.902   3.916 -0.0951  0.1156 -0.0810
14759W        W32283  11.414  14.401   2.343  0.0056  0.0563 -0.0423
14760W        W32284  14.212  15.920   4.125 -0.0020 -0.1881  0.0119
14761W        W32285   2.566  14.618   0.494  0.1745  0.1073  0.0800
14762W        W32286  11.538  11.553  11.194 -0.2147 -0.1236 -0.0079
14763W        W32287   9.071  10.103   0.965  0.1028  0.2843 -0.2031
14764W        W32288  10.994  17.175   2.142 -0.0671 -0.0112 -0.1220
14765W        W32289   4.079  13.782  13.740 -0.0828 -0.0023 -0.0779
14766W        W32290  14.533   3.222  14.084 -0.0620 -0.0508 -0.0139
14767W        W32291   7.373  17.096   1.261 -0.0841 -0.3829 -0.0504
14768W        W32292  16.418   5.719  11.909  0.0980  0.2786  0.3086
14769W        W32293  14.766   0.951  14.415  0.1310 -0.1062 -0.1303
14770W        W32294   5.306   6.728  10.684 -0.0033  0.3869 -0.1553
14771W        W32295   9.345   7.117   0.943  0.0941 -0.1137  0.1564
14772W        W32296  16.529  15.870  14.972  0.0965 -0.4035 -0.1198
14773W        W32297   0.007   0.380  12.769  0.1302 -0.0417 -0.1690
14774W        W32298   8.961   7.906  12.362  0.2680  0.0288 -0.2629
14775W        W32299  13.311   4.394  12.879  0.3632 -0.1801  0.0543
14776W        W32300   0.644  16.546  13.850  0.3130  0.1834 -0.0394
14777W        W32301   0.598   3.110  11.747 -0.1006  0.1289  0.3672
14778W        W32302   9.660   3.823   1.012 -0.0085 -0.0753  0.3165
14779W        W32303   2.698   8.385   3.539 -0.2854  0.0012  0.1480
14780W        W32304  15.581   8.482   2.641  0.0070  0.3040  0.1729
14781W        W32305  10.444  14.090  14.081  0.1647 -0.2371  0.0240
14782W        W32306  14.093  15.220  15.208 -0.0884  0.2181 -0.1293
14783W        W32307  18.084   4.220   1.301  0.0425 -0.1593  0.0977
14784W        W32308   2.883  14.498   4.896  0.1780  0.0706 -0.0848
14785W        W32309  10.051   4.570  14.004 -0.0091 -0.4298 -0.0718
14786W        W32310   5.790  14.535  10.949 -0.1995  0.2001  0.0901
14787W        W32311   8.126  16.003   2.082 -0.0912  0.2258  0.0162
14788W        W32312  16.298   2.494   0.183  0.0051  0.1173  0.0587
14789W        W32313   0.501  14.423  13.905  0.1743 -0.2446  0.0115
14790W        W32314   4.392   5.515   3.115 -0.2607 -0.2459 -0.1453
14791W        W32315   1.954  11.578  12.395  0.1708 -0.1442  0.0028
14792W        W32316  12.056   7.123   2.752 -0.2583 -0.0272 -0.0116
14793W        W32317  17.954   7.155  14.102 -0.1969 -0.1504 -0.1310
14794W        W32318  11.223   6.919   4.380 -0.0010  0.4017  0.0960
14795W        W32319   1.938   9.199   5.169 -0.0227 -0.4826 -0.0736
14796W        W32320   1.868  12.092  11.864 -0.1664 -0.0530  0.4220
14797W        W32321  11.732   9.907  13.316  0.0789 -0.0678 -0.0271
14798W        W32322   5.738  11.148  11.709  0.3084  0.0746 -0.3476
14799W        W32323   6.753   6.509   3.207 -0.0699  0.0100  0.0610
14800W        W32324   1.337  13.793  14.088 -0.0191  0.0767  0.1539
14801W        W32325   7.831   0.674  12.245  0.4137 -0.0808  0.1140
14802W        W32326  10.235  11.354   5.441 -0.0197 -0.3000  0.0793
14803W        W32327   4.338   9.743  15.965  0.0707  0.0853  0.0306
14804W        W32328   7.492  14.325   1.447 -0.0653  0.3371 -0.0985
14805W        W32329   9.427  10.157  13.152  0.2647 -0.2795 -0.2696
14806W        W32330   6.586   3.543   0.459 -0.0153 -0.1775 -0.1132
14807W        W32331   5.054   7.618   2.408 -0.1400 -0.1394  0.0656
14808W        W32332  13.849   8.422   4.593  0.2733 -0.0326 -0.0065
14809W        W32333   8.911   3.866   5.041 -0.4222  0.0650  0.1024
14810W        W32334   9.999   2.582  11.478  0.3498  0.1184  0.2004
14811W        W32335   2.819  12.699   5.059  0.1760  0.0622 -0.0523
14812W        W32336   5.890  15.875   2.307 -0.3339 -0.1786 -0.0793
14813W        W32337  14.883  17.030  14.121  0.1523  0.1815  0.1701
14814W        W32338  11.443   5.257  11.531  0.2150 -0.1656 -0.0092
14815W        W32339  17.505  12.260   0.923 -0.2012  0.2618  0.3718
14816W        W32340   5.366   6.644  15.061  0.0727 -0.0761  0.1106
14817W        W32341   8.856  17.343  14.393  0.2643  0.0058  0.2545
14818W        W32342   5.747  10.867   0.038  0.2294  0.0044 -0.1518
14819W        W32343   7.513   1.443   4.609 -0.2279  0.0453  0.0707
14820W        W32344  11.910  16.543  15.404  0.0429 -0.3695 -0.0313
14821W        W32345   6.606   8.330  11.964  0.1020  0.0313  0.0275
14822W        W32346   3.607   4.443   4.295  0.0768 -0.0209  0.2809
14823W        W32347   3.187  11.727  13.783 -0.0382 -0.2512 -0.0494
14824W        W32348   4.367   4.220   0.037 -0.1462  0.2066  0.1420
14825W        W32349   0.663  12.052   3.331  0.0062  0.0667  0.0317
14826W        W32350   3.850  10.244   0.708 -0.3267 -0.0857 -0.2650
14827W        W32351  17.895  11.668  14.590 -0.2390  0.0487 -0.2882
14828W        W32352   5.951   4.485  13.721  0.0582  0.0745  0.0721
14829W        W32353  14.902  18.179   4.647 -0.4619 -0.1003  0.0091
14830W        W32354  17.233  11.953  11.646  0.1843  0.1852 -0.0625
14831W        W32355   3.932   9.256  14.213  0.0373  0.0263  0.1771
14832W        W32356   8.922   4.036  12.658  0.0492  0.0180  0.0728
14833W        W32357  17.640   9.042   1.806  0.0820 -0.5598  0.2644
14834W        W32358   0.955   0.248   0.818 -0.3287  0.1488  0.1216
14835W        W32359   9.271   8.682   4.057  0.1997  0.1051  0.1861
14836W        W32360   6.846  11.833   2.312  0.0624 -0.1495  0.0662
14837W        W32361  13.762  10.267   0.774  0.2094 -0.1391  0.0767
14838W        W32362  10.039  12.308   3.235 -0.1883  0.3093  0.3901
14839W        W32363   7.355   7.404  13.415  0.1428  0.0064 -0.0231
14840W        W32364  17.858  10.248  12.472  0.0846  0.1407  0.1505
14841W        W32365  14.097   5.231  15.071  0.0115  0.2328  0.0692
14842W        W32366   8.969   0.120   4.733  0.0843  0.2226  0.0084
14843W        W32367   9.952  16.588  11.303 -0.4656 -0.1914 -0.1779
14844W        W32368   6.120   7.268   0.116  0.1512 -0.0547 -0.2195
14845W        W32369  10.873   4.967  15.838 -0.0359  0.0003 -0.3306
14846W        W32370   3.590   1.379   2.311 -0.5369 -0.0642  0.0310
14847W        W32371   7.638  16.279   2.104  0.0298 -0.4423  0.1477
14848W        W32372   5.355   4.895   0.786  0.0534  0.1549 -0.0185
14849W        W32373  12.469  14.098   1.464  0.0095 -0.2762 -0.1264
14850W        W32374  16.795   5.910   0.823 -0.0939  0.0243 -0.0979
14851W        W32375  17.479   3.583   2.746 -0.1876  0.0756  0.0287
14852W        W32376  15.308   6.128  15.809  0.1080  0.1062 -0.3566
14853W        W32377  16.826   3.608  15.310  0.2832 -0.1782  0.0288
14854W        W32378   3.040   8.396   3.122  0.3628  0.2710  0.0729
14855W        W32379  11.592   9.049  11.555  0.1058 -0.2014 -0.0941
14856W        W32380   2.418  11.525   5.495  0.2806  0.2868  0.0493
14857W        W32381  14.023  16.435   2.670 -0.2630 -0.0755 -0.1987
14858W        W32382   3.935  16.842  15.566  0.0506 -0.1391  0.0446
14859W        W32383   9.353  12.095   2.015  0.0562  0.1598  0.3950
14860W        W32384   6.636  16.942  11.174  0.1142 -0.3218 -0.0200
14861W        W32385  11.423  17.350  15.527 -0.3508  0.1515  0.0801
14862W        W32386  16.688  17.780   0.923 -0.1252  0.2678 -0.0819
14863W        W32387  15.396  10.182  14.516 -0.1633 -0.1522 -0.4479
14864W        W32388  14.890   9.134  15.332  0.1146  0.2995 -0.1050
14865W        W32389  11.016  12.672  14.280  0.1596 -0.0141  0.3660
14866W        W32390  17.260  16.400   1.179  0.0701  0.0144 -0.2763
14867W        W32391   0.402   5.212   4.306 -0.2830 -0.2998 -0.3397
14868W        W32392  14.405  11.057  16.000  0.1394 -0.0740  0.1491
14869W        W32393   5.984  17.443   4.449 -0.3464  0.2388 -0.0571
14870W        W32394  17.524   8.122   2.193  0.0238 -0.0827 -0.3715
14871W        W32395  14.312  17.958   2.007 -0.0193  0.1176  0.4922
14872W        W32396   9.567   6.938  10.479  0.0885 -0.1317 -0.2833
14873W        W32397   8.008  14.997  13.579  0.1827 -0.1427  0.0177
14874W        W32398   9.593   3.137   4.157  0.2625 -0.1680  0.0567
14875W        W32399   3.640   2.332  15.968  0.0539 -0.0797 -0.1692
14876W        W32400   5.548   0.274  15.673  0.1365 -0.2138 -0.0768
14877W        W32401   9.131   1.464   1.859  0.2787 -0.1499  0.0703
14878W        W32402  18.042   7.313  14.671  0.2997  0.2326 -0.4272
14879W        W32403  11.833   7.397  11.391 -0.1308 -0.2627 -0.2808
14880W        W32404   9.798  16.932   1.459 -0.1381  0.1429 -0.1118
14881W        W32405   8.638   5.466   0.376 -0.1047  0.2067  0.1377
14882W        W32406  14.149   3.273   3.516  0.1595 -0.0371  0.0843
14883W        W32407  16.948   7.962   1.832 -0.0635 -0.1701  0.2813
14884W        W32408   7.141   7.296   1.039 -0.1696  0.1680 -0.2855
14885W        W32409   0.879   1.953  13.548 -0.2089 -0.1836  0.3189
14886W        W32410   3.609   4.008  15.913  0.2238  0.2214  0.0109
14887W        W32411   0.601  10.605  14.204 -0.0771  0.0833  0.2474
14888W        W32412   5.175   3.236   1.352  0.2638  0.4543 -0.1959
14889W        W32413  11.232  13.326  11.621 -0.1989 -0.0791 -0.1148
14890W        W32414   3.862  17.469  13.281 -0.1369 -0.0919 -0.0105
14891W        W32415   6.041   1.126  14.162  0.1941  0.0835  0.3476
14892W        W32416  17.005  17.838  15.217  0.0850 -0.1795 -0.0443
14893W        W32417   4.526  17.906  11.744  0.2071 -0.0969  0.2504
14894W        W32418   2.871   1.138  12.266 -0.0234 -0.0709  0.0992
14895W        W32419  11.079   0.175   4.078  0.1601  0.2375 -0.3051
14896W        W32420  17.547   5.838   2.747  0.0695  0.2564  0.1851
14897W        W32421   8.379  16.615   2.848  0.1927 -0.2598 -0.2923
14898W        W32422   7.510  11.157  15.986 -0.1198  0.0461 -0.1587
14899W        W32423   2.812  16.907  15.713 -0.0796  0.2475 -0.2724
14900W        W32424  16.342  13.900  13.462 -0.0206 -0.3318 -0.0507
14901W        W32425   5.959   3.297   2.870 -0.0903 -0.1052  0.0870
14902W        W32426  11.472  12.903  11.831  0.0300 -0.1609  0.1874
14903W        W32427  15.161  13.408   2.609 -0.0582 -0.2870 -0.0118
14904W        W32428  13.452   2.047  12.508 -0.1566  0.1360 -0.1233
14905W        W32429  15.430   4.846   2.428 -0.0316  0.1815  0.0087
14906W        W32430   5.057   7.591   5.824  0.1155 -0.3285 -0.1409
14907W        W32431   4.178  17.351   0.470  0.0726  0.2475 -0.0886
14908W        W32432  13.266   0.442  13.633  0.0076  0.1110  0.0146
14909W        W32433   2.128  11.309  12.807 -0.1061 -0.2704  0.1284
14910W        W32434   8.042   1.018  14.858 -0.1471  0.4027  0.0211
14911W        W32435   4.269   7.818  11.411 -0.0101  0.0760  0.0435
14912W        W32436   1.225   5.549  13.667  0.2292 -0.2578 -0.1568
14913W        W32437  17.881   3.944   2.468  0.4260 -0.1295  0.0991
14914W        W32438  15.151   7.599   5.422 -0.0306 -0.1248 -0.2903
14915W        W32439   6.341   2.257   5.280 -0.2069  0.3597  0.0346
14916W        W32440   6.964  12.241  11.630  0.4301  0.0043  0.0401
14917W        W32441  11.406   6.626   1.430 -0.2561 -0.1821  0.0975
14918W        W32442   2.799  15.872  11.960  0.0021 -0.0558  0.1375
14919W        W32443   4.497  12.841  14.881  0.1596  0.0547 -0.3037
14920W        W32444   1.759   3.785   2.353 -0.0573 -0.0423  0.2038
14921W        W32445  14.582   7.248  15.409  0.1760  0.0058 -0.2736
14922W        W32446  15.374   4.831   5.585  0.1475 -0.1431 -0.0829
14923W        W32447   1.544  12.622   0.017 -0.0821 -0.1221  0.1105
14924W        W32448   4.459  11.862  14.538  0.0404  0.0997  0.0913
14925W        W32449  14.324   4.690  13.571 -0.0083  0.0687 -0.1655
14926W        W32450  12.244   6.953   3.929  0.2514  0.0740  0.2304
14927W        W32451  11.889   2.930   3.294 -0.1826  0.0964  0.1557
14928W        W32452   9.333  14.370   5.060  0.0085 -0.2073 -0.0107
14929W        W32453   8.327  12.400  14.585 -0.1145 -0.1528 -0.1676
14930W        W32454   0.756  12.624  13.250 -0.0183 -0.0948  0.1876
14931W        W32455  16.482  16.068   3.206 -0.1501 -0.0195 -0.1536
14932W        W32456   4.380  13.600   0.336 -0.1089 -0.0354 -0.4457
14933W        W32457  16.122  16.180   1.057 -0.1215  0.2314  0.0866
14934W        W32458   3.761   8.060  14.034 -0.1532 -0.1793 -0.3822
14935W        W32459  16.372  15.170   1.283  0.1850  0.4574 -0.4107
14936W        W32460  16.434  15.568   1.706  0.1424  0.0381  0.1966
14937W        W32461  17.550  18.025   1.807  0.1193 -0.1420 -0.3222
14938W        W32462   1.573  17.958  13.602  0.2460  0.1385 -0.3051
14939W        W32463   2.844   0.155  12.668  0.2277 -0.1393  0.4682
14940W        W32464  15.628  15.292   0.212 -0.1826 -0.0623  0.0293
14941W        W32465  10.448   0.934  14.023 -0.3739 -0.3154 -0.1154
14942W        W32466   4.512  10.467  11.678 -0.0041 -0.2845 -0.0921
14943W        W32467  11.136  17.523   2.470  0.5406 -0.0752 -0.0687
14944W        W32468   9.111  10.141  15.774  0.0571 -0.0186  0.1403
14945W        W32469   5.136  14.560   3.766  0.0528  0.1478  0.1611
14946W        W32470  15.161   3.815   4.531  0.1688  0.1213  0.4152
14947W        W32471   9.536   0.323   0.466  0.1385 -0.0102 -0.4167
14948W        W32472   9.052  12.866   3.871  0.0598 -0.0283  0.1905
14949W        W32473  17.884  17.363  13.003 -0.0036  0.0417 -0.0598
14950W        W32474   4.260   3.572  14.338 -0.0704 -0.1554  0.0676
14951W        W32475   0.788   1.128  15.700  0.2664 -0.1875 -0.0289
14952W        W32476   7.651   2.515   1.539  0.1539  0.0398  0.3262
14953W        W32477   9.270  14.298   1.220 -0.1292  0.1815 -0.1499
14954W        W32478  11.867  10.924   3.120 -0.0049 -0.0439 -0.0762
14955W        W32479   4.756  11.259   5.266 -0.1664  0.0466  0.2761
14956W        W32480   8.769   9.215   3.475 -0.1900 -0.0017  0.0916
14957W        W32481  13.103   7.714   3.242  0.2626  0.1691  0.1039
14958W        W32482  12.229  14.307   0.488 -0.3755  0.4386  0.0589
14959W        W32483  16.218  12.908   1.103 -0.1360  0.0449  0.0604
14960W        W32484  13.530  17.045  12.855  0.1971  0.1275  0.2074
14961W        W32485  17.413   7.850   3.365 -0.1423  0.0003 -0.1174
14962W        W32486   1.357  10.758   4.064  0.4645 -0.0005 -0.2854
14963W        W32487   5.086   5.320  12.401 -0.0736  0.0765 -0.2011
14964W        W32488   0.295  12.831   3.456  0.2936 -0.3163  0.0583
14965W        W32489  16.621  16.412   2.769  0.0360 -0.0068  0.3443
14966W        W32490  12.192   9.204   4.520  0.0034  0.0525 -0.0053
14967W        W32491  12.544  16.677  11.285  0.2268  0.0981 -0.2713
14968W        W32492   4.954   8.490  14.526  0.1021  0.1754 -0.1811
14969W        W32493   7.347  14.506  11.567  0.1074  0.1349 -0.1779
14970W        W32494  11.432  10.002  12.621 -0.2613 -0.0404 -0.0168
14971W        W32495   5.613  10.032  15.738 -0.1755  0.1833  0.1222
14972W        W32496  15.937  16.827   3.133  0.3305 -0.2129  0.0281
14973W        W32497  15.461   2.602  16.007 -0.1614  0.0469 -0.0502
14974W        W32498  17.532   2.842   0.289 -0.3767  0.0619  0.1046
14975W        W32499  14.406   2.376  11.885  0.0357 -0.2867 -0.1418
14976W        W32500   5.821  11.045   4.909  0.0102 -0.0583  0.1233
14977W        W32501  13.196   6.081  13.245 -0.1201  0.0541  0.0492
14978W        W32502   4.461  14.149  11.420 -0.0607  0.5140 -0.0950
14979W        W32503  13.211  12.894  14.704 -0.2042  0.4097  0.3494
14980W        W32504  10.972  14.260   3.277  0.1473  0.2332 -0.3142
14981W        W32505  12.627   0.895   5.411  0.1796  0.0381 -0.0349
14982W        W32506   2.183  12.487   1.897  0.0268 -0.2680 -0.0129
14983W        W32507  12.963   5.024   4.736 -0.1376 -0.3272  0.3168
14984W        W32508  15.410  17.697  13.154  0.1400  0.0176 -0.1500
14985W        W32509  13.874   4.684  14.923  0.3030 -0.0898 -0.0660
14986W        W32510   5.351  11.190  13.929 -0.1711  0.0187  0.4629
14987W        W32511   9.868  17.145   0.801  0.1129 -0.0948  0.0376
14988W        W32512  11.562   6.977  12.911  0.0100  0.1668  0.2511
14989W        W32513   7.173   6.161   3.448 -0.0537 -0.1839  0.0863
14990W        W32514   6.744  13.183  15.696  0.0345  0.1280 -0.0772
14991W        W32515   6.322  10.941  14.298  0.1938  0.0151 -0.3178
14992W        W32516   7.039   7.886  15.699 -0.2229  0.2203  0.2519
14993W        W32517   7.819  17.839  15.787 -0.3312  0.0388 -0.0776
14994W        W32518   8.667  10.685   3.375 -0.0301 -0.1235 -0.0972
14995W        W32519   7.569   5.054   3.638  0.1325  0.4700 -0.1443
14996W        W32520   4.083  12.083   2.648  0.0576  0.0028  0.2608
14997W        W32521   3.980   3.103  15.934 -0.1155  0.0427 -0.0620
14998W        W32522   5.978   6.262   0.655  0.0141  0.0728 -0.0381
14999W        W32523  16.847  17.551   4.004  0.2428  0.1369 -0.0551
15000W        W32524   6.994  11.912  13.244 -0.1481 -0.1166 -0.1855
15001W        W32525   3.935   4.297  12.596 -0.1438  0.0848  0.0997
15002W        W32526   4.610   6.973  11.254 -0.0852  0.1045 -0.0964
15003W        W32527  14.646   7.068  14.959  0.0350 -0.0673 -0.2965
15004W        W32528  16.974  11.216  15.525  0.0985  0.0813  0.2320
15005W        W32529  10.944   5.536   4.705  0.1988  0.0256  0.3763
15006W        W32530  16.732   4.228   3.048 -0.2744  0.0878 -0.0161
15007W        W32531   6.886  16.466   0.068  0.0449  0.0337 -0.1732
15008W        W32532  16.083  11.025   3.580 -0.1230 -0.1800  0.1370
15009W        W32533  11.891  10.482  11.415  0.0334 -0.1802  0.0523
15010W        W32534   9.084   8.190  13.248 -0.4229 -0.0159 -0.1781
15011W        W32535   5.002  17.886  11.870 -0.2114 -0.1164  0.1088
15012W        W32536  14.772   2.309   2.679  0.1274 -0.2334 -0.2344
15013W        W32537  10.674  15.561  14.420  0.0302  0.2796  0.0276
15014W        W32538  10.739  12.099  11.491 -0.3927  0.0773  0.1188
15015W        W32539   7.533   1.343   0.144  0.1263  0.3362  0.1636
15016W        W32540  15.368   5.978   0.694 -0.0181  0.1976 -0.0333
15017W        W32541  11.048   6.352  10.446  0.0395 -0.1874 -0.2531
15018W        W32542   3.084  13.535  14.073 -0.2974 -0.0005 -0.1387
15019W        W32543  10.000   7.929  15.563  0.1963 -0.1152  0.2140
15020W        W32544  11.604   7.914  13.581  0.1273  0.0769  0.1445
15021W        W32545  10.037  11.219  13.010  0.1629 -0.1928  0.2197
15022W        W32546  10.415  13.805  11.428  0.0088 -0.0323 -0.0094
15023W        W32547  12.665   3.249  14.948 -0.0886 -0.2294  0.1405
15024W        W32548   9.913   2.160  10.576 -0.0591 -0.0935  0.1672
15025W        W32549   2.482   4.713   4.929  0.0988 -0.0758 -0.1992
15026W        W32550  14.298  17.824   3.517 -0.0585 -0.3236  0.0541
15027W        W32551   0.023   3.248  14.759  0.2524  0.0804 -0.0839
15028W        W32552  13.530   9.918  12.188 -0.1845  0.2733  0.2294
15029W        W32553   8.395  18.122   3.023  0.1162 -0.0699  0.0202
15030W        W32554   9.035  11.717   1.679 -0.1480 -0.0279 -0.0749
15031W        W32555  11.939   8.032  15.364 -0.1248  0.1751  0.0445
15032W        W32556  15.834   8.175  13.734 -0.0339  0.2765  0.0799
15033W        W32557   5.824   5.131   1.638 -0.1637  0.0283  0.1011
15034W        W32558  15.474   7.493   0.456 -0.3249  0.2509 -0.2265
15035W        W32559   2.764  15.404   0.724 -0.1420  0.1897  0.0923
15036W        W32560   4.991   8.536   2.324 -0.1080  0.2410 -0.2650
15037W        W32561   3.718   6.942  10.930 -0.1186  0.2585 -0.0323
15038W        W32562  13.559  11.956  14.865  0.1143  0.0380  0.1822
15039W        W32563   5.611  12.426   3.898 -0.1857  0.1418  0.1290
15040W        W32564   5.224  14.778   0.398 -0.1644  0.2312  0.2356
15041W        W32565   6.305   9.451   0.892 -0.0849 -0.0392 -0.1317
15042W        W32566   9.716   4.922   2.437  0.0092  0.0005  0.1481
15043W        W32567   5.105  16.213  13.799  0.1186  0.0545  0.0560
15044W        W32568   8.342  14.953   1.409 -0.1036  0.0840  0.1205
15045W        W32569   4.694   4.191  11.861 -0.3115 -0.0167 -0.0468
15046W        W32570  12.362   4.446   1.656  0.1693  0.1241  0.3690
15047W        W32571   4.562   6.958  13.981  0.2764  0.0274 -0.0264
15048W        W32572  15.073  14.136   1.484  0.1174  0.1351 -0.2971
15049W        W32573  16.457  16.439  11.501 -0.1477  0.0626 -0.1187
15050W        W32574   9.502  17.222   3.915  0.1068  0.0232  0.0662
15051W        W32575   1.861  16.910  13.920  0.0158 -0.0572  0.0379
15052W        W32576   8.846   1.338   0.416 -0.0252  0.0796  0.1325
15053W        W32577   4.973   0.755  10.906  0.3910  0.1310 -0.2422
15054W        W32578   9.166  10.908   2.516  0.1674  0.2244  0.2666
15055W        W32579   7.531  16.049   1.355 -0.3399  0.3015 -0.2353
15056W        W32580  15.056   8.772  13.452 -0.0672  0.0059 -0.1190
15057W        W32581  13.422  10.273  13.300 -0.1110  0.0742 -0.1329
15058W        W32582   6.598  12.176  12.342  0.1238 -0.0687 -0.0528
15059W        W32583   7.401   1.905   2.191 -0.0280 -0.0724 -0.0273
15060W        W32584  13.637   2.745  15.319 -0.0807 -0.0648  0.0724
15061W        W32585  16.045  13.732   1.375 -0.0352 -0.0600 -0.1063
15062W        W32586  13.996  10.542   3.875 -0.3491 -0.2543 -0.3554
15063W        W32587   1.266  15.523  15.169 -0.1393  0.1013  0.0721
15064W        W32588   2.576  15.042  11.294  0.0863 -0.2959 -0.2007
15065W        W32589  10.247   5.167  14.116  0.2875  0.0978  0.0483
15066W        W32590  17.553   3.799  12.982  0.0858  0.1368 -0.0023
15067W        W32591   5.462  17.071   4.531  0.2608  0.3475 -0.0142
15068W        W32592   4.266   0.458  14.899  0.0443 -0.0779 -0.1553
15069W        W32593   5.389   4.758  10.751  0.2065  0.0577 -0.0350
15070W        W32594  17.546   9.901   1.970  0.0249  0.0295  0.0826
15071W        W32595  17.244  11.644  15.478 -0.0207  0.1712  0.3103
15072W        W32596   4.814   7.701   3.453 -0.1373 -0.4165 -0.1548
15073W        W32597   5.040  11.026   1.906 -0.0712  0.0573  0.0218
15074W        W32598   3.618   1.638  12.179  0.1357  0.0978 -0.2421
15075W        W32599   8.413  14.430   1.184  0.0238  0.0599  0.2278
15076W        W32600   5.307  15.973   3.090  0.0518 -0.4031  0.0791
15077W        W32601   6.505  17.262   2.481  0.0691 -0.2268  0.2108
15078W        W32602  10.490   1.863   0.371 -0.0380  0.1092 -0.2786
15079W        W32603   9.645   7.268  11.961  0.1257  0.1350 -0.2642
15080W        W32604  16.532  15.957   3.981  0.0550  0.1999  0.0109
15081W        W32605  11.994   5.284  14.194 -0.0582 -0.1706  0.0928
15082W        W32606   4.491   6.773   5.366  0.0543 -0.0695 -0.1070
15083W        W32607   6.113   6.111  14.650 -0.0891 -0.0243 -0.2406
15084W        W32608   3.525  16.360  14.774  0.3093 -0.0171  0.1198
15085W        W32609  12.595  16.390  13.795  0.1962 -0.1458 -0.0948
15086W        W32610  16.192   5.133   4.497  0.0495  0.1610  0.2559
15087W        W32611  11.624   9.683   1.522  0.1673  0.3951 -0.1166
15088W        W32612  17.529   5.489   4.084 -0.3387 -0.1856  0.0989
15089W        W32613   7.374  12.348   5.822 -0.2242 -0.0036  0.0546
15090W        W32614   9.355  15.713   1.621 -0.0681 -0.1457  0.0487
15091W        W32615  12.955  13.240   3.754 -0.1704 -0.1982 -0.0255
15092W        W32616   9.105   8.825  12.859 -0.3436 -0.0261  0.1198
15093W        W32617  15.184  14.580  12.517 -0.0583 -0.0402  0.1770
15094W        W32618  17.856  13.967   2.816  0.0697  0.3097 -0.0423
15095W        W32619  16.247   1.011   2.666  0.1854 -0.2117  0.2553
15096W        W32620  14.051   8.547  13.918 -0.0412 -0.0204  0.0535
15097W        W32621   8.206  17.313  15.267  0.2240  0.0132  0.2635
15098W        W32622   8.684  10.124   3.187 -0.1555  0.1168 -0.0183
15099W        W32623   6.062   6.033   3.575 -0.1595 -0.1217  0.1378
15100W        W32624  17.485  17.585  15.994  0.0635  0.1831  0.2890
15101W        W32625   5.883   4.913  12.136  0.0410  0.0234  0.2837
15102W        W32626   3.528   5.813   3.233  0.0134  0.0156  0.0018
15103W        W32627   6.579  12.371   5.232  0.0517  0.1924  0.3611
15104W        W32628   9.108  12.493   4.174 -0.1572 -0.0251 -0.0933
15105W        W32629  12.119   3.528   3.326  0.2716  0.1764  0.0069
15106W        W32630  12.740  13.390   0.621  0.0752  0.2735 -0.0466
15107W        W32631   2.094   2.826  11.284  0.2713  0.2208  0.0549
15108W        W32632   7.513   1.461   0.674  0.2270 -0.0124 -0.0970
15109W        W32633  17.031  13.086   1.755  0.1541  0.1924 -0.1322
15110W        W32634  10.315  13.763   3.051  0.0534  0.0730  0.0411
15111W        W32635  13.986   4.988  13.728  0.0252 -0.0121  0.1121
15112W        W32636   6.041  13.529  12.621 -0.0704  0.3510  0.0910
15113W        W32637  10.188   9.716   3.910 -0.3859 -0.2059  0.0416
15114W        W32638  11.311   7.656   0.615 -0.0354 -0.1109 -0.0496
15115W        W32639  14.699   5.115  11.954 -0.1356 -0.0112  0.0887
15116W        W32640  14.160   8.771   4.861  0.2134  0.0236 -0.0033
15117W        W32641  14.369  13.980  14.848 -0.1401  0.0313  0.0218
15118W        W32642   7.095   7.818   1.943  0.0148  0.2153 -0.1789
15119W        W32643   9.524   0.375   1.122 -0.0923 -0.2071 -0.0889
15120W        W32644  11.368  15.981  14.140  0.2940  0.0042  0.0404
15121W        W32645   2.412  10.551  11.787  0.1157 -0.1497  0.0416
15122W        W32646  10.205   6.378  13.519  0.0629  0.1841 -0.1718
15123W        W32647   7.148  15.254  13.863  0.0699  0.2150 -0.0643
15124W        W32648  11.028   8.727   1.683  0.0727 -0.1105  0.4460
15125W        W32649   9.178  14.628  11.440  0.2833 -0.2133 -0.0772
15126W        W32650   4.213   0.266   2.829 -0.2394  0.2591  0.0586
15127W        W32651   9.099  16.708   4.499 -0.4029 -0.0112 -0.0589
15128W        W32652   9.460  17.682  12.395 -0.0953  0.3455  0.0274
15129W        W32653   9.309  17.129  10.966  0.1461  0.0766  0.2849
15130W        W32654   6.182   8.585  10.598  0.1688 -0.0579  0.1207
15131W        W32655  15.884   9.402   2.202 -0.2314  0.1602 -0.2056
15132W        W32656   9.507   6.948   3.849 -0.3458 -0.0040 -0.0042
15133W        W32657   0.847  10.846   3.419 -0.0155  0.0248  0.0744
15134W        W32658   9.230   9.450  13.961 -0.0531  0.4073 -0.2019
15135W        W32659   9.927  11.395   1.621 -0.2017  0.1550  0.0687
15136W        W32660   7.462   6.856  14.724 -0.2954  0.1679  0.2563
15137W        W32661   9.474   8.043   0.304  0.2997 -0.1183 -0.1036
15138W        W32662   6.788   5.334   0.946 -0.1422  0.0237  0.2849
15139W        W32663   9.556  17.811   3.058  0.0483  0.1914 -0.4847
15140W        W32664   4.158   5.873  13.626  0.1385 -0.1864  0.2404
15141W        W32665   6.481   5.285  14.747  0.0929  0.1044 -0.5340
15142W        W32666   4.206  13.564   0.776 -0.0899  0.3022  0.0210
15143W        W32667   4.951   8.357  13.996 -0.4579 -0.0079  0.1621
15144W        W32668  15.532  13.191   6.148  0.1966  0.0987  0.2639
15145W        W32669   4.789   2.831  15.933 -0.1890  0.4086  0.0742
15146W        W32670   6.844   6.602  15.706  0.1338 -0.2641  0.0952
15147W        W32671  15.362  12.350  12.586 -0.2450 -0.1987  0.0492
15148W        W32672  11.389   8.517   4.542  0.0627  0.1024 -0.3777
15149W        W32673  10.860   3.786  15.201  0.2899 -0.0003  0.0346
15150W        W32674   6.609   3.732   3.505 -0.1898 -0.1920  0.0640
15151W        W32675   0.113  14.515  13.491 -0.1060 -0.2600 -0.0370
15152W        W32676   3.555   9.470   1.377  0.2313  0.1157 -0.0364
15153W        W32677  14.328  13.376   4.413 -0.2967  0.0396  0.1536
15154W        W32678   8.897  16.776  13.984 -0.4360 -0.0370  0.1341
15155W        W32679   0.006   0.831  15.758 -0.0037 -0.0233 -0.2129
15156W        W32680   2.021   9.609   0.099 -0.0678  0.0406  0.1009
15157W        W32681   0.803   4.021  13.209  0.0839  0.0679 -0.2176
15158W        W32682   8.568   3.158   2.335  0.0698  0.1281 -0.0757
15159W        W32683  12.184   4.942   2.809  0.2210  0.3667  0.0643
15160W        W32684   1.026  16.534  13.518  0.1100  0.0804  0.2715
15161W        W32685   9.763  16.448   1.504 -0.1768  0.0544  0.2181
15162W        W32686  14.289   3.122  11.600 -0.0358 -0.3547 -0.1160
15163W        W32687   4.900   0.577  15.177 -0.0764 -0.1880 -0.2167
15164W        W32688   6.786  14.853   4.659  0.0077 -0.1596 -0.2955
15165W        W32689  12.584   8.787   2.762  0.1380 -0.0597 -0.0403
15166W        W32690   6.025   5.561   2.068 -0.1992 -0.0502  0.2185
15167W        W32691  16.696  14.261   4.473 -0.2747  0.2421 -0.2301
15168W        W32692  17.330  11.282  14.671 -0.1256 -0.2039  0.0477
15169W        W32693   2.653   2.148  16.053  0.1834 -0.3125  0.0884
15170W        W32694  17.807  15.055   4.301 -0.1382 -0.0489 -0.1991
15171W        W32695   0.056   0.990   2.327 -0.2465 -0.0420 -0.3500
15172W        W32696  16.468  18.168  13.736  0.2827 -0.0123  0.2580
15173W        W32697  10.204  10.272  13.662 -0.3219  0.0559  0.0445
15174W        W32698   6.193  15.150   2.516  0.0447  0.2196 -0.3236
15175W        W32699  16.632   3.330   3.185 -0.0763 -0.0111 -0.0439
15176W        W32700  14.805   8.278   1.598  0.0955 -0.1533  0.0392
15177W        W32701   3.865  15.970   0.166  0.1726  0.0396  0.1272
15178W        W32702   0.585   7.097  15.838 -0.0099  0.0407  0.0266
15179W        W32703  10.984   6.192  14.289  0.1350  0.1801 -0.0281
15180W        W32704   5.601   1.328  12.358 -0.4015  0.3821 -0.0504
15181W        W32705   1.460   8.494  13.852 -0.0321 -0.1501  0.0262
15182W        W32706  12.041   9.811  15.506  0.0397  0.3425 -0.0461
15183W        W32707   7.926  17.194  11.486  0.1186 -0.4107 -0.0667
15184W        W32708   5.875  14.898  12.156 -0.0489 -0.3201  0.3155
15185W        W32709  11.705  12.272   1.508  0.0094  0.1810  0.1040
15186W        W32710  14.409   9.838   0.490  0.0400 -0.0011 -0.0316
15187W        W32711   1.302   8.218  12.425  0.0515 -0.1620 -0.1087
15188W        W32712  15.511  12.728   0.932  0.2075  0.3060 -0.2569
15189W        W32713   2.983  14.830   0.115 -0.0009  0.0210 -0.1082
15190W        W32714   9.588   7.625   1.149  0.1991  0.2002 -0.0033
15191W        W32715   1.640   0.490  15.679 -0.0854 -0.2951  0.1315
15192W        W32716   2.207   7.851   2.788  0.1594  0.0531  0.1143
15193W        W32717   2.919   6.360  14.235 -0.0716  0.0313  0.1081
15194W        W32718   5.021  14.331   2.252  0.2805  0.0974 -0.0646
15195W        W32719   5.317   6.454  15.615  0.0850  0.0694  0.0448
15196W        W32720   4.640  12.056   2.763 -0.0311 -0.2051 -0.3016
15197W        W32721  10.500   6.429   0.020 -0.1957 -0.0396  0.3604
15198W        W32722   9.770  12.153  12.882 -0.4758 -0.2434 -0.0106
15199W        W32723  11.565   6.882   1.010  0.0147 -0.0440  0.2204
15200W        W32724   5.220  18.188   2.114  0.1633 -0.0274 -0.1986
15201W        W32725  11.858  14.858  12.866 -0.1049 -0.1189 -0.0325
15202W        W32726  16.959  16.924  15.080 -0.2287  0.2606  0.0037
15203W        W32727  10.997  16.298   4.284  0.0584  0.1525  0.4025
15204W        W32728  10.743   5.137  11.040 -0.0392 -0.1048 -0.2111
15205W        W32729  12.850   4.799  12.039 -0.2186  0.1918 -0.2022
15206W        W32730  13.642   1.466   3.196  0.2978 -0.2380  0.2102
15207W        W32731  14.645  10.817   3.533  0.2110 -0.0885  0.3145
15208W        W32732  11.840  15.672  11.054 -0.3249  0.0239 -0.1269
15209W        W32733  12.516  15.138  14.611  0.0963  0.1424  0.1256
15210W        W32734   4.969  17.829   3.074  0.2335 -0.0288  0.2055
15211W        W32735  10.170   3.273   3.342  0.1115 -0.0725  0.0289
15212W        W32736  16.972   6.396  15.955 -0.1114  0.0172  0.0472
15213W        W32737  12.206   6.801  13.644  0.0661 -0.1400 -0.0005
15214W        W32738  14.904  17.259  12.287 -0.1314 -0.1222 -0.2542
15215W        W32739   0.942   3.538   5.528  0.3234  0.0298 -0.2340
15216W        W32740   0.759   9.872   3.089  0.4096 -0.0472  0.1366
15217W        W32741  16.059   3.769   1.939  0.0957  0.1420  0.0215
15218W        W32742   0.731  11.313   0.217 -0.2702 -0.3195 -0.2618
15219W        W32743   7.906   8.200   4.627 -0.1814  0.1179 -0.3334
15220W        W32744   1.644  15.726  14.702  0.2251 -0.1547  0.1566
15221W        W32745   2.358   8.793   4.521  0.3463 -0.0717 -0.0626
15222W        W32746  16.765  15.187   2.982  0.1060 -0.1606  0.1381
15223W        W32747   7.005   1.001   2.558  0.3051 -0.1408  0.1769
15224W        W32748   6.490  12.544  13.755 -0.1155 -0.0915  0.2207
15225W        W32749  12.579   7.397   2.452  0.1736 -0.1671 -0.0127
15226W        W32750  11.045   9.728  12.744  0.2518 -0.1192 -0.1469
15227W        W32751  11.363  14.038   2.050  0.1187 -0.0691  0.1970
15228W        W32752  14.081  11.064  12.098 -0.0132 -0.1506 -0.0675
15229W        W32753  14.613   3.909   2.213  0.0911 -0.1329  0.1870
15230W        W32754   3.994   5.704   3.503 -0.0172  0.2410  0.0761
15231W        W32755  18.156  15.400  15.759 -0.2139  0.2817  0.0891
15232W        W32756   8.100   1.747   1.979 -0.1342  0.2265 -0.1667
15233W        W32757  13.505   0.884   0.730  0.2689 -0.0133 -0.0660
15234W        W32758   6.103  11.461   0.738  0.1812 -0.2190 -0.1348
15235W        W32759   0.071   5.186   5.241 -0.1348  0.1796  0.4353
15236W        W32760   7.544   2.609  12.921 -0.0430  0.0479  0.0757
15237W        W32761   0.414   0.020   4.500  0.3062 -0.1714  0.0702
15238W        W32762   9.431  10.938  12.606  0.0967  0.2581 -0.1684
15239W        W32763  15.093  15.049  12.304  0.0409 -0.1402 -0.1041
15240W        W32764   5.556   9.309   2.103  0.0616 -0.2706 -0.3929
15241W        W32765   4.215   1.038  11.753  0.2036  0.2681 -0.1005
15242W        W32766  11.771  11.021   1.602 -0.1761  0.2306  0.3169
15243W        W32767  11.146   1.575  14.912 -0.3266 -0.2582 -0.1688
15244W        W32768   9.632   6.757  11.918  0.1517 -0.0114  0.1819
15245W        W32769   0.059   4.976  13.204  0.0551  0.2286 -0.1208
15246W        W32770   7.690  15.769   4.376  0.0502 -0.0959  0.0514
15247W        W32771   1.164  11.756  13.533 -0.3245  0.0568 -0.2215
15248W        W32772   0.732  11.487   2.404 -0.2379  0.1441  0.2642
15249W        W32773  15.887  11.160  15.533 -0.0429 -0.1315 -0.0319
15250W        W32774   7.523  16.087   3.541  0.0844  0.3015  0.0736
15251W        W32775  17.523  14.804   0.307  0.3378  0.0572  0.1408
15252W        W32776   5.021  13.949   3.020  0.3674 -0.0005 -0.0925
15253W        W32777  17.877   8.229  15.889 -0.2995  0.0816 -0.2843
15254W        W32778   4.470   8.077  15.587  0.2569 -0.0154  0.1106
15255W        W32779   2.840   1.503  13.536  0.0918  0.0143 -0.1974
15256W        W32780   2.699   4.798   0.550  0.1344  0.2647  0.1556
15257W        W32781   5.423   2.791  13.173  0.3840 -0.0822 -0.1515
15258W        W32782   7.273  12.216   4.079  0.3355  0.1784 -0.0270
15259W        W32783   8.687   9.315  13.930 -0.2118  0.1606  0.1798
15260W        W32784   7.147   1.916   1.744 -0.0342 -0.2390 -0.2883
15261W        W32785   4.129  10.527   2.031 -0.0871  0.1602 -0.1559
15262W        W32786  13.003  17.886   4.217 -0.1400 -0.3733 -0.0654
15263W        W32787   4.230   5.060  11.937 -0.1132  0.1696 -0.0634
15264W        W32788  10.248  17.383  10.173 -0.0779  0.1888 -0.1539
15265W        W32789  14.335  15.500  14.155 -0.2426 -0.0561  0.0710
15266W        W32790  18.028   0.978   0.578 -0.0982 -0.2117  0.1486
15267W        W32791   5.212  11.379   1.006  0.1834 -0.4945  0.2117
15268W        W32792  11.653   4.066   2.896 -0.2957  0.0798  0.0285
15269W        W32793   0.981  13.149  15.493 -0.0152  0.0634  0.0401
15270W        W32794  16.988   3.587   4.214 -0.0286 -0.1701  0.1294
15271W        W32795   7.161  15.013   3.084  0.0642 -0.2462 -0.0657
15272W        W32796   9.883   9.748  15.709 -0.1225  0.0300 -0.0905
15273W        W32797   3.098   7.533  14.699  0.0440 -0.1580  0.0489
15274W        W32798  14.516   5.878  13.535  0.0770 -0.0053  0.1001
15275W        W32799   0.266   8.235   5.104 -0.0085 -0.3373 -0.0946
15276W        W32800   1.260   0.875  15.689 -0.1955  0.4277 -0.4925
15277W        W32801  14.842  15.583   2.721 -0.2471  0.0190  0.1521
15278W        W32802  12.507   0.148  10.667  0.0445 -0.0811  0.2464
15279W        W32803   5.896   2.867  12.816 -0.0339 -0.1541 -0.1370
15280W        W32804  17.315   8.209  11.331  0.4820 -0.2310 -0.1070
15281W        W32805  12.651   5.029   0.202  0.1564  0.0807  0.0682
15282W        W32806   0.971   7.755   1.574 -0.2114  0.6342 -0.1080
15283W        W32807   4.626  14.151   2.755 -0.1665 -0.2016  0.1668
15284W        W32808  17.439  10.479   4.307  0.3869 -0.2371 -0.0927
15285W        W32809  16.804  10.197  13.778  0.0843 -0.0631 -0.1974
15286W        W32810  11.448   6.446  14.804  0.0219 -0.0141  0.0348
15287W        W32811   5.216  15.643   2.196 -0.1696 -0.0669  0.1034
15288W        W32812   4.334  15.834   2.692  0.0072 -0.1601  0.0685
15289W        W32813   3.337   7.949  11.423 -0.3186 -0.1383 -0.0601
15290W        W32814   1.825   9.963   3.695 -0.1370 -0.2665 -0.2763
15291W        W32815   2.431   0.339  14.655 -0.1892  0.0585  0.3376
15292W        W32816  15.917  16.168   2.335 -0.1242  0.1391  0.2201
15293W        W32817   4.183  14.348  15.672 -0.0641  0.4031 -0.1936
15294W        W32818   0.712   7.098   3.757 -0.1948  0.2675  0.3198
15295W        W32819   6.542   9.054   5.128  0.0114  0.3809  0.1688
15296W        W32820   6.540  16.474   9.841 -0.1208 -0.0244 -0.0231
15297W        W32821   4.876   1.069   3.434  0.0082  0.2423 -0.0255
15298W        W32822  16.260   0.901   5.796  0.1438  0.1931  0.2768
15299W        W32823  13.154   4.043  14.989 -0.1573  0.2169  0.0203
15300W        W32824  16.188  12.288   2.634  0.0817  0.1930 -0.3219
15301W        W32825  12.584   5.676   4.829  0.0461  0.3086 -0.1919
15302W        W32826   1.092  11.697   0.240 -0.1277 -0.1468 -0.0178
15303W        W32827  12.005   8.701  12.592 -0.0684 -0.1797 -0.3162
15304W        W32828  18.146   2.579  15.059  0.0194 -0.0591 -0.1238
15305W        W32829  15.900   6.509   0.188 -0.1863 -0.0260  0.0108
15306W        W32830  17.998  12.793  13.944  0.3468  0.0404  0.2616
15307W        W32831  14.655   2.178   2.208  0.2121 -0.1781  0.0578
15308W        W32832   3.406   7.011  13.152 -0.1446  0.1221  0.0424
15309W        W32833  16.539   3.972   3.725 -0.0877 -0.3318  0.0329
15310W        W32834  16.319   9.802  13.094  0.2134 -0.0727  0.0922
15311W        W32835   0.582  13.925  14.895 -0.1821 -0.1378 -0.3379
15312W        W32836   8.077  10.310   0.855 -0.2027  0.0882 -0.1209
15313W        W32837   2.933   4.140   2.379 -0.0819  0.1852  0.1966
15314W        W32838  12.509  17.963   1.715 -0.1419 -0.0807  0.2108
15315W        W32839  12.282  11.653   3.497  0.2931 -0.3276 -0.0833
15316W        W32840   4.521  16.372   3.844  0.1116 -0.0168 -0.3691
15317W        W32841  18.057  13.686   1.656 -0.0613 -0.0696 -0.4456
15318W        W32842  11.975   5.590  13.775 -0.0240  0.0478 -0.0278
15319W        W32843  13.546   3.163   3.370 -0.2426  0.1120  0.0206
15320W        W32844   6.037  17.014   4.722  0.3010  0.0233  0.0889
15321W        W32845  12.637  10.002  11.773 -0.0309 -0.0441  0.0643
15322W        W32846   6.255  17.979  13.354 -0.1538  0.1600  0.2004
15323W        W32847   6.627   9.558   2.085 -0.1736 -0.2569  0.1014
15324W        W32848   1.937   5.890  14.656 -0.0021 -0.1347  0.2234
15325W        W32849   5.116  12.475  12.426  0.0445  0.0223  0.2931
15326W        W32850   4.771  12.050   4.490  0.1412  0.1016  0.1108
15327W        W32851   4.037  15.276   1.845  0.1660 -0.0160 -0.0082
15328W        W32852  15.382   7.510   3.058  0.2221 -0.1593  0.0907
15329W        W32853  17.704   7.129   0.694 -0.0299 -0.0894  0.0219
15330W        W32854  10.559  16.270  11.846 -0.0738  0.0918 -0.1880
15331W        W32855  17.479  15.244  14.181 -0.0564 -0.0407 -0.1935
15332W        W32856  13.001   6.465   2.031  0.3527  0.0915 -0.0048
15333W        W32857  14.266  13.043   5.065 -0.0421  0.0115  0.3309
15334W        W32858  14.124   7.818  11.567  0.0467  0.3703 -0.2638
15335W        W32859   9.208   8.691   1.269 -0.0010 -0.1928 -0.1318
15336W        W32860   0.778   3.875  11.670  0.1753  0.2773  0.2136
15337W        W32861   5.440   9.047   0.548  0.0078 -0.0654 -0.1834
15338W        W32862  14.819   2.295   4.702 -0.0278  0.2674 -0.4024
15339W        W32863   0.432  11.459  14.222 -0.2656 -0.1471  0.0124
15340W        W32864  11.411   6.427  12.978 -0.3897 -0.1490 -0.1479
15341W        W32865  15.986   7.476   3.969  0.2252 -0.0154 -0.1940
15342W        W32866  12.042   8.600  14.570  0.0725  0.2118 -0.3256
15343W        W32867   8.647  16.138  14.939  0.1832 -0.2778 -0.0743
15344W        W32868   9.040  16.237  15.209 -0.2667  0.0926 -0.0602
15345W        W32869   5.953  12.827  15.834  0.2845  0.0133  0.1293
15346W        W32870   1.235  16.562  12.447 -0.0069  0.0146  0.0846
15347W        W32871   1.049  11.985   4.732 -0.3226 -0.1347 -0.0167
15348W        W32872   8.011   8.268  11.610  0.1526 -0.3213  0.1873
15349W        W32873  16.302  15.175  14.729 -0.1246 -0.1068  0.0794
15350W        W32874  17.223  10.054   2.441 -0.1175 -0.1809  0.0010
15351W        W32875  10.664   8.324   4.562 -0.0646 -0.2462  0.1748
15352W        W32876  15.414   2.120  11.533 -0.1012  0.0128  0.1730
15353W        W32877   4.700   0.649   1.974  0.0767 -0.1508 -0.1972
15354W        W32878  13.102  16.442   1.211 -0.0222  0.0052  0.1673
15355W        W32879  18.067  17.865   1.865 -0.1055  0.1156  0.2705
15356W        W32880   0.636   3.757  14.485 -0.1477 -0.0361  0.0830
15357W        W32881  16.428  12.121  11.966 -0.1714 -0.0781  0.2360
15358W        W32882   8.264  15.637  11.537 -0.2414 -0.1500 -0.2918
15359W        W32883   4.857  10.842   2.348 -0.2716  0.3181  0.3573
15360W        W32884  10.067  10.486   1.436 -0.1078 -0.2258  0.1534
15361W        W32885  12.198  13.838   1.738  0.1670 -0.0700  0.0262
15362W        W32886   9.892   4.345  11.706 -0.0700 -0.2164 -0.0320
15363W        W32887  11.729   0.510  10.828 -0.1035  0.0527 -0.2402
15364W        W32888   0.564   8.870   0.682 -0.1159 -0.1494  0.0692
15365W        W32889   8.531   2.865  11.373 -0.0670  0.3040  0.1565
15366W        W32890   7.848  16.650  15.262 -0.0423 -0.0117  0.1515
15367W        W32891   8.058   6.149   9.789 -0.1971 -0.1695  0.1729
15368W        W32892  16.014  13.639   2.938  0.2074 -0.1401 -0.0353
15369W        W32893   3.864  14.855   1.131 -0.0329  0.4063  0.1572
15370W        W32894  13.299   1.277   4.559 -0.3354  0.2016 -0.1183
15371W        W32895   8.635   7.117  14.924  0.2148  0.0228 -0.2112
15372W        W32896  17.970   9.173   1.436  0.0465  0.2171  0.2177
15373W        W32897  17.475   4.974  12.129  0.3214  0.1107 -0.0547
15374W        W32898  13.834   6.465  14.666 -0.1886 -0.1010  0.1612
15375W        W32899  14.776   5.604   4.109 -0.2146  0.0098  0.2507
15376W        W32900   9.064  11.342   0.347  0.2970  0.1480 -0.2782
15377W        W32901   7.773   1.669  15.334  0.1113  0.0787 -0.2204
15378W        W32902   1.183   3.485   5.947 -0.3163 -0.0802  0.0136
15379W        W32903   5.082  10.042   1.434  0.1349  0.0948  0.3160
15380W        W32904   4.458  17.855   3.895 -0.2479  0.1676  0.2681
15381W        W32905  16.995  12.108   3.155  0.0961  0.1335  0.0180
15382W        W32906   7.520   2.140  15.360 -0.1933 -0.4010  0.4506
15383W        W32907   1.572  11.095   2.782  0.1151 -0.1284 -0.0076
15384W        W32908   9.124  11.239   2.909 -0.1273  0.0780  0.1433
15385W        W32909   6.087   6.276   4.021 -0.0674  0.2408 -0.0464
15386W        W32910   6.628   5.981   3.372  0.0011  0.2785  0.1354
15387W        W32911  13.778  16.514  15.006 -0.0191 -0.3362  0.1995
15388W        W32912  10.079  13.211   3.667  0.2157 -0.1858 -0.0937
15389W        W32913   0.285  15.955  13.583 -0.1784  0.0439  0.1613
15390W        W32914   1.506  14.419   2.478  0.1265  0.1720 -0.0498
15391W        W32915  12.664  11.509   1.642  0.2992  0.0110  0.3273
15392W        W32916   0.369   8.202  13.798 -0.1375 -0.1854  0.0895
15393W        W32917   9.740   9.332  13.506  0.1636 -0.1532  0.2957
15394W        W32918   8.315   7.825  11.800 -0.1310  0.1562 -0.1684
15395W        W32919   1.622  15.253   2.275  0.0846  0.1943 -0.1470
15396W        W32920   3.567   0.856  15.775 -0.0872 -0.2265  0.2229
15397W        W32921  16.665   5.496   1.104  0.1021 -0.0817 -0.2489
15398W        W32922  13.640  13.437  12.026 -0.1023  0.0664  0.0632
15399W        W32923   9.274   6.386  15.404  0.4501  0.0968 -0.3418
15400W        W32924  14.137   2.750   3.115  0.2743  0.0903  0.3242
15401W        W32925  14.548   9.806  13.589 -0.2041  0.0215 -0.0195
15402W        W32926  14.411   8.160   0.881 -0.2391 -0.0896 -0.2720
15403W        W32927   3.311   4.512   4.768  0.0262  0.0261  0.2704
15404W        W32928  12.737  17.025  13.992 -0.0179  0.1055 -0.1100
15405W        W32929  12.441   9.151  13.643 -0.3277  0.0746  0.1380
15406W        W32930   4.445  10.829  14.902 -0.1265  0.0245  0.1510
15407W        W32931   4.801   6.612   1.452 -0.2249 -0.0892  0.0556
15408W        W32932   1.051   8.057   2.076  0.0629  0.1662 -0.1632
15409W        W32933  16.476   8.581  11.649  0.3597  0.0335 -0.0286
15410W        W32934   8.837   7.180  12.346  0.0376  0.3929 -0.0440
15411W        W32935  12.063  16.498  13.988  0.3072  0.4133 -0.0253
15412W        W32936  11.659   7.084   1.461  0.3546  0.1045  0.2133
15413W        W32937   7.403   5.076   4.140 -0.0841  0.2921 -0.0148
15414W        W32938  15.665  13.947   2.166 -0.1821 -0.0623  0.1919
15415W        W32939   7.701  13.894   4.862 -0.0764  0.1610 -0.0552
15416W        W32940  13.996   7.569  12.591  0.2529  0.3449  0.3924
15417W        W32941   7.934  14.979  11.116  0.2025 -0.0769  0.0719
15418W        W32942   7.280   4.705  15.707  0.2496 -0.2143 -0.0484
15419W        W32943  11.255  14.380   4.276 -0.1835  0.1843  0.0639
15420W        W32944  10.467   1.142   2.465 -0.0171  0.1002 -0.0913
15421W        W32945  12.015  15.699  13.212  0.1118  0.1194 -0.0081
15422W        W32946  16.854  17.605   2.446  0.0342  0.0137  0.1179
15423W        W32947   2.529  13.371   3.113  0.2015 -0.2684  0.3281
15424W        W32948   6.722   9.375   0.646  0.0356 -0.0663 -0.0693
15425W        W32949  11.606  12.061   5.080  0.0935 -0.1267  0.0626
15426W        W32950  12.547   2.754   0.594  0.0120 -0.0380 -0.1017
15427W        W32951   6.019  14.418   3.035  0.2008 -0.1747 -0.1101
15428W        W32952  13.742   3.822   4.587  0.1049  0.1135 -0.0232
15429W        W32953   2.581   6.184  11.036  0.1667 -0.1998 -0.0841
15430W        W32954   1.794   7.939  11.684  0.1517  0.0327 -0.1372
15431W        W32955  13.466  11.385  10.308  0.3860 -0.3198 -0.0070
15432W        W32956  12.968   6.107   1.085  0.0270  0.2539  0.1303
15433W        W32957  11.085  12.587   2.589 -0.2652 -0.1489  0.0872
15434W        W32958   1.921  16.730  15.357 -0.0379 -0.2096  0.1111
15435W        W32959   5.790   1.092  13.689 -0.1834  0.3008  0.4092
15436W        W32960   6.733   8.271  13.370 -0.0749  0.0894  0.2439
15437W        W32961  18.083   6.776  13.651 -0.1093 -0.1216 -0.0414
15438W        W32962   2.920  10.858  15.157  0.0557  0.2580 -0.0248
15439W        W32963   6.615  12.233   3.923  0.1262 -0.1497  0.0011
15440W        W32964  16.160  17.603   1.939  0.1253  0.2665 -0.2423
15441W        W32965  13.090   8.279   4.708 -0.4552  0.0924 -0.5813
15442W        W32966   0.068  11.379  12.189 -0.5288 -0.1289 -0.0449
15443W        W32967   3.404  16.742  13.667 -0.0083  0.1264  0.0068
15444W        W32968  16.623   0.472  15.708 -0.1202 -0.3457 -0.5425
15445W        W32969   7.611   8.029   0.705 -0.1524 -0.4048 -0.1557
15446W        W32970   0.403  17.246  15.434  0.1739  0.0407  0.0237
15447W        W32971  16.145  18.104   2.226 -0.0963 -0.1315 -0.0483
15448W        W32972  15.577   9.867   3.307  0.1647  0.1854 -0.3082
15449W        W32973  11.865  11.492   2.720  0.0635  0.0981  0.1296
15450W        W32974  15.578  10.437   1.947 -0.5456 -0.1964  0.0016
15451W        W32975   5.880  13.764  14.979  0.1101  0.1382  0.2738
15452W        W32976  16.655  14.693  11.582  0.2277  0.3195 -0.1168
15453W        W32977   7.818   2.353  11.681  0.2784  0.2222 -0.2435
15454W        W32978   0.836  12.552   0.176 -0.1228  0.0154 -0.0945
15455W        W32979   9.284   1.016   0.243 -0.0726  0.1636 -0.1217
15456W        W32980  13.732  15.589  11.928 -0.0088  0.1363  0.0211
15457W        W32981   1.149  16.035  15.251  0.3590  0.0218 -0.0684
15458W        W32982   2.708   3.664   4.584  0.1740 -0.3163 -0.0520
15459W        W32983  14.863  13.187   5.736 -0.2376  0.0225 -0.1757
15460W        W32984   9.415  13.066  10.476 -0.1388 -0.0878 -0.0768
15461W        W32985   2.895   3.266   3.248 -0.2375  0.0150  0.3224
15462W        W32986  15.281   6.655  15.726 -0.0985  0.3428 -0.2376
15463W        W32987  15.997  15.834   3.150  0.1078  0.0931 -0.0184
15464W        W32988   2.731  11.762  11.215 -0.0486 -0.0147 -0.0759
15465W        W32989  12.290   2.946   2.763  0.3291 -0.0223  0.1577
15466W        W32990   5.674  13.915  14.074  0.1751 -0.0315 -0.1243
15467W        W32991  12.956   1.518  14.464  0.1493 -0.0057  0.0499
15468W        W32992  15.654  15.668  13.000  0.0867 -0.0654 -0.0801
15469W        W32993  14.507  16.080  15.258  0.2404  0.0732 -0.0778
15470W        W32994  13.449   5.241  12.755 -0.1708  0.0098  0.1628
15471W        W32995  10.562   4.968  13.778  0.5017 -0.3452  0.0427
15472W        W32996   3.397   3.423  14.018  0.0647 -0.3560  0.4182
15473W        W32997  10.963  13.083   5.817  0.0435  0.1828  0.2320
15474W        W32998  13.488  15.387   2.356 -0.0987  0.2191 -0.1668
15475W        W32999  14.142  14.026  13.917 -0.0264  0.0054 -0.3578
15476W        W33000   7.221  18.119   4.315  0.2628  0.0082  0.0555
15477W        W33001   1.775  13.751  13.781  0.0783 -0.0179  0.0872
15478W        W33002   9.990   2.016  13.331  0.0972  0.2021  0.2017
15479W        W33003  11.498  15.885  12.022 -0.0630  0.0938  0.2576
15480W        W33004   0.559   6.119  15.567 -0.1892  0.0531  0.0420
15481W        W33005   1.904  16.065  13.822 -0.1150 -0.1082  0.4552
15482W        W33006   9.481  11.214   4.489 -0.0496 -0.0826  0.0570
15483W        W33007   1.548   5.995  12.935 -0.0102  0.1736  0.2449
15484W        W33008  16.656  12.948  14.847 -0.1275 -0.1243 -0.0569
15485W        W33009   4.318   7.227  13.569  0.0765 -0.0427  0.0099
15486W        W33010  16.812   7.129   3.127 -0.2073 -0.1524  0.2526
15487W        W33011   7.442   8.006   0.235 -0.0926  0.1184 -0.0155
15488W        W33012   6.792   4.665  12.779 -0.2655 -0.0545  0.1400
15489W        W33013  17.907   6.752  12.478  0.3491  0.0394  0.1025
15490W        W33014   0.853  15.686  15.542 -0.0294  0.0209 -0.0687
15491W        W33015   5.528  16.464   2.714 -0.0202 -0.1246 -0.0568
15492W        W33016  14.051  17.911  11.620  0.3119  0.2520  0.1263
15493W        W33017   8.640   2.663   4.365 -0.0403  0.0190 -0.3619
15494W        W33018  13.502   9.491   2.835 -0.1872 -0.2650  0.1124
15495W        W33019  11.992   7.598   5.940 -0.1814 -0.0727 -0.0008
15496W        W33020   1.182   5.361   0.717 -0.0860  0.1010 -0.0739
15497W        W33021  15.314  15.479  11.114  0.0306  0.2700  0.0255
15498W        W33022   2.414   5.998   1.227 -0.3507  0.0707  0.0769
15499W        W33023  15.019   9.371   1.156 -0.2105 -0.0908  0.1239
15500W        W33024  14.868  17.290   3.049  0.0287 -0.2252 -0.0490
15501W        W33025  14.211  15.267   3.915 -0.0844 -0.1171  0.0254
15502W        W33026   3.997   9.519  15.106 -0.0456 -0.2985  0.1194
15503W        W33027   8.235  12.133  13.603  0.0965 -0.1186  0.4992
15504W        W33028   3.866  12.889   0.169  0.1382 -0.2345  0.3668
15505W        W33029   2.948  11.501   2.241  0.0297  0.0837  0.1000
15506W        W33030  11.204  17.658   2.005  0.3182 -0.1713 -0.0365
15507W        W33031   9.082   5.769   3.210  0.5906 -0.1526 -0.0814
15508W        W33032  13.136   7.624  15.793  0.0391  0.4022  0.1661
15509W        W33033   6.048  13.843   4.485  0.0696  0.0642 -0.1326
15510W        W33034   7.385  11.873  14.182  0.1040 -0.0188  0.0648
15511W        W33035   1.194  16.346   1.274  0.1628 -0.1108  0.1379
15512W        W33036   5.383   9.076  12.055  0.0365  0.2175  0.0393
15513W        W33037  17.293  17.599  11.553  0.4244  0.0912 -0.4048
15514W        W33038  11.097  14.619  13.025  0.0583  0.2521 -0.3480
15515W        W33039   7.222   0.180  11.662 -0.2020 -0.2453  0.0408
15516W        W33040   6.219   8.645  12.873 -0.2502  0.0182 -0.1679
15517W        W33041  11.674   2.100  12.464  0.0222  0.1338 -0.0575
15518W        W33042  13.142  14.382  14.279 -0.1304 -0.0163 -0.1073
15519W        W33043  13.390   8.453  12.094 -0.0865  0.2360  0.1786
15520W        W33044   9.802   5.347  14.220  0.0922  0.1218 -0.2071
15521W        W33045   2.411   7.120  11.783  0.3386  0.0220  0.2033
15522W        W33046  16.660   8.316   2.284 -0.1561 -0.3500 -0.0458
15523W        W33047  16.932  15.038  14.757 -0.3747 -0.2469  0.0683
15524W        W33048   2.041   8.782   0.575  0.2198  0.0991 -0.2631
15525W        W33049   7.032  15.780   3.474 -0.1328  0.0311 -0.3435
15526W        W33050   7.862  13.184  12.396  0.2926 -0.0677  0.1698
15527W        W33051  10.628  14.626   1.805  0.0196 -0.0283 -0.2426
15528W        W33052   6.974   1.915  11.706  0.0835  0.1935 -0.0444
15529W        W33053   4.587   7.903   3.044 -0.3591  0.2298 -0.1902
15530W        W33054   3.413   8.020  13.116 -0.2352  0.0288 -0.0631
15531W        W33055   6.032   6.378   2.165 -0.0418  0.1713 -0.1455
15532W        W33056  14.752   0.396   2.514  0.3280  0.2282  0.2662
15533W        W33057   1.839   5.254   4.914 -0.0589  0.5141 -0.1425
15534W        W33058  10.148  12.671  11.682  0.2931  0.0733 -0.1882
15535W        W33059   1.837   3.256   4.427 -0.1818  0.0623  0.1238
15536W        W33060   3.044  16.010   1.395 -0.3302 -0.0632 -0.0760
15537W        W33061   8.775   0.658  15.105  0.2120  0.0345  0.4766
15538W        W33062   5.247  14.327  13.112 -0.0844 -0.0166 -0.2541
15539W        W33063  11.539   8.251   2.351  0.1939  0.2213 -0.0337
15540W        W33064  17.876   1.841   0.282  0.0680  0.1953  0.0749
15541W        W33065   0.730  16.153  15.477  0.1703 -0.0434 -0.0881
15542W        W33066  11.519   7.967   1.053 -0.0804  0.2382  0.1675
15543W        W33067  17.744  12.268   1.358  0.0318 -0.0234  0.1053
15544W        W33068   0.431   6.963  12.471 -0.4746 -0.1191  0.1283
15545W        W33069  13.059   1.145  12.029 -0.0911  0.1617 -0.2337
15546W        W33070  11.174  10.184   1.828  0.0024 -0.0086  0.0926
15547W        W33071   8.335  12.138   4.816  0.1079  0.0382  0.1523
15548W        W33072  12.772  10.427  12.081  0.5202  0.3002 -0.2522
15549W        W33073  16.176   5.430   3.461 -0.0312  0.0914 -0.1097
15550W        W33074  10.519   9.294  14.021  0.1564  0.0999 -0.1781
15551W        W33075  15.772   4.473  12.494  0.1487 -0.0017  0.0636
15552W        W33076  10.301   3.534   1.807 -0.0568 -0.0963  0.1532
15553W        W33077   0.124   1.972   0.514  0.1217  0.0577  0.0541
15554W        W33078  15.267   2.949   4.674  0.0942  0.2853 -0.2226
15555W        W33079   3.680  14.228  15.513  0.0194 -0.1957  0.0859
15556W        W33080  12.429  14.704  12.045  0.2950  0.0447  0.2082
15557W        W33081   7.040  15.215   0.585  0.2290 -0.1414  0.2466
15558W        W33082  14.711   3.497   0.617  0.0513  0.3282 -0.0749
15559W        W33083  17.394   3.232   4.954  0.2269  0.2962 -0.3661
15560W        W33084  13.284   5.603  13.062 -0.0760 -0.3023  0.3222
15561W        W33085   4.493   4.745   4.275  0.0963  0.1420 -0.3049
15562W        W33086   7.933   1.765   3.444  0.0270 -0.1848 -0.1074
15563W        W33087   7.281   8.297  13.707  0.0683 -0.2165 -0.3751
15564W        W33088  12.544   3.857  11.169 -0.1364 -0.0014 -0.1285
15565W        W33089  15.129  12.109  15.989  0.2242  0.1417 -0.0030
15566W        W33090   2.267   8.248   2.467 -0.1097  0.1398  0.0875
15567W        W33091  12.598   0.651   0.099 -0.0625 -0.0906  0.1596
15568W        W33092   1.504  18.062   4.583 -0.3604 -0.0345 -0.2582
15569W        W33093   5.374  16.973  11.881  0.2110 -0.2894  0.1546
15570W        W33094  17.248   6.596  14.284  0.0859 -0.0597 -0.1952
15571W        W33095   5.206   0.571  12.884 -0.2247 -0.1036 -0.4644
15572W        W33096  11.601   7.870  12.415 -0.0723  0.0440  0.3317
15573W        W33097  17.471   7.927  12.320 -0.0833 -0.1747 -0.0984
15574W        W33098   0.008   2.160  13.203 -0.1672 -0.0347  0.0585
15575W        W33099   9.590   9.296  15.512  0.1389 -0.2252  0.0053
15576W        W33100   3.638  11.517  12.624  0.3154 -0.0392  0.1388
15577W        W33101   6.772   5.964   2.333 -0.0531 -0.2406 -0.0863
15578W        W33102   1.229   5.023   0.386  0.0923  0.3289 -0.3691
15579W        W33103  18.000   2.271   3.539 -0.0461  0.1482  0.0287
15580W        W33104  13.225   8.159  12.534 -0.0307 -0.1191  0.1542
15581W        W33105  13.748  13.204  15.996 -0.1072  0.1207 -0.1299
15582W        W33106  14.288   6.157   4.649 -0.3959  0.2712  0.2258
15583W        W33107   2.244   7.208   3.644  0.4469  0.0531 -0.0929
15584W        W33108  14.336   7.725   1.192  0.2190  0.2588 -0.1774
15585W        W33109  16.771   4.015  13.919  0.1924  0.0766  0.2037
15586W        W33110  10.394  13.101  12.631  0.3777  0.0350 -0.0925
15587W        W33111  17.734  14.016   0.722 -0.2728 -0.0337 -0.2211
15588W        W33112   2.023   1.643   3.554  0.2007  0.2599 -0.0738
15589W        W33113  16.433  16.174  12.447 -0.2695  0.1940 -0.2996
15590W        W33114   8.448  16.634  12.611 -0.3027 -0.2598  0.0139
15591W        W33115   8.713  15.214  14.268 -0.0361 -0.2913  0.0104
15592W        W33116   3.546  15.060   1.944  0.1821 -0.2082  0.0063
15593W        W33117   8.727   5.649  12.224 -0.1878 -0.0618  0.1055
15594W        W33118  13.168   0.757  12.340 -0.0120 -0.1466 -0.2348
15595W        W33119  13.645  18.129  14.317  0.0113 -0.0911  0.2280
15596W        W33120   8.763  11.186   4.002 -0.0175  0.1738  0.0046
15597W        W33121  17.108  16.921  12.171  0.2120 -0.0961 -0.1694
15598W        W33122   6.575  11.801  11.373 -0.0110 -0.1500  0.0060
15599W        W33123   7.973  10.333  12.115  0.1858  0.1087  0.1292
15600W        W33124  10.446   0.185   2.566  0.2484  0.0551 -0.1305
15601W        W33125  10.037  17.957  13.187  0.1231 -0.2248  0.1539
15602W        W33126   1.151   2.470   2.858  0.0438  0.2252 -0.2982
15603W        W33127  16.533  14.238  11.673  0.0167 -0.0039 -0.0768
15604W        W33128  10.954  14.717   3.578  0.0731  0.1721 -0.2870
15605W        W33129   5.492   8.573   2.416  0.0369 -0.0258 -0.0616
15606W        W33130  15.341  12.977  11.722 -0.1485  0.0981 -0.1029
15607W        W33131   8.345  15.130  11.466  0.0836 -0.3326 -0.4806
15608W        W33132  15.506  14.244  12.243  0.0527 -0.0422 -0.1763
15609W        W33133  17.194   2.735   2.507 -0.1307  0.1345  0.2143
15610W        W33134  15.705   7.327   2.666  0.0154  0.0695  0.0527
15611W        W33135   6.748  15.881   5.508 -0.0039  0.3667 -0.1073
15612W        W33136  17.275  13.992  11.038  0.0147 -0.0036  0.1451
15613W        W33137   4.283  16.661  13.347  0.0809 -0.1647  0.1017
15614W        W33138   9.608   4.142  10.510  0.2602 -0.2371  0.1455
15615W        W33139  17.540   5.329   2.740  0.1328 -0.1770 -0.4223
15616W        W33140   7.234  11.510   1.998 -0.0157  0.2558 -0.0305
15617W        W33141   8.196   9.575  15.740  0.2603 -0.1667 -0.1423
15618W        W33142  17.492  12.314   4.146 -0.2608  0.2141 -0.2841
15619W        W33143   1.855   8.358  13.660  0.3440 -0.2659 -0.0514
15620W        W33144   8.978   3.245  14.336 -0.1710 -0.0758  0.1425
15621W        W33145   4.909  10.962  14.124 -0.1334  0.0141  0.2300
15622W        W33146  16.588  14.289  15.189  0.1374  0.0735 -0.2098
15623W        W33147   3.701   9.053   1.628  0.4572 -0.0009 -0.1405
15624W        W33148   4.862  16.017  12.106  0.0287  0.0272 -0.0708
15625W        W33149  14.565   0.213  14.099 -0.1414 -0.1733  0.0867
15626W        W33150   0.980  17.278   1.423  0.0656  0.2640  0.2686
15627W        W33151   6.525   6.459  16.084 -0.0040 -0.5257  0.2134
15628W        W33152   7.907   2.292  15.645 -0.0333  0.3681 -0.1926
15629W        W33153  15.389   8.681  12.709 -0.2247  0.2483 -0.2422
15630W        W33154  14.919  13.304  12.574 -0.0846 -0.1040 -0.1187
15631W        W33155   2.932   1.046  11.270  0.1597 -0.1127  0.1049
15632W        W33156   9.340   7.678  13.188 -0.1738 -0.4672  0.2574
15633W        W33157  17.202  11.981   5.437  0.2836 -0.1656 -0.0098
15634W        W33158  16.454  17.690  13.751  0.0888 -0.0564  0.2628
15635W        W33159  15.978  14.856   2.542  0.1592 -0.2005  0.0868
15636W        W33160   7.419  12.120  15.111  0.2089 -0.0796  0.2200
15637W        W33161  13.701   8.446  15.678 -0.0338 -0.0733  0.2328
15638W        W33162   6.185   6.605  13.473 -0.1169  0.3852 -0.0281
15639W        W33163   4.938  18.126   2.620 -0.0235  0.1542  0.0261
15640W        W33164  10.815   9.212   1.806  0.2958 -0.1503 -0.1056
15641W        W33165   1.682   3.589  12.189  0.0285 -0.1695  0.1196
15642W        W33166  16.279   5.332   0.680 -0.0261 -0.1980  0.3153
15643W        W33167  14.368   3.193   0.231 -0.0320  0.1410 -0.3914
15644W        W33168   8.627  17.823  15.979 -0.3374 -0.0436 -0.0188
15645W        W33169   2.501   4.541   0.109 -0.1358  0.2106 -0.1222
15646W        W33170   1.352  10.140   5.109  0.3259 -0.0647 -0.3095
15647W        W33171   0.194   9.214  13.239  0.3293 -0.0178  0.0516
15648W        W33172   4.842   8.251   1.570  0.1084 -0.1590 -0.0551
15649W        W33173  16.633   2.022  12.977 -0.4321 -0.2859  0.0670
15650W        W33174  11.277  15.116  12.266  0.0670  0.1730  0.2274
15651W        W33175   9.398  15.004  15.063  0.2474  0.2066 -0.2951
15652W        W33176   6.056  13.129  12.924  0.1306 -0.4198  0.0634
15653W        W33177   4.757  12.397   1.534 -0.1275  0.3901 -0.2747
15654W        W33178  15.622   6.079  13.880 -0.0925 -0.0963  0.0136
15655W        W33179   4.655  15.189   3.938  0.0046 -0.2933 -0.0188
15656W        W33180   3.939  13.155   0.918 -0.0028 -0.0574 -0.0634
15657W        W33181   1.208  13.237   2.799  0.2405 -0.0991 -0.1604
15658W        W33182  17.467  14.334  15.740 -0.0371 -0.2768 -0.2264
15659W        W33183   4.312   7.500   0.851  0.0508  0.0998 -0.0277
15660W        W33184   9.399  11.719   2.344  0.0233  0.1954 -0.2275
15661W        W33185  16.031  10.965   0.976  0.0965 -0.0155  0.0810
15662W        W33186   1.834   7.524   2.711  0.2736  0.2132  0.0093
15663W        W33187   4.397  11.006  13.115 -0.0295 -0.1550  0.1804
15664W        W33188  13.085   2.224   3.568 -0.0250 -0.0382 -0.2075
15665W        W33189   6.143  16.235   1.036  0.0066  0.3009 -0.0424
15666W        W33190   5.507   5.457  14.432  0.1881 -0.3305  0.1184
15667W        W33191  12.672   3.433  15.371  0.0918 -0.1366  0.0702
15668W        W33192   1.889  10.317   1.122 -0.3314  0.0259  0.3478
15669W        W33193  16.075  14.656  14.948  0.1345 -0.0181 -0.0888
15670W        W33194  11.225  11.665  16.088  0.0325  0.0826  0.1409
15671W        W33195  15.991  13.081   0.252  0.1448  0.0044  0.0357
15672W        W33196  13.533  11.640   3.140  0.2189  0.0103  0.0841
15673W        W33197   9.706   7.876   2.598  0.0235  0.0583  0.1305
15674W        W33198   0.645  11.948  11.677  0.4539 -0.1518 -0.1167
15675W        W33199   9.582  16.849   4.197 -0.1862  0.0663 -0.1513
15676W        W33200   6.004  10.389  12.280  0.2863 -0.1663 -0.0818
15677W        W33201   7.047   9.155  13.086  0.0546  0.3558 -0.0392
15678W        W33202   9.857  11.730   3.225  0.1242  0.4017 -0.1508
15679W        W33203   5.173   2.504  15.973 -0.1204 -0.1471  0.3278
15680W        W33204   7.221   6.878  11.189 -0.0577 -0.0680  0.0021
15681W        W33205   6.675  13.114   4.156  0.1712  0.3304  0.1193
15682W        W33206   7.667   6.252   0.240 -0.2345  0.0460  0.0988
15683W        W33207   3.365   5.697  11.224 -0.2093 -0.0759  0.0419
15684W        W33208   7.469  15.690  13.823 -0.0478 -0.2478 -0.0879
15685W        W33209   4.783   3.463   4.207 -0.0691 -0.0369  0.2407
15686W        W33210  10.333   8.602   3.763  0.1909 -0.1338 -0.0245
15687W        W33211   9.640   2.993   0.229  0.4018 -0.0212  0.1079
15688W        W33212   8.506   2.845   2.727  0.3416  0.2755 -0.0166
15689W        W33213  17.784  13.081  11.721  0.0068 -0.1973 -0.1116
15690W        W33214   8.422  15.896   0.577  0.2398  0.1684 -0.1349
15691W        W33215  13.717  18.040   2.590 -0.1459 -0.4175  0.5073
15692W        W33216   5.575   5.447  10.035 -0.1056  0.0974 -0.1640
15693W        W33217   2.880   6.144   1.523 -0.0644 -0.4775  0.3451
15694W        W33218  11.689  15.185  14.604  0.0412 -0.1632 -0.3951
15695W        W33219  15.345   0.953  13.808  0.0534  0.1214  0.0262
15696W        W33220  18.130  12.598   3.674  0.2395  0.1837 -0.0005
15697W        W33221   3.555   7.427  14.563 -0.1924  0.0806 -0.2294
15698W        W33222  12.157  11.522   4.438  0.1552  0.3318  0.2275
15699W        W33223  11.343   1.473  11.919  0.0150 -0.2162  0.2386
15700W        W33224   0.605   3.018   3.057 -0.1735 -0.1794  0.1056
15701W        W33225   3.335   1.449   1.505  0.1333 -0.1914  0.1421
15702W        W33226  16.156   1.424  11.592  0.1612  0.3697 -0.2595
15703W        W33227  17.070   8.094  14.172 -0.0084  0.0133 -0.0389
15704W        W33228   7.336  14.207   3.388  0.1494  0.0022 -0.0422
15705W        W33229  10.555  15.363  11.878 -0.0167 -0.0796  0.0284
15706W        W33230   9.420   3.518  14.307  0.2470  0.0607 -0.4407
15707W        W33231  17.000   4.633  15.281 -0.1649 -0.1785 -0.4870
15708W        W33232   4.565   7.300  10.764 -0.2802 -0.2231 -0.1314
15709W        W33233   1.683   9.342  15.314  0.0926 -0.1318 -0.2295
15710W        W33234   4.565   3.291  12.939 -0.0679 -0.0647  0.1378
15711W        W33235   6.711   4.880  13.646 -0.2663 -0.1615  0.0820
15712W        W33236   4.439   6.470  11.220 -0.4962 -0.0761 -0.2936
15713W        W33237  17.606   8.567   1.921  0.3035 -0.3038  0.1793
15714W        W33238  10.555  17.864   3.304  0.0504  0.1410 -0.1775
15715W        W33239   5.143  16.943  14.395 -0.0052  0.2019  0.2530
15716W        W33240  16.275  15.378  12.570 -0.1397  0.2490 -0.2205
15717W        W33241   4.724  17.828  12.344  0.1008  0.0037 -0.2092
15718W        W33242   4.291  15.271  16.046 -0.1692 -0.1007 -0.2687
15719W        W33243  18.144   2.663   4.123 -0.0623  0.0458  0.4001
15720W        W33244   1.071  15.860   2.075 -0.0890  0.1070  0.0763
15721W        W33245   5.535  16.811  15.928 -0.0138  0.0317  0.4681
15722W        W33246   9.272   3.535   1.096 -0.0094 -0.0451  0.4285
15723W        W33247  12.990   3.889   0.149  0.0061 -0.0068  0.1619
15724W        W33248  16.525  10.821   0.987  0.1411  0.0459  0.2614
15725W        W33249  13.674   1.904  12.052  0.1565  0.0455  0.0860
15726W        W33250   8.872  13.690  16.047 -0.2427 -0.4404  0.1075
15727W        W33251  16.728   3.116   4.849  0.0498  0.3311  0.0160
15728W        W33252  15.743   5.719  11.981  0.2828 -0.1240  0.0992
15729W        W33253  14.059   6.155  15.995 -0.1266 -0.0116 -0.1511
15730W        W33254  11.445   0.171   2.665 -0.0066  0.0865 -0.1829
15731W        W33255   8.191   2.782   0.382 -0.0810  0.0373 -0.0375
15732W        W33256  17.305  14.757   5.217  0.1848 -0.0264  0.1532
15733W        W33257   1.356  18.043   1.720  0.2909 -0.2652 -0.1629
15734W        W33258  16.523   5.865   1.350  0.4660 -0.4144  0.0253
15735W        W33259   4.062  12.852  15.811  0.1903 -0.1453 -0.0038
15736W        W33260   4.345  15.854   0.281 -0.0264  0.1152 -0.2616
15737W        W33261  10.895  11.083  12.974 -0.2725  0.0687 -0.3947
15738W        W33262  15.020   7.661  11.675  0.0326 -0.3968  0.0136
15739W        W33263   0.009   6.641  14.167 -0.2185  0.1630  0.1068
15740W        W33264   7.920   0.767  11.734 -0.1178 -0.1124 -0.3998
15741W        W33265   9.912   6.905  14.654  0.1242  0.3023 -0.0228
15742W        W33266   9.299  11.017  15.652  0.2648 -0.0829 -0.2397
15743W        W33267   5.955   4.053  11.913 -0.1140 -0.3041 -0.0415
15744W        W33268  11.362  11.737   2.918 -0.3573 -0.0111  0.1383
15745W        W33269   1.296   8.172   2.480  0.2101 -0.0150 -0.2471
15746W        W33270  10.598   4.325  12.157  0.0491 -0.1083  0.4425
15747W        W33271  13.517   8.329  10.324 -0.0495 -0.0205 -0.2885
15748W        W33272   7.677  11.035   2.680 -0.1644 -0.1107  0.0353
15749W        W33273  11.973   1.235   0.693  0.0855 -0.2321 -0.0643
15750W        W33274   4.139   7.119  15.618 -0.1990 -0.1594 -0.0779
15751W        W33275   2.057   2.202   2.263 -0.2573 -0.0054  0.0767
15752W        W33276   3.492  14.562  15.218  0.2110  0.1462 -0.1048
15753W        W33277  12.099   3.356  11.984  0.3581 -0.0515  0.0986
15754W        W33278   2.348  12.342  13.122  0.1782  0.2302  0.0492
15755W        W33279  12.089   1.538  13.605  0.1541  0.3863 -0.1139
15756W        W33280  11.730   4.949  15.218  0.0708 -0.4361 -0.1549
15757W        W33281   6.894   7.949  12.956  0.0980  0.2654  0.1631
15758W        W33282  16.119  10.130   0.406  0.0008 -0.0888  0.1179
15759W        W33283  18.036   8.672  10.709 -0.1291 -0.2538  0.1413
15760W        W33284  11.934   0.063  15.959 -0.0393  0.4151 -0.1594
15761W        W33285   6.580  16.561   4.284 -0.0192  0.5136  0.1745
15762W        W33286   0.226  11.053  15.431  0.3208  0.2575 -0.0728
15763W        W33287  14.271   6.532   2.004  0.0644 -0.1584 -0.1740
15764W        W33288  18.035  10.130  13.829 -0.1000  0.0895  0.0922
15765W        W33289   5.327  15.028  13.712  0.0631 -0.0487  0.1344
15766W        W33290   6.228   0.699  13.871 -0.0021 -0.2973 -0.1660
15767W        W33291   5.769   8.985  12.390  0.0892  0.0352 -0.1609
15768W        W33292   2.146   9.387   2.496  0.1997  0.2311  0.2025
15769W        W33293   1.187  15.501   4.238 -0.1187 -0.1825 -0.1750
15770W        W33294   8.208  13.659   3.223  0.0091  0.0878 -0.0577
15771W        W33295   8.494   9.398  13.108  0.3038  0.1442  0.0069
15772W        W33296  17.792  16.466  13.141 -0.0653  0.0175  0.0913
15773W        W33297  10.056   7.805   3.677 -0.0658  0.1496 -0.0161
15774W        W33298  12.739  16.104  13.409 -0.0166  0.1268 -0.2849
15775W        W33299  13.635   6.297  12.453 -0.1608  0.1122 -0.1929
15776W        W33300   5.346  14.195   4.059 -0.0518 -0.2165 -0.3233
15777W        W33301   0.818   3.040  12.345 -0.2759 -0.3282  0.2018
15778W        W33302  16.390  10.687   3.318 -0.0648 -0.1719 -0.1564
15779W        W33303   7.382   5.581  15.810 -0.0262 -0.0952 -0.0084
15780W        W33304  16.047  15.665  14.899  0.3260  0.2842 -0.4050
15781W        W33305  11.313   4.081   3.800 -0.1040 -0.2981 -0.0313
15782W        W33306   7.911  13.464   4.599 -0.0023 -0.3269  0.1579
15783W        W33307   5.145   9.489   1.303  0.2826  0.2184 -0.0130
15784W        W33308   4.802   2.972  13.267 -0.1043 -0.0446  0.0380
15785W        W33309   0.750   5.891  15.011  0.1872 -0.0304  0.1231
15786W        W33310  17.642   1.287   0.625 -0.1586  0.0966 -0.1543
15787W        W33311  13.836   7.515   0.769  0.2470  0.0602 -0.1120
15788W        W33312  11.017   8.612   3.033  0.0588  0.3588 -0.1870
15789W        W33313  17.885   8.235   1.339  0.1245  0.0977  0.1396
15790W        W33314  10.145  10.743  13.260 -0.1427 -0.0206 -0.2359
15791W        W33315  17.111   6.029   2.418 -0.0510 -0.1149  0.3520
15792W        W33316  12.287  12.124   1.338  0.1048  0.0102  0.1602
15793W        W33317  12.109   2.824   1.096  0.0697 -0.2283 -0.1136
15794W        W33318   5.706   5.260   4.110 -0.1521 -0.1377 -0.1173
15795W        W33319   1.275   2.837  11.477  0.2957  0.0437  0.0680
15796W        W33320  15.620  14.995   2.823  0.0862  0.1752 -0.0677
15797W        W33321   8.247   9.967   1.778 -0.4946 -0.0012  0.0755
15798W        W33322  12.279   7.702  15.521 -0.1765  0.3239 -0.2025
15799W        W33323   4.870  14.778   5.339 -0.0795  0.0003  0.3082
15800W        W33324  10.581   1.380  13.580  0.0900 -0.2027  0.0588
15801W        W33325   7.692  13.254   1.510  0.2096 -0.1360 -0.0101
15802W        W33326  10.301  15.937   5.302 -0.1683  0.0108  0.2215
15803W        W33327   2.875   6.825  12.418  0.1996  0.1401  0.3179
15804W        W33328  15.944   6.311   5.228  0.2420 -0.1227  0.1077
15805W        W33329   0.054  14.297  12.765  0.0420 -0.0965  0.0657
15806W        W33330   7.890   1.671  10.876  0.3265 -0.3781  0.3942
15807W        W33331   9.173  17.161   4.320 -0.0862 -0.0120  0.0066
15808W        W33332   6.031   0.937  15.048 -0.0514 -0.0300 -0.0384
15809W        W33333   4.726   3.477   4.810  0.0988 -0.1362 -0.0710
15810W        W33334   2.133  17.834   1.618  0.0075 -0.0216 -0.1079
15811W        W33335  17.053   2.519  11.314  0.0873  0.1843 -0.0251
15812W        W33336   1.295   5.083  13.925  0.1876 -0.0506  0.0041
15813W        W33337  10.768  16.354   3.287 -0.0661 -0.2034  0.1897
15814W        W33338  11.111   8.488   0.363  0.2259 -0.0679  0.1384
15815W        W33339  14.060   0.204  14.409  0.1193  0.0556  0.0287
15816W        W33340  16.825  16.106   1.034 -0.0890  0.0818 -0.3106
15817W        W33341   4.101   0.610   1.307  0.1863 -0.3651 -0.0555
15818W        W33342   4.882  17.993   0.643 -0.2368  0.2403 -0.1508
15819W        W33343  14.461   9.153  12.230  0.0530 -0.0205  0.3194
15820W        W33344  17.433  11.593   4.373  0.0638  0.0842 -0.0772
15821W        W33345   3.946   2.011   2.659  0.0034  0.4563 -0.1317
15822W        W33346   2.795   8.572   4.721  0.2418 -0.0834  0.1958
15823W        W33347   5.891  15.195   3.471 -0.2709  0.0961  0.0400
15824W        W33348   7.597   4.225   1.504  0.1829 -0.3185  0.1800
15825W        W33349  10.657   9.500   1.327 -0.0043  0.1293  0.1731
15826W        W33350  11.501  11.486  15.347  0.1191  0.0378  0.0535
15827W        W33351   5.613   9.574  13.207  0.0909 -0.1056  0.1980
15828W        W33352   1.529   4.674  14.164  0.0006 -0.1174  0.1491
15829W        W33353  10.814  17.906   1.207  0.1993  0.2707 -0.1852
15830W        W33354   5.652   9.327   3.192  0.0292 -0.1076 -0.1464
15831W        W33355  11.249   6.587  11.369  0.1553 -0.6003 -0.0203
15832W        W33356   8.104   1.163   2.786 -0.0013 -0.2511 -0.1175
15833W        W33357  12.582  12.052   0.898  0.1533 -0.1551  0.1069
15834W        W33358  13.941  15.786  11.526 -0.1808  0.2642  0.0366
15835W        W33359  10.564  12.955   4.657  0.2487  0.1312 -0.3919
15836W        W33360  15.059  16.335   5.692  0.0245 -0.1123 -0.2620
15837W        W33361  10.725  11.734  15.291  0.0424 -0.1579 -0.2301
15838W        W33362   4.622   2.233  15.315  0.0368  0.2081  0.1523
15839W        W33363   6.575  11.940   5.487 -0.2382  0.1469  0.1704
15840W        W33364  13.023   6.549  11.011  0.2295  0.0227 -0.0215
15841W        W33365  16.818   2.650  11.749  0.2467  0.0933 -0.0993
15842W        W33366   6.296   0.283   0.809  0.0378 -0.3288  0.0390
15843W        W33367   3.691   0.889   2.214  0.1222 -0.1921  0.5739
15844W        W33368  14.875  14.397   2.985 -0.0727 -0.2394  0.0719
15845W        W33369   6.416  11.433   2.025  0.0374  0.1938  0.0459
15846W        W33370   3.449  13.729   4.148  0.0637 -0.0247 -0.1290
15847W        W33371   5.898   5.446   1.263  0.1628  0.3084 -0.1030
15848W        W33372   8.800   6.899  15.946  0.1334  0.1292  0.0131
15849W        W33373  16.047   3.888  15.041  0.1062  0.2854  0.3315
15850W        W33374   3.955   1.778   0.278  0.1019  0.0619 -0.0653
15851W        W33375  16.835   7.512   1.937 -0.1367 -0.2147  0.0657
15852W        W33376  14.536   7.071  13.112  0.0234  0.0082  0.0247
15853W        W33377   6.526   4.987   2.486 -0.0561 -0.0666  0.1038
15854W        W33378   7.949  10.473   5.734 -0.1458 -0.1966 -0.1420
15855W        W33379  11.057  10.927   2.801 -0.0046  0.0278  0.3806
15856W        W33380   2.362  16.609  15.611  0.0767 -0.0046  0.1835
15857W        W33381  16.983   2.217   2.629  0.3324  0.0424 -0.2205
15858W        W33382   8.022  14.487   4.483  0.1816 -0.3485  0.0040
15859W        W33383  11.146  12.026  11.797  0.0668 -0.0988 -0.1282
15860W        W33384  11.598  11.073  11.248  0.2779  0.1533  0.1357
15861W        W33385  14.609   1.590  11.355 -0.1788  0.1925 -0.0652
15862W        W33386  16.077   8.204  15.701  0.0399  0.1589 -0.0139
15863W        W33387   9.368   4.851   4.650 -0.0483  0.2722 -0.0031
15864W        W33388   5.809  10.192   0.911  0.0773 -0.0889  0.1236
15865W        W33389  16.560  16.903   0.687  0.0743  0.0357  0.2394
15866W        W33390   2.513   8.988   2.020  0.3639  0.0255  0.0632
15867W        W33391  13.026  16.966   5.667  0.1511 -0.2916 -0.0785
15868W        W33392   5.350   8.104  14.260  0.1630  0.1074 -0.0611
15869W        W33393  11.847   2.131   4.148  0.1430 -0.0057  0.0594
15870W        W33394   9.113  10.322  11.325  0.1749 -0.2534 -0.1813
15871W        W33395   4.715   3.204  14.114 -0.2694  0.0183 -0.1355
15872W        W33396  16.608   1.277  14.073 -0.2583  0.0796  0.0926
15873W        W33397  17.184  12.349  13.082  0.0189 -0.0571  0.1110
15874W        W33398  17.272   6.155   4.973 -0.1081  0.1791 -0.2220
15875W        W33399  14.841   6.726   3.550  0.2918  0.0797 -0.0218
15876W        W33400   2.912   6.405   2.140  0.1579  0.0399  0.0221
15877W        W33401   1.231   6.569   3.837 -0.2314  0.3078  0.0589
15878W        W33402   5.230  17.415  11.614  0.0026 -0.0475 -0.0125
15879W        W33403   3.220   9.670  14.051 -0.2639  0.2057 -0.0105
15880W        W33404  13.206  11.428   2.536  0.0942  0.2557  0.0085
15881W        W33405  15.433  10.243  13.543 -0.1868  0.2808  0.0881
15882W        W33406   7.960  14.171   1.464  0.0750 -0.2422  0.2053
15883W        W33407  17.761   0.630   2.045 -0.2183 -0.1256  0.0597
15884W        W33408   6.042   0.847   2.800  0.0311 -0.0411  0.4927
15885W        W33409   0.343  10.839   3.747 -0.4421 -0.2574  0.0505
15886W        W33410  11.478   2.507   1.908 -0.0207 -0.1695 -0.0368
15887W        W33411   5.692  12.917  15.414  0.0155  0.0883  0.3224
15888W        W33412  13.828  13.325  14.871 -0.3518 -0.0835 -0.2980
15889W        W33413   2.779   0.601   4.014  0.0463 -0.0140  0.0116
15890W        W33414   4.181   1.551   2.555  0.1532 -0.1744 -0.0126
15891W        W33415   6.948  16.397  14.067  0.2681  0.1349  0.1004
15892W        W33416  17.212  17.844   2.108  0.0114  0.1668 -0.2928
15893W        W33417  16.291   2.287  13.099 -0.1026 -0.2331  0.2165
15894W        W33418  14.167   9.208   6.145 -0.1084 -0.0301 -0.0767
15895W        W33419   5.981  17.542   3.143  0.1190  0.1979  0.0986
15896W        W33420   2.450   0.683  13.326  0.0499  0.1537 -0.0186
15897W        W33421  10.169   1.571   0.851 -0.3897  0.2971 -0.1423
15898W        W33422  16.234   7.671   4.443  0.0095  0.0378 -0.0188
15899W        W33423  18.157   1.434  13.638 -0.2403 -0.2647 -0.1764
15900W        W33424   1.164   5.631  12.371 -0.0024  0.1268 -0.0492
15901W        W33425  14.713  14.666   2.024 -0.2266  0.2146 -0.2103
15902W        W33426   6.514   7.658   5.043 -0.3335 -0.1447  0.0932
15903W        W33427   0.308  15.466  14.814 -0.1131 -0.2370 -0.0802
15904W        W33428  12.850  17.022  11.963  0.2270  0.1338 -0.2852
15905W        W33429   0.361  13.553   1.719 -0.0300  0.1062 -0.0660
15906W        W33430  11.221  15.416  15.809 -0.0022 -0.3507 -0.0277
15907W        W33431   9.819   6.323   1.865 -0.2462  0.1722 -0.2171
15908W        W33432   8.657   0.813   0.543 -0.0418  0.0066 -0.1712
15909W        W33433   6.988  14.064  11.713  0.0748  0.3363 -0.0401
15910W        W33434  16.987  15.298  13.230 -0.1146 -0.0734 -0.0384
15911W        W33435   7.437   0.754  13.075  0.0408  0.0064  0.0202
15912W        W33436  14.456  14.831   0.097  0.1359  0.0969 -0.1398
15913W        W33437  12.810  14.607  13.929  0.3004 -0.0871  0.1452
15914W        W33438   2.804  11.531  14.856 -0.1896 -0.1490  0.0144
15915W        W33439   5.643  13.309  13.206  0.1488  0.0465  0.1211
15916W        W33440   1.910  17.918   3.462  0.0249 -0.1133  0.0131
15917W        W33441  12.018  11.089   4.627  0.1444  0.0082 -0.0804
15918W        W33442  16.258   3.101  13.735  0.2258 -0.0588 -0.1223
15919W        W33443  16.735   4.440   4.655 -0.1162  0.1778  0.1649
15920W        W33444   4.934  11.922  13.172  0.1987  0.0237  0.2708
15921W        W33445   2.736  15.972   2.290  0.0707 -0.1703 -0.0909
15922W        W33446   0.684   1.843   3.963  0.0311  0.0297 -0.2841
15923W        W33447   2.998   3.218   1.791  0.2137 -0.0678  0.1411
15924W        W33448  17.861   4.891  15.039 -0.1733 -0.3100 -0.3006
15925W        W33449  10.766  17.900   1.753  0.3258  0.2686  0.0252
15926W        W33450  11.177  15.210   0.177  0.2036  0.1640 -0.1127
15927W        W33451   7.622  10.161  13.973 -0.0172  0.1303 -0.1817
15928W        W33452  11.603   4.010   1.322  0.1323  0.1372  0.1934
15929W        W33453   4.617   2.639   1.316 -0.1281  0.1564 -0.1578
15930W        W33454  12.429   0.620  12.995 -0.1332 -0.2907  0.1020
15931W        W33455  13.462  10.960  11.355 -0.0339  0.4435 -0.0593
15932W        W33456   0.649  16.889  15.941  0.0556  0.0890  0.1688
15933W        W33457  10.915   9.607  11.062  0.1567 -0.1629 -0.0993
15934W        W33458   2.327   8.220   0.651  0.1063  0.0210 -0.1010
15935W        W33459   0.827   7.340  13.834 -0.3007 -0.0819 -0.1495
15936W        W33460   5.648  12.726  14.369 -0.0197 -0.2584  0.1360
15937W        W33461  13.329   9.270  10.956  0.0012  0.1472  0.0697
15938W        W33462   3.653  12.903   4.633  0.1679 -0.1285  0.1274
15939W        W33463   0.736   1.420  11.859  0.1135 -0.0497 -0.1960
15940W        W33464  14.374  18.174  15.075  0.0196  0.4118  0.4444
15941W        W33465   4.836  13.400   2.395 -0.1286 -0.3194 -0.1245
15942W        W33466  11.547   5.520  13.982  0.1535 -0.0205 -0.1488
15943W        W33467  14.535   3.961  14.692 -0.1045  0.1655 -0.0769
15944W        W33468   2.047  16.691   0.861  0.0554  0.0624  0.1167
15945W        W33469   2.207   9.425  11.314 -0.0574  0.0659  0.0041
15946W        W33470  13.625   8.215   3.426 -0.1313 -0.0102 -0.0483
15947W        W33471  15.375   2.570  14.357  0.1860  0.0954  0.1485
15948W        W33472   5.667   7.304  13.781  0.0401  0.3671  0.1821
15949W        W33473   7.051  16.935   0.217  0.2435 -0.2266 -0.0897
15950W        W33474   7.046   4.047  15.246 -0.3950 -0.1710 -0.1895
15951W        W33475  10.666  13.013   0.306  0.0995 -0.3954 -0.3830
15952W        W33476   0.586   0.950   1.057 -0.0804 -0.0992 -0.1313
15953W        W33477   6.799   5.851   0.865  0.3085 -0.0944 -0.1909
15954W        W33478  14.689  12.974   3.342  0.1537 -0.0322  0.3386
15955W        W33479   8.296   9.330   3.445 -0.0658 -0.0910 -0.0465
15956W        W33480  17.624   0.264  13.141 -0.0829 -0.0756  0.0062
15957W        W33481  11.262  17.863   2.869 -0.0331 -0.1097  0.2785
15958W        W33482  17.847   1.805  15.372  0.2088  0.3795 -0.3491
15959W        W33483   3.249   7.676  15.934  0.1501 -0.0859  0.0412
15960W        W33484  15.288  15.268   5.121 -0.0544  0.0423 -0.0267
15961W        W33485   9.949   7.764   4.193  0.0325 -0.1013 -0.1500
15962W        W33486  13.457   0.414  14.326  0.0195  0.0713 -0.1714
15963W        W33487   5.592  12.975   3.866  0.2208  0.3285  0.1788
15964W        W33488  15.427   9.941   1.946  0.1853 -0.0158  0.0749
15965W        W33489  15.194  12.836   2.735 -0.0646  0.0083 -0.0833
15966W        W33490   3.274  14.227  11.976 -0.0219  0.1512  0.0926
15967W        W33491  16.689   4.727   0.675  0.0987 -0.0494 -0.2580
15968W        W33492   1.514  16.298  12.872 -0.1208 -0.0229  0.3484
15969W        W33493   5.701  15.281   3.944 -0.2047  0.2063 -0.1665
15970W        W33494   4.621  11.395  14.407 -0.3473 -0.0125 -0.1447
15971W        W33495  14.078  14.623   1.980 -0.0263 -0.1206  0.0707
15972W        W33496   3.488   0.521   2.488 -0.1257  0.0946  0.0533
15973W        W33497  11.687   2.831   2.873  0.0151  0.0637 -0.3332
15974W        W33498  11.292   3.943  13.988  0.1884  0.0467 -0.0066
15975W        W33499  15.004  13.815  14.227  0.1101 -0.0043 -0.1058
15976W        W33500   3.031   3.055  15.747 -0.1389 -0.1516  0.3215
15977W        W33501  12.299  14.701   0.737  0.0446  0.0383 -0.1314
15978W        W33502   8.487   6.059  12.420 -0.0186  0.1784 -0.3911
15979W        W33503   5.335  12.109  15.969  0.1676 -0.0305  0.0169
15980W        W33504  11.381   3.403  11.243  0.1393  0.1171  0.0212
15981W        W33505  14.830   4.274  11.966  0.0447  0.1005 -0.2560
15982W        W33506  17.138   6.611   1.278 -0.1703  0.1007 -0.1635
15983W        W33507   6.067   1.946  14.284  0.0356 -0.1087  0.1981
15984W        W33508  16.157   4.946   4.035 -0.2697  0.2641 -0.1075
15985W        W33509  15.706  10.230   5.428  0.1118 -0.1765 -0.2887
15986W        W33510  17.794  18.092  15.623 -0.0189 -0.1795 -0.1620
15987W        W33511  14.532   5.137  11.433 -0.3177 -0.0581 -0.0029
15988W        W33512   9.922  15.447   0.851 -0.1418 -0.2990 -0.1924
15989W        W33513  12.533  17.029   4.834  0.0905  0.0657 -0.0851
15990W        W33514   7.136   3.448   0.638  0.0201  0.0866 -0.0716
15991W        W33515   7.963  12.030   4.379 -0.4492  0.0976 -0.0658
15992W        W33516   5.824   2.549   3.346  0.3588 -0.3543  0.1868
15993W        W33517   4.307  14.945   2.670  0.1258 -0.2140  0.0277
15994W        W33518   3.139   8.728  15.904  0.0665  0.2711  0.1698
15995W        W33519  11.556   5.027   1.324  0.0211  0.1578 -0.1648
15996W        W33520  14.363   2.643   3.515 -0.0361  0.0467 -0.2166
15997W        W33521   2.596   4.605  14.080  0.0658 -0.0420 -0.0006
15998W        W33522  12.632  11.766   3.201  0.2454 -0.2273  0.0004
15999W        W33523   7.978  17.231   0.419  0.1255 -0.1299  0.0805
16000W        W33524  17.232   6.636  14.855  0.0476 -0.2766 -0.2371
16001W        W33525   5.471  10.280  11.430  0.3455  0.1519  0.0485
16002W        W33526   5.699  17.612   1.517 -0.1355  0.2795 -0.0296
16003W        W33527   2.422   5.199   3.192 -0.0009 -0.0122  0.2034
16004W        W33528  17.393   9.941  12.396  0.1861  0.2403  0.2978
16005W        W33529   7.063  14.283  12.835  0.0956  0.0727 -0.0483
16006W        W33530  13.215   2.453  16.043  0.1155  0.3393  0.0167
16007W        W33531  14.355  13.012  13.114  0.1814  0.1543 -0.1039
16008W        W33532  15.229   7.392   2.520  0.2309 -0.0376  0.3128
16009W        W33533  14.874   7.656  15.447  0.2283  0.1801  0.1408
16010W        W33534   6.870  11.879  14.240 -0.1267  0.0647  0.3518
16011W        W33535   1.039   2.476  14.346 -0.2549 -0.2059  0.4216
16012W        W33536  16.157   1.224  12.135  0.0091 -0.0279  0.3048
16013W        W33537   4.050   2.573   2.637  0.1932 -0.1832  0.0460
16014W        W33538  14.925  11.021  14.539  0.2198 -0.0787 -0.1055
16015W        W33539   9.494   0.715  11.610  0.0139  0.1410 -0.0834
16016W        W33540  17.912  15.024  14.320 -0.0950  0.0039 -0.0037
16017W        W33541  16.592  12.636   0.810  0.2142  0.1652  0.3338
16018W        W33542  15.475  15.792   1.579 -0.2922  0.2924  0.0106
16019W        W33543   6.809   2.880  12.046  0.4901 -0.1566 -0.1182
16020W        W33544  17.000  17.207  11.768 -0.2121  0.0975  0.1581
16021W        W33545  13.959  10.584  16.087  0.0424  0.0987  0.0995
16022W        W33546   1.867   2.414  15.453  0.0450  0.1593 -0.0354
16023W        W33547   1.935  14.348  15.020 -0.1039  0.0851 -0.1538
16024W        W33548  14.206  16.531  15.332 -0.4951  0.0036 -0.0784
16025W        W33549   0.100   4.170   2.231 -0.0328 -0.0305 -0.0229
16026W        W33550   6.267   1.561  14.416 -0.0903  0.2755 -0.1532
16027W        W33551  15.324  15.220   3.166  0.2571  0.1544 -0.1359
16028W        W33552   1.945   8.242   1.490 -0.2583  0.2684  0.1796
16029W        W33553  13.931   5.357   1.376  0.0698 -0.1016  0.0608
16030W        W33554  15.015  14.017   0.973 -0.2241 -0.2682  0.0361
16031W        W33555  16.520   0.230   4.983 -0.0926  0.2077 -0.2128
16032W        W33556  17.448  11.472   2.555  0.2009 -0.0364  0.0930
16033W        W33557   2.917  15.417  14.482  0.3249 -0.0336  0.0735
16034W        W33558   9.392   7.111   3.347  0.0898  0.0526 -0.1358
16035W        W33559   2.700  10.574   3.834  0.0399  0.1982  0.0714
16036W        W33560   2.357   9.134  15.987 -0.2565 -0.0125 -0.0102
16037W        W33561  12.606   7.060   1.163 -0.0982 -0.0185 -0.3425
16038W        W33562   0.193   1.303   2.715  0.1953  0.0375 -0.2237
16039W        W33563  16.151  18.138   0.424  0.2437  0.1048  0.1082
16040W        W33564   5.041  15.580   3.144  0.0465 -0.0193 -0.1868
16041W        W33565   9.026   9.996   2.224  0.0282  0.1514 -0.0912
16042W        W33566  13.497   6.907   2.036  0.2243 -0.2495 -0.0566
16043W        W33567  17.344   0.621  15.811  0.3455 -0.2981  0.1842
16044W        W33568   5.833  16.757  11.495 -0.1088  0.0711 -0.0537
16045W        W33569   9.262  13.825  13.023 -0.0191 -0.2805 -0.2959
16046W        W33570  14.791  10.003  14.295  0.3124 -0.3482  0.0225
16047W        W33571   2.749   5.154  11.596 -0.1279  0.0294 -0.2869
16048W        W33572   9.190  13.632  12.583  0.1445 -0.1338  0.2695
16049W        W33573   8.620   8.943   4.357 -0.0518 -0.2202 -0.1775
16050W        W33574  10.943  13.344  13.143  0.1007 -0.3209 -0.1653
16051W        W33575  12.590   4.656   0.779 -0.2782 -0.0151 -0.1414
16052W        W33576   3.478   1.742  11.694  0.0712  0.0977 -0.0337
16053W        W33577  16.597   8.063  11.757  0.0838 -0.1657 -0.1583
16054W        W33578  12.852  17.084   2.031  0.0484  0.2190  0.0837
16055W        W33579   7.948  15.271  13.149  0.0832 -0.6060 -0.2658
16056W        W33580  17.125  11.337  12.108 -0.2902  0.1959  0.0976
16057W        W33581  16.907  13.509   2.432  0.2821 -0.1674 -0.2175
16058W        W33582   0.682   8.488   0.306  0.0808  0.1193  0.0540
16059W        W33583   1.709  10.570  13.393  0.2011  0.4040  0.0860
16060W        W33584   2.058  15.958  16.044  0.0193  0.1608 -0.2239
16061W        W33585  15.943  16.400  12.496 -0.1175 -0.1002 -0.1963
16062W        W33586  11.689   3.747  12.733  0.1596 -0.1044  0.1866
16063W        W33587   1.870  13.238   0.801  0.3954 -0.2047 -0.1234
16064W        W33588   5.116   9.612  13.428  0.1307  0.1365  0.4595
16065W        W33589   1.945   2.661  13.159  0.1035 -0.3643 -0.2743
16066W        W33590   7.519  14.534  12.778  0.0706 -0.3810 -0.4740
16067W        W33591   4.872   8.001   2.176  0.2191  0.1176  0.0183
16068W        W33592   6.638   6.850   2.648 -0.2756 -0.0279  0.1121
16069W        W33593   6.040   0.257  13.891 -0.1137  0.0969  0.2526
16070W        W33594  18.170   1.797  15.737 -0.1440  0.0388 -0.3872
16071W        W33595  17.609  10.780  15.756 -0.0061  0.0771  0.0075
16072W        W33596  15.676  16.235  11.162 -0.0429  0.1288  0.0538
16073W        W33597   5.275  16.460   1.177 -0.0430  0.0784  0.6071
16074W        W33598   7.646   1.036  12.637 -0.3163  0.0219  0.0273
16075W        W33599   5.627  17.329   2.898  0.1936 -0.3589  0.1223
16076W        W33600  16.299  13.201  13.046 -0.2245 -0.1507  0.2507
16077W        W33601   3.251   0.487  15.949 -0.1951  0.1239 -0.2522
16078W        W33602  16.263   2.195  14.180 -0.1527  0.1272 -0.0158
16079W        W33603  15.951   3.256   4.192 -0.1825 -0.4588 -0.1791
16080W        W33604   6.227  12.184  15.942 -0.0090  0.0391 -0.2136
16081W        W33605  15.248   7.025  13.614  0.2837 -0.2412  0.3029
16082W        W33606   2.754  17.680  15.340  0.0647 -0.0342  0.0468
16083W        W33607  18.151   3.435  15.298 -0.0684 -0.3036  0.2652
16084W        W33608   2.298   7.897   0.292  0.1063  0.1902  0.2119
16085W        W33609  16.499   3.201  15.289 -0.0618  0.0150  0.6247
16086W        W33610  17.693   0.741  14.025 -0.0978 -0.1800  0.0603
16087W        W33611   3.308   2.472  11.731 -0.0978 -0.1590  0.0034
16088W        W33612   4.804  14.478  13.015  0.1779 -0.0911 -0.0176
16089W        W33613  10.850  16.414  12.749 -0.0116 -0.0317  0.1182
16090W        W33614  14.929   5.088   1.459  0.1345 -0.0216 -0.1413
16091W        W33615  16.366  14.704  12.973  0.2349  0.2342  0.3971
16092W        W33616   2.166  10.148  12.660 -0.2922  0.2018  0.1452
16093W        W33617   6.805  13.285  15.199 -0.1850 -0.0738  0.5058
16094W        W33618  12.222  15.986   2.886 -0.0249 -0.1682  0.0925
16095W        W33619   5.465  10.785   4.465 -0.1904  0.0956  0.0842
16096W        W33620  16.068  17.996   2.837 -0.0263  0.1610  0.0531
16097W        W33621  11.898  10.984   5.560 -0.0776 -0.3400 -0.2712
16098W        W33622  10.108  11.706  13.685  0.2250  0.1646  0.1165
16099W        W33623   9.791   5.849   2.310  0.0578  0.3555  0.0997
16100W        W33624   6.226  10.436   3.738  0.1923  0.1678 -0.1314
16101W        W33625  10.845  14.642   2.998 -0.2185  0.1798  0.1189
16102W        W33626  11.006   4.220  15.075 -0.1131  0.0177 -0.1449
16103W        W33627  10.248  11.748   0.035 -0.2483  0.0163  0.1671
16104W        W33628   7.705   0.485   0.140  0.2991 -0.0609  0.1697
16105W        W33629  17.964  11.709   1.374 -0.0399 -0.0860  0.2472
16106W        W33630   3.984   5.887  11.419 -0.0873 -0.2217  0.1824
16107W        W33631   6.617  14.549  11.552 -0.2736 -0.3569 -0.2296
16108W        W33632   9.981   1.376  12.297  0.0916 -0.0284  0.1883
16109W        W33633   1.018  16.788   3.980  0.0547  0.0472 -0.1140
16110W        W33634   3.547  17.747   3.819 -0.3290  0.0635 -0.3133
16111W        W33635  13.182  15.501   1.442  0.0373 -0.0913 -0.2445
16112W        W33636  17.110  15.476   3.275  0.1957 -0.2098 -0.4667
16113W        W33637  15.749  11.965  12.582  0.0490 -0.0040  0.1053
16114W        W33638  14.640   4.716  11.705  0.1246  0.1291  0.0766
16115W        W33639   3.478  16.832  10.972 -0.2703 -0.0048 -0.4165
16116W        W33640  11.229  11.426   2.502 -0.2830 -0.0693 -0.2480
16117W        W33641   4.241   8.117  13.568  0.1091 -0.1876 -0.0784
16118W        W33642  16.933   3.609   2.379  0.0229 -0.0252 -0.0548
16119W        W33643   5.029   0.153  13.184  0.0808 -0.0394 -0.1332
16120W        W33644   8.557  12.050  14.898  0.2126  0.1948  0.1790
16121W        W33645   5.929   5.809   0.942 -0.4327  0.1022  0.0777
16122W        W33646  10.703   9.778  12.403 -0.1538  0.0769  0.1296
16123W        W33647  16.214  14.954   3.666 -0.3127  0.0925  0.1003
16124W        W33648   8.752   5.042  14.937  0.4294 -0.4100 -0.1678
16125W        W33649   1.302  18.123  12.643 -0.0821 -0.2016  0.0620
16126W        W33650  16.915   1.190  10.897  0.0502 -0.4645  0.0065
16127W        W33651   3.912  15.844  11.813 -0.3480  0.0987  0.0102
16128W        W33652  11.948   3.135  14.316  0.2343 -0.1206  0.1265
16129W        W33653  13.814   1.967   3.915  0.0478  0.1625 -0.0621
16130W        W33654   8.188   6.893  12.747 -0.4170 -0.0627 -0.0572
16131W        W33655   6.321   9.293   4.353 -0.1507  0.2268  0.1336
16132W        W33656   6.139  11.183   1.191  0.3891  0.1639  0.1877
16133W        W33657   6.712   8.224   2.090 -0.1192 -0.1739  0.0822
16134W        W33658  13.886   5.158  14.550 -0.0436 -0.0029  0.1401
16135W        W33659  14.952   7.482  12.208 -0.0570  0.0900  0.0721
16136W        W33660  16.116   0.687   2.270  0.0653  0.2743 -0.0703
16137W        W33661  15.526  12.720  12.216  0.2396 -0.1070  0.0661
16138W        W33662  15.457  10.662   4.165  0.2409  0.0083 -0.2264
16139W        W33663  15.229  11.051   4.899 -0.0716 -0.1007  0.1473
16140W        W33664   5.807   1.896  13.223 -0.1725  0.1052  0.0408
16141W        W33665   7.445   8.408  15.057  0.1396  0.1653 -0.0780
16142W        W33666   4.876  17.935  16.071 -0.1531 -0.0421  0.1443
16143W        W33667  15.155  14.980   1.240  0.2206 -0.1727  0.0513
16144W        W33668  14.799   8.382  11.923  0.2559 -0.0587 -0.0984
16145W        W33669  10.066   4.163  11.147 -0.2572  0.1263  0.1836
16146W        W33670  13.024   3.057  15.258 -0.1025  0.3453 -0.1727
16147W        W33671   6.106  12.571   0.992 -0.0523  0.1969  0.0691
16148W        W33672  16.818   1.068  12.810  0.0629 -0.2337 -0.0042
16149W        W33673   3.691   8.400   0.519  0.0659  0.0044 -0.0618
16150W        W33674   3.605  12.635  11.246 -0.2140  0.0345 -0.2138
16151W        W33675   8.411  10.087  13.058  0.0927  0.2244  0.0356
16152W        W33676   6.557   8.966   3.126 -0.0042  0.0078  0.0779
16153W        W33677   5.727  15.145  12.565  0.2678  0.2548  0.1448
16154W        W33678  15.780   2.804   4.739 -0.0264  0.2607 -0.4722
16155W        W33679   2.896  12.944  12.920  0.1018 -0.0530  0.1366
16156W        W33680   8.127  12.958  14.843 -0.2228  0.0314 -0.0619
16157W        W33681  10.701   5.351  12.486 -0.2656 -0.2331 -0.2008
16158W        W33682   6.500   9.458  13.419 -0.0127  0.0851  0.0362
16159W        W33683  17.858  16.661   0.448 -0.1266 -0.0191 -0.0736
16160W        W33684   6.045  13.589  13.139  0.1182 -0.0731  0.4680
16161W        W33685   9.785   5.669  12.395 -0.3102 -0.2295  0.0630
16162W        W33686  14.657   6.434   0.354  0.1680 -0.2246 -0.1792
16163W        W33687   3.936  14.645  14.220  0.3146  0.0422 -0.1879
16164W        W33688   0.914   6.039  11.098 -0.0344 -0.0934 -0.2194
16165W        W33689  13.562  11.464   1.155  0.0594 -0.1537  0.2893
16166W        W33690  10.429   3.989  14.772 -0.1148 -0.2573 -0.0406
16167W        W33691   7.746   5.471  13.403  0.2126 -0.1294 -0.1301
16168W        W33692   6.098   3.011   1.529  0.1453  0.1569  0.0522
16169W        W33693  15.074   2.083   3.831 -0.0211 -0.0636 -0.0825
16170W        W33694   5.471  13.756  10.826 -0.4050 -0.0934  0.2449
16171W        W33695   9.498   5.334  11.744 -0.1802 -0.0577 -0.1858
16172W        W33696   3.034   5.901   4.239  0.0005  0.1745  0.1971
16173W        W33697  15.993   3.175  14.577 -0.3801 -0.4051  0.0667
16174W        W33698  16.475  17.392  14.395 -0.2719  0.1759 -0.0939
16175W        W33699   5.395  14.983  14.436  0.1725  0.0726 -0.0962
16176W        W33700  17.282   2.480   0.522  0.0095 -0.3963  0.3020
16177W        W33701  11.508  17.059  10.865 -0.0584 -0.0100  0.0015
16178W        W33702   7.880   7.395   2.214 -0.1304  0.0544 -0.2734
16179W        W33703   6.370   5.608   3.653 -0.0420 -0.1511 -0.1957
16180W        W33704   7.620   9.822  15.956  0.2002  0.2673 -0.0855
16181W        W33705   1.664   2.170  14.966 -0.1328 -0.2287 -0.1917
16182W        W33706  14.096   7.060  15.961  0.3255  0.0061 -0.1292
16183W        W33707  15.615   7.940   3.212 -0.3970 -0.1456  0.0925
16184W        W33708  14.374   6.466  15.431  0.3953  0.1798 -0.1606
16185W        W33709   3.744   7.841  11.162 -0.2136 -0.0917  0.1159
16186W        W33710  13.813   9.483  14.169  0.1231 -0.1452 -0.3210
16187W        W33711   4.620   2.348  11.294 -0.0618  0.2506 -0.0920
16188W        W33712  14.633   5.875   2.773 -0.0466 -0.2470 -0.2580
16189W        W33713  13.152   1.072  11.465 -0.1594  0.1098 -0.2692
16190W        W33714   1.140  11.619   2.035 -0.1104 -0.0994 -0.1284
16191W        W33715   4.679  14.249   1.956 -0.0946  0.2730  0.2185
16192W        W33716   0.098   9.164  11.941  0.0126 -0.0804  0.0075
16193W        W33717  14.888  13.913   3.512  0.0839  0.1684 -0.0484
16194W        W33718  10.184   6.235  15.257  0.0397  0.1832  0.0770
16195W        W33719  13.016  14.076  13.299 -0.2527 -0.0030 -0.1028
16196W        W33720  11.851  11.817   1.259 -0.1251  0.0249  0.0563
16197W        W33721   1.089   5.114   1.361  0.1256  0.0384  0.0322
16198W        W33722   2.588  11.412   3.116  0.0281 -0.4405  0.0466
16199W        W33723  17.870   7.087   4.745  0.0611  0.1823 -0.2690
16200W        W33724  10.474  12.616  12.651 -0.3160  0.0253  0.1609
16201W        W33725   8.766  12.306  12.541 -0.1076 -0.4820 -0.2446
16202W        W33726  13.918   9.727  15.602 -0.0287  0.3498  0.1735
16203W        W33727  14.117   5.220   0.891 -0.0242  0.3112 -0.1988
16204W        W33728  17.091   0.591  13.115  0.3501 -0.0933  0.1184
16205W        W33729   3.239  13.551  14.974  0.3239 -0.5272  0.1152
16206W        W33730   3.722   9.714  13.988 -0.2021  0.2640  0.1445
16207W        W33731   9.516  10.688   4.516  0.1491  0.0051 -0.1535
16208W        W33732   9.022   2.655  14.114 -0.3280 -0.2156  0.0463
16209W        W33733   7.263   3.280   5.649  0.1132 -0.2552 -0.0006
16210W        W33734   4.906   6.904   4.527  0.1111 -0.2403 -0.0654
16211W        W33735  13.873   1.618  13.546 -0.0691 -0.1367  0.1249
16212W        W33736   8.449   3.353  11.630 -0.1794  0.4202  0.2910
16213W        W33737  16.799   8.051  12.997  0.2525 -0.1749 -0.2034
16214W        W33738  10.204   8.848   3.262 -0.1986  0.1574 -0.1620
16215W        W33739  14.933   8.217  11.240 -0.1609 -0.1560  0.1545
16216W        W33740  16.342  12.123  14.636  0.3852  0.0328  0.1648
16217W        W33741   2.378  16.923  14.641 -0.1525 -0.3736  0.1258
16218W        W33742   9.690   1.913  12.420 -0.3902  0.1157 -0.0806
16219W        W33743   3.402  14.057   3.729 -0.2797 -0.1096 -0.1428
16220W        W33744  10.235   2.614   5.161  0.0110 -0.0820 -0.0400
16221W        W33745  11.037  17.110  12.769 -0.1892 -0.0146 -0.0881
16222W        W33746  16.586   8.419   3.637  0.1455  0.2704 -0.4083
16223W        W33747   5.448  15.538  11.013 -0.0712  0.3036  0.2669
16224W        W33748  11.245   3.967  11.201 -0.0225 -0.1230 -0.0012
16225W        W33749  15.618  14.713  13.885 -0.0933 -0.1581  0.1881
16226W        W33750   1.200   0.421   0.372  0.0476 -0.1675 -0.1314
16227W        W33751   2.477  13.740   5.298  0.1743  0.1258 -0.1582
16228W        W33752   3.400  10.272   4.522  0.1229  0.0689 -0.3232
16229W        W33753  16.898  14.607  15.515 -0.1928  0.0777 -0.1076
16230W        W33754   7.566  14.832   0.692  0.0833 -0.0356  0.1271
16231W        W33755   3.181   2.007  12.458 -0.0509 -0.4717  0.1162
16232W        W33756   9.957  18.145   2.888 -0.0118  0.1838 -0.4412
16233W        W33757  13.756   9.839   1.421  0.1102 -0.1904 -0.0141
16234W        W33758   4.082  14.005  11.755  0.0354  0.0328 -0.1574
16235W        W33759  14.647  13.508  15.835 -0.0004  0.1261 -0.2611
16236W        W33760  17.307   9.110   2.523  0.3067 -0.0623  0.1757
16237W        W33761   6.489   8.361  14.805 -0.0998 -0.4639 -0.0184
16238W        W33762  13.510   4.917   1.326  0.4999 -0.2768  0.0060
16239W        W33763   9.863   4.570  13.523  0.0287  0.0397  0.2574
16240W        W33764  15.940   9.869  14.886  0.2470  0.0210  0.2903
16241W        W33765   8.970   7.795  15.312  0.2809  0.1286 -0.1076
16242W        W33766  16.074   3.452   2.376  0.1802  0.0771 -0.0778
16243W        W33767   1.623   5.705   2.800 -0.1925  0.0239 -0.0722
16244W        W33768  11.431  14.950   3.580 -0.0220 -0.3320 -0.0792
16245W        W33769  16.446  10.915   3.885 -0.0412  0.3013 -0.0973
16246W        W33770   7.125   7.837  13.443  0.0083 -0.1679 -0.0149
16247W        W33771  16.856   5.257  12.544 -0.1072 -0.1558 -0.1863
16248W        W33772   7.155  17.153  15.466 -0.1939  0.0472 -0.0156
16249W        W33773   7.227   9.935   2.882 -0.1470  0.2071  0.3851
16250W        W33774  16.843  16.161   0.353 -0.2646 -0.0920  0.0665
16251W        W33775  11.630   7.437   0.998  0.2856  0.3272  0.0400
16252W        W33776  15.431   7.835   0.037 -0.1134 -0.0881  0.2933
16253W        W33777  16.945   8.464   0.889 -0.0843  0.0614 -0.1476
16254W        W33778   2.192   1.731  13.181  0.1173 -0.0432  0.2476
16255W        W33779   9.317  18.034  10.927  0.2110 -0.0850 -0.0085
16256W        W33780  13.311  17.765   5.959  0.0434  0.0010  0.2649
16257W        W33781   9.242   1.827   4.126 -0.2306 -0.0120 -0.1877
16258W        W33782   5.487   3.487   2.894  0.0215 -0.3382 -0.0579
16259W        W33783   8.841  10.353  15.394 -0.2008 -0.0781  0.1888
16260W        W33784   0.073   5.212   1.487 -0.1907  0.1084 -0.0231
16261W        W33785  16.013   1.962   2.302  0.2574  0.1085 -0.1704
16262W        W33786  16.265  12.800   4.939  0.1268 -0.0443 -0.0312
16263W        W33787  14.780  12.977  14.904  0.1705 -0.0893  0.1626
16264W        W33788  12.365   9.426   4.026  0.0868 -0.0778  0.2159
16265W        W33789  15.711  15.625  15.893 -0.3162 -0.2874  0.0348
16266W        W33790  11.935   2.480  13.262 -0.0131 -0.1146  0.0058
16267W        W33791   7.331   9.440  15.841  0.1720  0.0365 -0.0638
16268W        W33792  16.870  12.772  11.704 -0.0538 -0.1764  0.1699
16269W        W33793   1.693   0.229  15.245  0.1896  0.0823 -0.2926
16270W        W33794   2.777   6.442   4.441  0.2971 -0.0804 -0.0487
16271W        W33795   5.717   8.222  13.435  0.1144 -0.1625 -0.0142
16272W        W33796  15.114   0.656  15.447  0.2040  0.1866 -0.3437
16273W        W33797   3.926  13.243  11.195  0.3957  0.0139  0.2415
16274W        W33798   2.822  11.889  15.322  0.2720 -0.0737 -0.2512
16275W        W33799  14.505   9.152  12.989 -0.0355 -0.0806 -0.0583
16276W        W33800   8.555   3.700   4.053 -0.0920  0.0355  0.1917
16277W        W33801   2.251   5.583  11.490  0.0769 -0.1561 -0.0845
16278W        W33802  17.308   1.025  15.561 -0.0534 -0.1388 -0.1248
16279W        W33803  12.064  18.160   1.475  0.1119  0.3141  0.1606
16280W        W33804   2.170   8.921   1.083  0.4432 -0.0999  0.1493
16281W        W33805  10.398   2.402  13.406 -0.0667 -0.1785 -0.0238
16282W        W33806   3.372   7.417  15.160 -0.2775  0.4597  0.1837
16283W        W33807   6.394  12.209  14.129  0.0135  0.2184 -0.1307
16284W        W33808   2.046   6.871  12.919 -0.0013  0.2650  0.1427
16285W        W33809  15.715  16.569  12.007 -0.3338 -0.1860 -0.0181
16286W        W33810   1.282  16.635   2.949  0.2296 -0.0645 -0.1477
16287W        W33811  17.527  12.235   3.128 -0.1018 -0.2283  0.2637
16288W        W33812  13.936  12.119   2.714 -0.0270  0.0689 -0.2260
16289W        W33813   6.463   8.637  12.400  0.2021 -0.2198  0.0594
16290W        W33814   0.367   0.784  14.225  0.0477  0.0531  0.0985
16291W        W33815  16.426  15.773  12.912  0.2610 -0.2281  0.1661
16292W        W33816  16.449  18.168   0.766 -0.0495 -0.1880  0.1415
16293W        W33817   2.968  15.533   4.075  0.3491  0.2878  0.0397
16294W        W33818  11.332   3.183  14.710  0.0468  0.1110  0.1165
16295W        W33819   8.438  15.160   0.982  0.3888 -0.0237 -0.2311
16296W        W33820   6.564  17.574   2.010  0.1414 -0.2474 -0.1329
16297W        W33821   4.082  15.702   4.569  0.1695  0.2436 -0.1774
16298W        W33822   9.038   9.813   4.670 -0.2892 -0.0147 -0.1507
16299W        W33823  16.558   3.984   4.694  0.1540  0.1324 -0.0831
16300W        W33824  17.794   2.078  11.550 -0.0928  0.1410  0.1394
16301W        W33825   1.319  15.944   4.457  0.2155  0.0932 -0.1375
16302W        W33826   9.380   0.113  15.564 -0.3853  0.1589  0.0589
16303W        W33827   4.581  17.753   3.421  0.0566 -0.0114 -0.0492
16304W        W33828  12.040  12.908  11.294 -0.0270  0.0889 -0.0407
16305W        W33829   5.828   2.753   1.882 -0.1247 -0.2256 -0.2326
16306W        W33830  13.573  15.512  15.667 -0.3269  0.1933  0.0322
16307W        W33831   1.635  15.036   4.423  0.0114  0.0302 -0.2003
16308W        W33832  12.923   1.909   3.119  0.1749  0.1873 -0.1703
16309W        W33833   0.183   4.541  12.016  0.1199 -0.2365  0.0057
16310W        W33834   0.732  13.968  13.130 -0.0411  0.2115 -0.0446
16311W        W33835   0.233  17.439   4.729 -0.0422 -0.0342  0.0088
16312W        W33836  14.982  14.200   2.071 -0.2391  0.0557 -0.3141
16313W        W33837  17.819  16.655  12.716  0.1009  0.0207 -0.2341
16314W        W33838  14.023  13.304   2.715 -0.0913 -0.0138 -0.0235
16315W        W33839   3.799   3.292  14.412  0.0116 -0.2481 -0.2873
16316W        W33840   1.777   8.047   2.610 -0.0408 -0.1827 -0.0580
16317W        W33841   7.211   3.476  12.270  0.3028  0.3126 -0.0693
16318W        W33842   8.384   2.643   0.796  0.0695 -0.0497  0.1956
16319W        W33843  11.225  16.047   3.550 -0.2743  0.0786  0.0002
16320W        W33844  16.617   2.159   3.503  0.2709  0.1218 -0.0709
16321W        W33845   9.086   3.771   1.695  0.0458  0.1116  0.1818
16322W        W33846   8.806   4.398   3.948 -0.1179  0.0349  0.1846
16323W        W33847   7.628  15.862   0.877 -0.1800  0.1867 -0.1382
16324W        W33848   2.465  11.124   2.730 -0.0357 -0.2977  0.2168
16325W        W33849   2.101   2.769   1.319 -0.2222  0.2873  0.0640
16326W        W33850   4.963  10.861  13.056 -0.0929  0.0761 -0.2834
16327W        W33851  15.385   2.577   3.938 -0.0515  0.1480  0.0388
16328W        W33852  12.566  12.669   5.242  0.2713 -0.0662 -0.2222
16329W        W33853   2.506  16.248   0.742 -0.1423  0.1271 -0.3301
16330W        W33854  15.243  18.120   5.713  0.0136 -0.3487  0.2273
16331W        W33855   1.901  12.214  11.105 -0.0256 -0.0149 -0.1911
16332W        W33856   5.344   2.724   3.485 -0.1685 -0.2406 -0.2678
16333W        W33857   9.149   2.053   0.952 -0.4393 -0.1410  0.3752
16334W        W33858   2.637   6.815  13.716  0.0766  0.3874 -0.0838
16335W        W33859   9.868   4.788  14.368 -0.1318 -0.3170 -0.0651
16336W        W33860   7.899   2.570   5.039  0.0446  0.2188 -0.0355
16337W        W33861  18.011   1.250  13.081  0.2133  0.0641  0.0386
16338W        W33862   8.233   6.370   3.565  0.2715  0.0322  0.1146
16339W        W33863   1.281  14.655   3.438 -0.0593  0.3105  0.2719
16340W        W33864  14.248  11.918  12.838  0.0086  0.3862 -0.1903
16341W        W33865  10.368   8.923  14.327 -0.0179 -0.3859 -0.0210
16342W        W33866   7.802  12.984  13.401  0.1129  0.0556  0.3021
16343W        W33867  16.744  11.724  11.377  0.1474  0.1714  0.1409
16344W        W33868  12.738   8.851   6.021 -0.0541  0.0391 -0.0159
16345W        W33869  12.713  14.241  11.190  0.1543  0.0955  0.1414
16346W        W33870   5.108  10.478   2.182  0.1281 -0.0072 -0.1614
16347W        W33871  11.470  13.159   0.467 -0.1589 -0.0262 -0.1861
16348W        W33872   0.565  14.961  11.108  0.2168  0.2113 -0.0366
16349W        W33873  10.255   5.840  10.990  0.1052  0.1690  0.0288
16350W        W33874   5.831  17.625  15.296  0.2042  0.0966  0.1457
16351W        W33875   2.840  15.346   3.606 -0.1168  0.0081 -0.0973
16352W        W33876  10.039  17.560   1.801  0.2555  0.2133 -0.0047
16353W        W33877  13.375   2.918   2.194  0.1350 -0.0027  0.1136
16354W        W33878   0.048   0.453   2.324 -0.2945 -0.1740 -0.1236
16355W        W33879   6.314  13.417   0.547 -0.0864 -0.0552 -0.0349
16356W        W33880  15.563  15.231   4.740  0.0517  0.0527  0.1252
16357W        W33881  12.596  13.344  15.423  0.2752 -0.1205 -0.0221
16358W        W33882   3.129  11.809  13.258 -0.1437 -0.1808 -0.0930
16359W        W33883   8.636  16.061   3.496  0.1992 -0.0662 -0.0065
16360W        W33884   6.471   5.256   2.033  0.0284  0.0687  0.1474
16361W        W33885  14.008  17.162   4.782  0.3217  0.0261 -0.1081
16362W        W33886  16.751   3.887  13.450  0.1974 -0.2159  0.0462
16363W        W33887  10.809  13.088   3.329 -0.0353  0.0469  0.0275
16364W        W33888   5.959   4.102  11.410 -0.2649  0.5029 -0.0799
16365W        W33889   9.762   4.553   0.237  0.3079 -0.1182  0.0847
16366W        W33890  15.668  14.605  11.815  0.1265 -0.3587  0.1293
16367W        W33891  14.008   2.382  13.778 -0.0500  0.1616  0.0110
16368W        W33892   8.674  13.735  13.330  0.1526 -0.0139 -0.4001
16369W        W33893  14.441   3.844  15.255 -0.3724  0.0600  0.1873
16370W        W33894   2.790  14.956  14.160  0.1308 -0.0398  0.0227
16371W        W33895  13.068  16.777  14.984 -0.0650 -0.0769 -0.1611
16372W        W33896   7.316  16.534  14.379 -0.2641 -0.2888 -0.0095
16373W        W33897   0.439  13.596   3.201  0.1252  0.3047 -0.0594
16374W        W33898   7.863  10.975  14.570 -0.2335 -0.0775  0.0816
16375W        W33899  13.574   8.724  11.718  0.2237 -0.3214  0.2570
16376W        W33900   3.792   9.250  13.717  0.0387  0.0350 -0.1805
16377W        W33901   8.945  13.461   4.821  0.3075 -0.0083  0.0649
16378W        W33902   9.101  12.138  14.130  0.0034 -0.1958  0.2420
16379W        W33903   2.074   8.083   4.691  0.0350 -0.1128  0.0323
16380W        W33904  14.986  10.786  11.609 -0.2058  0.2002  0.0428
16381W        W33905  10.801   9.497   3.305 -0.0334  0.0673  0.2762
16382W        W33906   2.190  12.685  15.525 -0.1281 -0.0333  0.2657
16383W        W33907   4.968   3.429  12.699 -0.1117 -0.1555 -0.3369
16384W        W33908  14.117  12.718   3.783 -0.0403 -0.1542  0.0508
16385W        W33909   1.008  12.155   1.979  0.0050  0.0305  0.2517
16386W        W33910   6.550  15.558  12.608 -0.0239  0.2972 -0.2587
16387W        W33911  10.858   3.000  14.707 -0.0288  0.2833 -0.0120
16388W        W33912   2.647   0.812  14.723  0.0722 -0.1450  0.1330
16389W        W33913  17.875  12.429  15.393  0.1600  0.0833 -0.2683
16390W        W33914   1.822   9.610   1.877  0.4253  0.1207 -0.2248
16391W        W33915   9.376  15.468  14.916  0.1213 -0.1323 -0.2145
16392W        W33916  15.925   9.007   0.925  0.0663  0.2014 -0.1441
16393W        W33917   6.546   9.163   1.743  0.0257  0.4219 -0.0153
16394W        W33918   7.252   3.237   3.011  0.1041 -0.0730  0.0377
16395W        W33919  15.109   8.051  15.280 -0.0421 -0.3255 -0.0971
16396W        W33920  18.045   6.437   0.301 -0.0912  0.0478  0.1181
16397W        W33921  15.790  15.115  13.621  0.2851  0.1354  0.1251
16398W        W33922  16.331   4.230   4.304  0.2692 -0.1112  0.4319
16399W        W33923  10.386   1.623  12.022  0.0693 -0.2082  0.0781
16400W        W33924   1.191  13.040   4.469 -0.1074  0.0484  0.1618
16401W        W33925   6.901   8.631   4.409  0.0502 -0.0678 -0.0540
16402W        W33926   4.076  11.335  15.802 -0.0570  0.0618 -0.0942
16403W        W33927   8.444   1.179   3.630 -0.1915 -0.1054 -0.0019
16404W        W33928   5.489   0.272  12.517  0.1616  0.0085  0.1304
16405W        W33929   3.779  15.848  13.979 -0.2337 -0.1273  0.1500
16406W        W33930   9.480   1.830  15.246 -0.0837  0.2295  0.3799
16407W        W33931   6.879  10.040  11.523 -0.2197 -0.0262  0.1633
16408W        W33932  13.393  16.147  14.385  0.0845 -0.2607 -0.0569
16409W        W33933   2.811   9.797   5.351  0.4084 -0.0753 -0.4393
16410W        W33934  11.933   8.530  14.070 -0.1388 -0.2167  0.0534
16411W        W33935  16.462   3.521   2.121 -0.4251  0.1102  0.0294
16412W        W33936  13.523   3.622  15.024  0.2516 -0.0227 -0.1177
16413W        W33937  15.290   4.122   2.041 -0.1584 -0.0143  0.0911
16414W        W33938  11.627   8.379   3.964 -0.0810 -0.1208  0.1043
16415W        W33939  11.377  13.175   2.615  0.1151  0.3229  0.1187
16416W        W33940  14.739   2.818   3.932 -0.1190 -0.1101 -0.0841
16417W        W33941   9.803  15.847  14.754 -0.2055 -0.0629 -0.4111
16418W        W33942   2.013   7.783   0.693 -0.1607  0.0508 -0.2125
16419W        W33943  14.714  13.667  14.612 -0.3602 -0.0945  0.3070
16420W        W33944   3.962  10.748  12.921 -0.1200  0.0804 -0.3597
16421W        W33945   1.232   3.466  13.348 -0.1972 -0.0952  0.0500
16422W        W33946  18.005  16.924   1.509 -0.3373  0.0715  0.2382
16423W        W33947   5.560  11.442   5.073 -0.2211  0.1112  0.0756
16424W        W33948  14.376   2.283  15.197 -0.2357 -0.1387  0.2315
16425W        W33949  17.975  14.616  13.107  0.0259  0.0678 -0.2587
16426W        W33950   7.112  15.711   4.304 -0.0161  0.1190 -0.3947
16427W        W33951   4.762   6.494  13.238  0.2682  0.0375 -0.2251
16428W        W33952  10.040  16.004  13.581 -0.0994  0.1237 -0.1016
16429W        W33953   7.945  13.851  15.382 -0.5182  0.0146  0.1166
16430W        W33954   0.762   7.007  13.397 -0.1396 -0.1831 -0.0343
16431W        W33955   1.989  14.396   2.414  0.1947 -0.0313  0.1109
16432W        W33956  14.516   9.468   0.834  0.2771 -0.0065  0.1534
16433W        W33957   1.630  15.885  15.498  0.0612  0.3754 -0.1037
16434W        W33958  13.335  16.218   3.573  0.2960 -0.3317 -0.0760
16435W        W33959   2.495   7.298  15.490  0.1340  0.0929 -0.0957
16436W        W33960   1.221  13.585  15.523 -0.2209  0.2265  0.1050
16437W        W33961   3.763   7.570   5.038  0.0237  0.1422 -0.0040
16438W        W33962  11.792  16.582  14.873 -0.0958 -0.0877 -0.3500
16439W        W33963  16.592  12.860   1.476 -0.0071 -0.3169 -0.1408
16440W        W33964   5.438   1.340  11.386  0.1269  0.1007 -0.2479
16441W        W33965  14.655   0.316   0.153 -0.1093 -0.0482 -0.1336
16442W        W33966   1.556  15.791  16.059  0.1562  0.4218 -0.0014
16443W        W33967   4.819   4.602   5.682 -0.1093 -0.1232 -0.0365
16444W        W33968   4.254   8.995  15.045  0.0306  0.1525 -0.1718
16445W        W33969   3.652   4.378  15.561 -0.0692 -0.1310 -0.1515
16446W        W33970  11.897   7.318   5.056 -0.1099  0.3377 -0.0465
16447W        W33971  16.974  13.869   1.574  0.3037 -0.0030 -0.2070
16448W        W33972   7.750   6.091   2.737  0.2025 -0.2012  0.2469
16449W        W33973  13.460   5.612   5.085  0.1108 -0.1941 -0.0957
16450W        W33974   5.505  16.499   0.569  0.1996 -0.1847 -0.0644
16451W        W33975  12.211   6.573  15.980 -0.0167  0.1899 -0.2762
16452W        W33976   0.817   8.678  13.035  0.1799  0.0968  0.2628
16453W        W33977  11.567   4.623   2.420 -0.0686  0.1246  0.0891
16454W        W33978   5.619  12.861  10.295  0.2343  0.4194  0.0282
16455W        W33979  15.640   6.759  11.876 -0.2188 -0.4645 -0.3217
16456W        W33980   8.509   4.748   3.274  0.0334  0.0121  0.0060
16457W        W33981   3.833   9.020   1.143  0.1958 -0.2593 -0.0916
16458W        W33982  13.441   7.241   3.550 -0.1948  0.2187 -0.1417
16459W        W33983   8.210   3.194   4.856 -0.1327 -0.0609  0.0985
16460W        W33984   3.852   0.649   2.916 -0.0864  0.0233  0.1994
16461W        W33985  12.120   0.456   0.187 -0.0195 -0.1187  0.1121
16462W        W33986   6.659   7.367   3.296  0.0011  0.0447 -0.4673
16463W        W33987   0.260   4.706   1.492 -0.0548 -0.1083 -0.0945
16464W        W33988  12.426  11.195  14.750 -0.0120 -0.0610  0.1262
16465W        W33989  10.301   9.584   4.361 -0.0337 -0.0031 -0.0649
16466W        W33990   8.806  14.640   0.321  0.0032 -0.0367 -0.2281
16467W        W33991   4.936   3.049   4.964  0.2006 -0.1846  0.1340
16468W        W33992  16.406  15.024  14.211 -0.3820 -0.0293 -0.3050
16469W        W33993  10.250  12.095   0.395  0.0457 -0.1716 -0.2348
16470W        W33994  11.293   2.464   3.096  0.0387  0.0034  0.0315
16471W        W33995   4.707  10.776  12.645 -0.3921 -0.3796  0.1029
16472W        W33996   1.272   8.747   3.510  0.0380  0.1885 -0.2430
16473W        W33997  17.728   1.933   2.432  0.1270  0.0473  0.0400
16474W        W33998  16.328   8.912  10.533  0.2142 -0.0854 -0.0924
16475W        W33999  15.845   7.589   2.144 -0.0127 -0.1015  0.2555
16476W        W34000  14.033   7.023   0.900  0.1077  0.1089  0.0694
16477W        W34001  10.253   5.561   1.273 -0.0162 -0.1222 -0.2907
16478W        W34002  17.130   1.342  12.464  0.1536  0.1215  0.1338
16479W        W34003  16.645   0.511  12.808  0.0891  0.0347 -0.0868
16480W        W34004   4.325   9.826   4.619 -0.0364 -0.4671 -0.0782
16481W        W34005   9.483  18.157  13.665 -0.2478 -0.1904  0.0732
16482W        W34006   2.164  15.179   0.398  0.1616  0.1090 -0.0313
16483W        W34007  13.505  12.253  12.505 -0.2548 -0.1273 -0.1262
16484W        W34008   0.589   2.628   0.046 -0.1615 -0.0787 -0.0394
16485W        W34009  15.147   8.241  12.548 -0.0684  0.0531  0.2205
16486W        W34010   7.406   0.406   4.360 -0.2010 -0.0054  0.1779
16487W        W34011  14.654  11.670   3.177 -0.1780  0.0054 -0.0929
16488W        W34012  13.405   4.534   2.997  0.3049 -0.1308 -0.1473
16489W        W34013   9.368   9.377  12.623  0.1896 -0.0663 -0.0343
16490W        W34014   4.109  10.135  14.368  0.1369  0.0847  0.2477
16491W        W34015   3.341   7.419  11.268 -0.0124  0.0258 -0.5402
16492W        W34016   0.156  14.945  11.433  0.2573 -0.2120  0.2695
16493W        W34017   3.529  18.046  10.759 -0.0757  0.2641  0.1196
16494W        W34018   3.347  17.165   4.432  0.1514  0.2707  0.2334
16495W        W34019   9.545  10.133   4.413  0.3560 -0.0145 -0.0996
16496W        W34020  11.835   0.732  11.554 -0.2343 -0.1898 -0.0658
16497W        W34021  17.106  15.573  12.008 -0.0109  0.3203  0.0491
16498W        W34022   8.849   7.432  13.161 -0.1476 -0.0764 -0.2049
16499W        W34023  10.847  13.908   1.569 -0.0103  0.0934 -0.1086
16500W        W34024   8.750  17.705  11.361  0.0779  0.0505  0.0086
16501W        W34025  14.328  15.842   1.490  0.0958 -0.2305 -0.0741
16502W        W34026  14.228   0.913   0.494 -0.0978 -0.2569 -0.0347
16503W        W34027  12.112   4.889  10.764  0.0176 -0.1340  0.2546
16504W        W34028  16.225  11.352   4.620 -0.1802  0.1478  0.3655
16505W        W34029  13.199  13.665  15.886 -0.1624 -0.1689 -0.1781
16506W        W34030  16.539  17.111  11.072 -0.2145  0.0504 -0.0760
16507W        W34031  16.853  17.524  14.009 -0.3065  0.0034 -0.1663
16508W        W34032   4.935   3.102   2.161 -0.1911 -0.1009 -0.0934
16509W        W34033  16.871  12.289   2.704  0.1623 -0.0342  0.2471
16510W        W34034  11.154   4.693   1.029  0.1317  0.0367 -0.2995
16511W        W34035   4.060   2.353  13.132 -0.2992 -0.0754 -0.1312
16512W        W34036   3.262  16.161   0.583  0.1191 -0.1091  0.1332
16513W        W34037   5.522   9.795   1.206  0.0268 -0.2064  0.3498
16514W        W34038  13.108  12.018   5.209 -0.0938 -0.0290 -0.0180
16515W        W34039  10.191   2.231   4.728 -0.0659  0.2703  0.1267
16516W        W34040  14.362  11.171   3.165 -0.0722  0.0306  0.1519
16517W        W34041  13.868  12.114  14.297 -0.1475 -0.0187 -0.0892
16518W        W34042   2.746   6.567  11.403  0.2378  0.0792 -0.0834
16519W        W34043   2.792  15.003  11.887  0.3662  0.4415 -0.0664
16520W        W34044  14.510   2.021  11.594  0.1989 -0.0542 -0.0149
16521W        W34045  16.835  18.185  11.895 -0.2078 -0.1378 -0.3858
16522W        W34046  12.286  11.387  14.292 -0.1951  0.0182 -0.1862
16523W        W34047   4.671   5.619   2.269 -0.1484 -0.2295  0.0746
16524W        W34048  13.488   2.250  13.689 -0.0713  0.0316 -0.1916
16525W        W34049  13.070   2.183  13.493 -0.1289 -0.2083  0.2444
16526W        W34050  10.825   4.697  11.307 -0.0921 -0.3359  0.1339
16527W        W34051   9.636  10.910  11.031 -0.0298 -0.0733  0.1159
16528W        W34052  12.521  11.669   0.066  0.1031  0.0775  0.0119
16529W        W34053   3.202   0.475  15.405  0.0057  0.2678 -0.0762
16530W        W34054  13.660   8.497   0.109 -0.3286 -0.1540  0.2392
16531W        W34055  16.293   4.374   4.940 -0.0381 -0.2323 -0.1112
16532W        W34056  11.716  16.701   0.800  0.1478  0.1254  0.2541
16533W        W34057   7.345  10.558  13.804 -0.1531 -0.0130  0.0951
16534W        W34058  13.626  15.369   0.948  0.0663  0.1616  0.0891
16535W        W34059  10.532   9.006  11.722 -0.1389  0.3732 -0.0811
16536W        W34060   0.144   3.471   3.345 -0.0953 -0.1637  0.0342
16537W        W34061   7.895  12.530  13.685  0.0001 -0.1981 -0.1312
16538W        W34062   9.466  17.596   1.626  0.1063 -0.3071  0.0351
16539W        W34063  16.541   5.152  13.769  0.1769 -0.3427 -0.0308
16540W        W34064  18.144   1.130  12.451  0.1727 -0.0860 -0.1964
16541W        W34065  10.039  14.410  15.537  0.0054  0.1993  0.0525
16542W        W34066   5.036  10.633  14.836 -0.1972  0.2106 -0.2096
16543W        W34067   7.407   5.104  15.971 -0.2221  0.1608  0.2005
16544W        W34068   3.124   9.322   4.131  0.0945  0.0104 -0.1489
16545W        W34069  16.182   9.239   0.045  0.1202 -0.0420  0.1678
16546W        W34070  13.302   2.849  14.381 -0.1184  0.0900  0.0491
16547W        W34071  12.304  10.431  12.255  0.2365 -0.0977 -0.1657
16548W        W34072   8.351   0.558  12.313  0.0539  0.0417 -0.0058
16549W        W34073   4.516  13.331  12.003  0.1031 -0.1387  0.0715
16550W        W34074  12.760   9.810   3.583  0.5110  0.2916  0.1294
16551W        W34075  14.191   5.166  13.234  0.3116 -0.0618  0.1781
16552W        W34076  12.398   3.757   0.312 -0.3512  0.3191 -0.0034
16553W        W34077  15.712  17.475   0.864 -0.0982  0.2306 -0.0782
16554W        W34078   6.679  12.947   0.053  0.1877  0.0543 -0.0715
16555W        W34079   3.139  17.201   0.465 -0.1043  0.3614  0.0817
16556W        W34080   1.298   6.659  11.566 -0.1997 -0.1667  0.2898
16557W        W34081  12.496  15.113   2.451  0.2019 -0.0662  0.1756
16558W        W34082  13.008   6.598  13.857 -0.3243 -0.0965 -0.1366
16559W        W34083   9.046   9.131  15.097  0.0241  0.3888  0.2155
16560W        W34084   5.565   6.313   4.411  0.0509 -0.0168  0.2880
16561W        W34085   3.665  11.981  11.548 -0.1109 -0.4371 -0.4501
16562W        W34086   3.462  12.090   3.956 -0.2031  0.3505  0.0428
16563W        W34087  17.887  16.244   0.789 -0.4290  0.0461  0.0439
16564W        W34088   3.938   7.553  15.287  0.0876  0.1964  0.0225
16565W        W34089  10.741   2.517  12.617 -0.1106  0.1060 -0.1354
16566W        W34090   7.330  11.045  13.616 -0.1654  0.0966 -0.4535
16567W        W34091   7.197   6.954  15.600 -0.0092  0.0454  0.0523
16568W        W34092   9.550  10.577   4.010  0.2677  0.0820  0.3437
16569W        W34093  17.305  17.588   1.654  0.0206  0.2283  0.1730
16570W        W34094  10.865  10.995  14.679 -0.0048  0.1168  0.1206
16571W        W34095   0.142  10.523  15.188 -0.0036  0.1108 -0.1228
16572W        W34096   0.775   1.217  12.302  0.1361 -0.2920 -0.0825
16573W        W34097   1.080   3.082  10.990 -0.0357 -0.0693  0.0326
16574W        W34098   9.298   9.509   3.735  0.1418 -0.0448  0.1069
16575W        W34099  12.315  10.723  13.593 -0.2183  0.0621 -0.1486
16576W        W34100   9.336  18.017  14.958 -0.1048  0.0137 -0.0461
16577W        W34101   5.016  15.583   1.632  0.2827 -0.0109  0.0624
16578W        W34102  13.503   1.452   1.148  0.1622 -0.0494  0.0707
16579W        W34103   2.579   6.787  12.912  0.4068  0.4209 -0.1260
16580W        W34104   4.267  12.063   1.650  0.0718 -0.0736 -0.0072
16581W        W34105  14.619  12.989   4.720 -0.1447 -0.1188  0.3103
16582W        W34106   3.205  11.646   0.104  0.2411 -0.2837  0.1704
16583W        W34107   5.842   8.559  15.572 -0.0347  0.0633 -0.1262
16584W        W34108  15.663  16.989   4.545 -0.2812 -0.2228  0.1733
16585W        W34109  10.585  15.895   2.391 -0.0504 -0.1796  0.0286
16586W        W34110   2.025  15.476   4.266  0.2000 -0.2765  0.1305
16587W        W34111   7.714   0.237  11.905  0.0363  0.3039  0.0069
16588W        W34112  10.671   0.163   0.848 -0.1008 -0.0696 -0.1235
16589W        W34113   0.226  10.637   5.310  0.2926  0.2137  0.1178
16590W        W34114   6.131  11.117  15.929  0.0169  0.0472  0.0740
16591W        W34115   7.878   2.825  15.521 -0.1654 -0.1295 -0.4073
16592W        W34116   9.453   7.554   3.071 -0.1491  0.2090  0.0172
16593W        W34117   5.003  17.156  13.861 -0.0736  0.2787 -0.0503
16594W        W34118   2.479  18.078   3.728 -0.2232  0.2558 -0.1798
16595W        W34119  15.841   4.596   2.602 -0.2203 -0.2918 -0.2264
16596W        W34120  10.160  16.790  14.343 -0.2200  0.2495  0.0362
16597W        W34121  13.084  15.830  14.678  0.0245 -0.0300  0.0709
16598W        W34122  15.198   6.221   4.577  0.1363  0.0534  0.1854
16599W        W34123   8.113  16.674   4.155  0.0979  0.0739  0.1236
16600W        W34124  14.106   7.312   1.804 -0.1141 -0.2326  0.0662
16601W        W34125  15.609   5.506  14.376  0.1493  0.0093 -0.1466
16602W        W34126   7.731   3.011   4.748  0.0353  0.0001  0.3234
16603W        W34127  10.158  15.642  15.088 -0.1147  0.0849  0.2289
16604W        W34128  14.083   0.511  12.310  0.5390  0.3449 -0.3123
16605W        W34129  12.797  12.358   4.457 -0.0810 -0.2990  0.4213
16606W        W34130   1.985   3.869  12.577  0.5599 -0.0936  0.4284
16607W        W34131  16.335  10.095  11.740  0.0475  0.1729 -0.2039
16608W        W34132   7.490  16.146   0.251  0.0952 -0.1247  0.0424
16609W        W34133   6.532   3.612   4.562 -0.2865 -0.0151 -0.0195
16610W        W34134  15.007   9.678   2.008  0.3594  0.0719 -0.4064
16611W        W34135   0.614   8.710  13.904  0.1923 -0.1786  0.4242
16612W        W34136   1.211   9.896   0.311  0.4880  0.2531  0.1113
16613W        W34137   7.078   6.367   5.513  0.2368  0.3697 -0.1708
16614W        W34138  16.441   5.873   0.441  0.2433 -0.0154 -0.0651
16615W        W34139   8.397   6.874   3.570  0.3488 -0.0195 -0.0597
16616W        W34140   6.147   8.238   5.234 -0.0650  0.1790 -0.1917
16617W        W34141  13.454   9.791  13.211 -0.3694  0.0039  0.0848
16618W        W34142   8.525   5.391  14.668  0.0241 -0.2955  0.0457
16619W        W34143   1.098  17.104   2.243 -0.2031 -0.4413 -0.0448
16620W        W34144   2.380  13.038   1.761 -0.0715 -0.0793 -0.0618
16621W        W34145   0.620  17.724  12.420  0.1981 -0.4763  0.0536
16622W        W34146   2.433   4.428  14.602  0.1284 -0.0670 -0.2882
16623W        W34147  12.328   3.266   1.975 -0.1127 -0.1820 -0.0834
16624W        W34148  15.461  11.907   1.374 -0.0502 -0.0128 -0.0104
16625W        W34149  12.872   5.694   4.297 -0.0016 -0.4754 -0.0628
16626W        W34150  13.633   0.242  14.750  0.3452 -0.1311 -0.2017
16627W        W34151   6.415   8.818   3.612 -0.0891 -0.0274 -0.3802
16628W        W34152   4.830  17.785  14.383 -0.0028  0.1152 -0.5060
16629W        W34153   4.707   4.194  13.878 -0.0335 -0.1354  0.3236
16630W        W34154   0.552  14.230   3.777  0.0046 -0.0471 -0.0858
16631W        W34155   5.704   3.115  15.673 -0.2496  0.3361  0.0653
16632W        W34156   0.260  10.655   2.410  0.0662 -0.0411 -0.1293
16633W        W34157  14.822  13.153   2.891 -0.0244  0.0066  0.1624
16634W        W34158  16.194  15.947  14.142 -0.0717 -0.3258 -0.1539
16635W        W34159   4.896  13.041  12.142  0.1685  0.0653 -0.1325
16636W        W34160  13.825  14.387  13.688 -0.1076 -0.0150  0.1529
16637W        W34161  14.755   5.769   3.594  0.3751  0.0115 -0.0147
16638W        W34162  10.864  14.195  13.785 -0.1901 -0.0524 -0.1972
16639W        W34163   9.498  12.010  13.362 -0.2248  0.0858 -0.0594
16640W        W34164   6.645   2.607  14.953 -0.0999  0.2040 -0.2540
16641W        W34165   9.642  14.668  12.920  0.2326 -0.1175  0.0912
16642W        W34166   0.613   4.501   2.906  0.3928  0.0746 -0.0591
16643W        W34167   5.433  15.736   0.838 -0.0030 -0.2934  0.2921
16644W        W34168   1.349   9.311   1.067  0.0413 -0.1629 -0.0634
16645W        W34169   1.517   9.516   0.178 -0.0215  0.2863 -0.0770
16646W        W34170   8.767  12.691   3.300  0.1418 -0.0988  0.0955
16647W        W34171   4.747   8.854  14.078 -0.0812  0.0116 -0.3100
16648W        W34172   1.865   5.139  15.165 -0.0273  0.1505  0.2175
16649W        W34173   5.808  11.843  14.156 -0.1697  0.1388 -0.0181
16650W        W34174   7.666   5.962   3.392 -0.2487  0.1443 -0.0350
16651W        W34175   0.062  13.197   1.621 -0.0926  0.2252  0.1909
16652W        W34176   1.800  14.360   2.931  0.1103  0.1806  0.3385
16653W        W34177   9.484   4.172  13.779 -0.3826  0.0034 -0.1121
16654W        W34178   9.354   7.210  10.878  0.1788  0.0053  0.2748
16655W        W34179   1.539   6.499  14.556 -0.1341  0.0322 -0.1201
16656W        W34180   2.137   5.231  14.712  0.0741  0.0946  0.0059
16657W        W34181   3.712   1.591   2.724 -0.3168  0.1020  0.0512
16658W        W34182   7.334   6.241   3.006 -0.0269 -0.0037  0.0392
16659W        W34183  14.247   7.795   0.575 -0.2392  0.2710  0.1186
16660W        W34184  13.599   7.771  14.355  0.0023  0.1198  0.0623
16661W        W34185   8.925   9.893  15.222  0.0641  0.0928 -0.0663
16662W        W34186  15.552  16.670   1.190  0.0428  0.1065  0.2680
16663W        W34187  18.036   8.504  12.843 -0.2913  0.3160 -0.0813
16664W        W34188  12.878   7.393  15.186  0.1638 -0.1190  0.1092
16665W        W34189  17.635   0.155  12.172 -0.2799  0.0755  0.0326
16666W        W34190  14.971   8.854  11.623 -0.0865  0.0418 -0.2533
16667W        W34191   1.497   4.095  13.583 -0.0695  0.0048 -0.3782
16668W        W34192   4.173   4.978  14.792  0.2511  0.0080 -0.1772
16669W        W34193  11.021   7.682   3.846  0.0851  0.3796  0.0216
16670W        W34194  14.336  10.357  13.665  0.0827 -0.3077  0.0021
16671W        W34195   1.725   6.995  12.441 -0.1549  0.0335 -0.0513
16672W        W34196  13.366  16.516  14.713 -0.1709 -0.0802 -0.0795
16673W        W34197   2.378  17.959  10.679  0.1429  0.2170 -0.0343
16674W        W34198  15.193   6.952  14.915  0.1264 -0.1669  0.0773
16675W        W34199  13.046   5.553   4.769 -0.2921  0.2588  0.2891
16676W        W34200   9.003  10.698  14.288  0.1214  0.1165  0.0671
16677W        W34201  15.385   7.964  12.108 -0.3525  0.0561  0.2061
16678W        W34202   9.373   5.456   1.461  0.0642  0.0157  0.1164
16679W        W34203  11.195  14.284   2.804  0.0617 -0.2385 -0.0856
16680W        W34204   6.122   8.084  11.929 -0.0183 -0.1404  0.1318
16681W        W34205  14.542   6.687  14.542 -0.1104  0.1265 -0.0917
16682W        W34206  11.083   0.359   2.302  0.0914  0.3819  0.0705
16683W        W34207  11.032   3.514   0.690  0.0609  0.3077  0.2162
16684W        W34208   6.329  13.064   4.539 -0.2413  0.0473 -0.1433
16685W        W34209  10.313   6.475   1.120  0.3937  0.1166 -0.1385
16686W        W34210  16.424   9.843   5.982  0.0227 -0.0870 -0.1850
16687W        W34211  10.247   9.157   4.060  0.0165  0.1603  0.1485
16688W        W34212   4.578   5.727   5.673  0.1310 -0.1217  0.0852
16689W        W34213  15.108  15.836   3.802 -0.1633 -0.1813  0.1786
16690W        W34214  13.283   4.237  11.165  0.0231 -0.1306 -0.5269
16691W        W34215   8.129  13.401   1.222  0.3334  0.1177 -0.0708
16692W        W34216  15.037   9.373   0.599  0.1433  0.5410 -0.2025
16693W        W34217  11.315  14.395   5.234  0.1955  0.0774  0.0836
16694W        W34218   8.612   1.349   2.794  0.0578  0.3107 -0.0396
16695W        W34219   1.807   1.942   1.364  0.0566  0.0160  0.2373
16696W        W34220   7.810   7.471  11.751  0.0537 -0.2603 -0.0983
16697W        W34221   4.441   1.196   2.832 -0.1995  0.3476  0.0280
16698W        W34222   0.469   7.428  12.119  0.1449 -0.1017 -0.0099
16699W        W34223   0.933  12.057  11.264 -0.0786 -0.2084 -0.4061
16700W        W34224   2.145  10.924   4.658  0.3378 -0.0777  0.0020
16701W        W34225  15.165  10.106   3.926 -0.2028  0.0321  0.3305
16702W        W34226   9.917   8.436  12.809  0.1935  0.0073 -0.3769
16703W        W34227   3.813  13.213  12.489  0.1060  0.0260  0.2863
16704W        W34228   7.289  14.725   4.817  0.4829 -0.1093  0.3784
16705W        W34229   0.124  16.812   2.358  0.0503  0.1784  0.0350
16706W        W34230   0.223   9.017  11.442 -0.1577 -0.0538  0.0365
16707W        W34231   9.870  12.037  12.309 -0.3413 -0.1912 -0.0965
16708W        W34232   2.821   5.521  12.484 -0.1948  0.0162 -0.0337
16709W        W34233   2.163   5.861  11.041 -0.3788  0.2016 -0.1034
16710W        W34234   4.685  15.132   0.778 -0.2056  0.0567 -0.1191
16711W        W34235   6.179   4.463   4.500 -0.1493 -0.2644  0.0202
16712W        W34236  17.040   8.506   0.361  0.0764 -0.4918 -0.0042
16713W        W34237   8.322   7.000   2.637  0.0189 -0.1107  0.1550
16714W        W34238   0.409  15.090  13.502 -0.0841 -0.1526  0.0228
16715W        W34239  11.147   6.261   1.596  0.3339  0.0037 -0.2608
16716W        W34240   1.878   4.441  10.145 -0.1600 -0.2832 -0.1446
16717W        W34241  15.168  18.175   0.781 -0.1378  0.0380 -0.2840
16718W        W34242   3.632   9.706  11.572  0.2626  0.0514 -0.0014
16719W        W34243  11.652   3.405   2.089  0.1133  0.0774  0.1490
16720W        W34244  15.054   0.061   2.799 -0.0489  0.1548 -0.0883
16721W        W34245   2.438   3.011  13.769  0.0409 -0.1324 -0.0957
16722W        W34246  14.123   4.562  12.596 -0.0559  0.0269 -0.1724
16723W        W34247   7.432  17.757   3.091 -0.1195 -0.2972 -0.3156
16724W        W34248   2.267   7.940  14.393  0.0276 -0.0017  0.1186
16725W        W34249  15.371   6.946   0.668  0.4887 -0.1445 -0.0401
16726W        W34250  13.418  16.291   2.561  0.1086 -0.0338 -0.0944
16727W        W34251   6.452   3.526   2.887  0.0066  0.0179  0.2213
16728W        W34252   2.410   4.483  12.312 -0.0138 -0.0628  0.0621
16729W        W34253  10.849  17.010  11.434 -0.2161  0.2159 -0.4436
16730W        W34254   4.406   3.826   4.178  0.0224  0.2668  0.0016
16731W        W34255  13.571   7.315  13.998  0.1758  0.2717 -0.3038
16732W        W34256  12.708  11.127   1.331  0.3354 -0.0043  0.0743
16733W        W34257  15.417   0.556  14.116  0.1864 -0.5210 -0.2768
16734W        W34258   9.520  16.730   3.633 -0.0448  0.0160  0.0992
16735W        W34259  16.155   7.984   2.302  0.1118  0.0882 -0.0990
16736W        W34260  16.584  15.258   0.346  0.0034  0.4591 -0.2822
16737W        W34261   8.248   7.412  14.640 -0.0289  0.2296  0.2726
16738W        W34262   7.986   6.523  15.943 -0.4126  0.0443 -0.2683
16739W        W34263  17.563  14.773  12.712 -0.1820  0.0923  0.1516
16740W        W34264   5.147  14.123  14.476  0.2211 -0.0387 -0.0148
16741W        W34265   4.544  17.891  11.257  0.2056  0.0324 -0.2692
16742W        W34266   4.759  15.841   3.802  0.3283 -0.0133  0.1130
16743W        W34267  10.297  13.905  12.200  0.2851 -0.0253 -0.2394
16744W        W34268   7.998  11.078  13.078  0.3510 -0.2627  0.1445
16745W        W34269  10.026  14.321  14.101 -0.2273  0.0299  0.0908
16746W        W34270   8.312  16.322  12.242 -0.0323  0.2797  0.3608
16747W        W34271  11.252  17.340  14.544  0.4664 -0.3273  0.0069
16748W        W34272  13.530  11.985   0.390  0.3322  0.0724  0.0505
16749W        W34273   7.461  10.284  15.901  0.0939 -0.0715 -0.0814
16750W        W34274   9.459   7.662  14.264 -0.1378  0.0562 -0.2579
16751W        W34275  15.700   9.145   1.384 -0.2058  0.1419 -0.1265
16752W        W34276  14.655   7.348   5.244  0.1112 -0.0010 -0.0374
16753W        W34277   4.866  12.609   2.274  0.0279 -0.0541 -0.1162
16754W        W34278   8.478   9.715  14.573  0.0502  0.3092 -0.0087
16755W        W34279   7.021  11.496   3.806  0.1090 -0.0797  0.3417
16756W        W34280  11.967   4.296  15.794  0.0491 -0.2450 -0.1793
16757W        W34281  17.372   7.593  10.863  0.0628  0.3208 -0.1688
16758W        W34282  12.943  17.442  12.132  0.0061  0.3878 -0.1474
16759W        W34283  14.721   2.003   4.271 -0.0142  0.0054  0.4918
16760W        W34284   9.915   3.243   2.055 -0.3262  0.1431  0.2317
16761W        W34285  17.594  17.616   5.197 -0.0255 -0.0794  0.0161
16762W        W34286   1.957   1.372   4.839  0.2195  0.4398  0.1040
16763W        W34287  13.219   4.308  13.761 -0.0317 -0.0749  0.0626
16764W        W34288  16.366  15.527   3.263  0.1490  0.0903  0.2716
16765W        W34289   8.498  15.700  14.753  0.1987  0.0694  0.4428
16766W        W34290  12.206  12.627  15.895  0.0030 -0.0720 -0.3714
16767W        W34291   7.415  10.115  11.359 -0.0725 -0.2675  0.0268
16768W        W34292  16.548  11.669   3.161  0.1168 -0.0997 -0.1309
16769W        W34293   7.625   4.109  10.450 -0.2536 -0.0641  0.1963
16770W        W34294   1.856  17.764   2.427  0.0332 -0.0161 -0.2673
16771W        W34295   6.310  12.339  14.606  0.0838 -0.2255  0.1013
16772W        W34296   1.574  11.758  13.193 -0.1013  0.2981 -0.1296
16773W        W34297   5.357  12.543   2.712 -0.0710 -0.0067  0.3164
16774W        W34298   0.026  17.723  13.084 -0.0424  0.3025  0.0530
16775W        W34299  12.434   8.719   5.333  0.0555  0.4200 -0.0668
16776W        W34300   6.329  14.619   4.780 -0.0575  0.0047 -0.0911
16777W        W34301  17.424  16.904   4.273 -0.1165  0.0497 -0.1244
16778W        W34302  16.623   2.153  15.446 -0.0439 -0.1138 -0.1905
16779W        W34303  10.439  16.287   1.122  0.0964  0.0431  0.0586
16780W        W34304   6.306  16.132   4.422 -0.2214 -0.0767 -0.1289
16781W        W34305  10.247   9.303   2.617  0.2164  0.2797  0.3882
16782W        W34306  10.816  18.072   4.763 -0.1622  0.0478 -0.1319
16783W        W34307  17.369  16.425  12.898  0.1122  0.0406 -0.3264
16784W        W34308   8.914   6.697  15.152  0.3489  0.1659  0.1654
16785W        W34309   8.658   5.259  12.741  0.3224 -0.2972 -0.2125
16786W        W34310  12.606  17.516  15.029 -0.0138  0.2891 -0.1093
16787W        W34311  17.771  15.601   4.526  0.1734  0.2645 -0.1416
16788W        W34312  11.374  13.376  12.316  0.2135  0.3388  0.0444
16789W        W34313  10.896   8.758  11.476  0.0753  0.1320 -0.0173
16790W        W34314   5.493  11.919   1.852 -0.1979 -0.0210  0.0498
16791W        W34315   1.815   6.511  15.393 -0.0885  0.0774 -0.1038
16792W        W34316   6.317   5.655   4.714 -0.0672 -0.0431 -0.3279
16793W        W34317  10.229  12.204   5.234  0.0678 -0.1605 -0.0653
16794W        W34318  11.488   7.867  15.283  0.2497  0.0923  0.0570
16795W        W34319  10.226   3.806   3.182  0.0646  0.0297 -0.1853
16796W        W34320  15.787   7.165  13.773 -0.1173  0.1913  0.1563
16797W        W34321   0.930  17.496   2.640 -0.2983  0.1381 -0.1923
16798W        W34322   5.489  17.182   1.791  0.1817 -0.1442  0.2648
16799W        W34323   2.576   6.725   3.910 -0.0284 -0.0667  0.1010
16800W        W34324   1.970   0.814   2.960 -0.0854 -0.0034  0.0333
16801W        W34325  14.746  14.855  14.786 -0.3190 -0.2677  0.1537
16802W        W34326  10.392   5.152  11.578  0.0227 -0.0074 -0.0757
16803W        W34327  14.190  10.958   4.919  0.3040 -0.2587  0.1357
16804W        W34328  10.038   1.138  13.626  0.0442  0.0294  0.1456
16805W        W34329   0.782   7.578   2.027 -0.0964 -0.0128 -0.0471
16806W        W34330  10.398   9.903   5.420  0.0924 -0.2415  0.1368
16807W        W34331   6.708  16.781  13.325 -0.1264 -0.1745 -0.1086
16808W        W34332  16.096   4.340   1.756  0.0044 -0.1636 -0.2062
16809W        W34333   4.438  11.044   0.670 -0.0780  0.2237 -0.0028
16810W        W34334  15.864   0.299   0.329  0.0803 -0.0079 -0.0361
16811W        W34335  15.451   4.025   6.175  0.0981  0.0947 -0.2351
16812W        W34336  11.873   9.233  12.437 -0.3343  0.1791  0.1675
16813W        W34337  15.046  15.309  15.073  0.2625 -0.2995 -0.2086
16814W        W34338   5.750   7.523  11.413  0.1976  0.1466  0.2138
16815W        W34339  14.220   4.403  11.698 -0.0992 -0.0599 -0.3238
16816W        W34340  10.407   2.124  11.768  0.3013 -0.3596  0.0122
16817W        W34341   1.828   3.865  16.068 -0.0084  0.0356  0.1037
16818W        W34342  14.864  13.006  11.589 -0.1673 -0.1449  0.1171
16819W        W34343  17.794  10.939  13.241 -0.2432  0.2043 -0.2217
16820W        W34344   9.691  12.455  12.144  0.1743 -0.3961  0.0386
16821W        W34345  12.397   9.860   1.223  0.1962 -0.0035 -0.1811
16822W        W34346   1.732   7.346   3.576  0.0073  0.2577 -0.0179
16823W        W34347  14.852   2.970  13.159  0.0433  0.1487  0.1971
16824W        W34348   8.704   0.351  11.604 -0.1926 -0.3165 -0.1313
16825W        W34349  10.591   2.683   4.263 -0.1286 -0.1065  0.1502
16826W        W34350  14.166  16.363   0.917 -0.4836  0.2490 -0.2707
16827W        W34351   5.641  16.582  13.543 -0.2017 -0.0669 -0.1140
16828W        W34352  13.304  18.155  13.876 -0.0562 -0.2302  0.0155
16829W        W34353   0.159   8.055  14.233 -0.0591  0.4425  0.0658
16830W        W34354   7.513  14.007  15.147  0.0719 -0.2285 -0.1496
16831W        W34355   5.764   0.121  15.237  0.1150 -0.3026 -0.0999
16832W        W34356  11.167   0.443  14.928 -0.3559 -0.0191 -0.1207
16833W        W34357   4.252  15.034   3.624  0.0166 -0.2585 -0.0017
16834W        W34358   2.730   3.699   1.947  0.1602 -0.0695  0.0670
16835W        W34359   9.042   6.989  13.055  0.0340  0.1041  0.0110
16836W        W34360   4.768   8.115  13.589  0.2289 -0.1077  0.2282
16837W        W34361   5.814  15.401   0.659 -0.1908 -0.1199  0.3649
16838W        W34362   7.740   1.083  14.410 -0.1450  0.3572  0.0703
16839W        W34363   6.131  13.816   2.157 -0.3524 -0.3591 -0.1851
16840W        W34364   9.348  13.128  12.554 -0.4002 -0.0429 -0.1921
16841W        W34365  14.006  17.652   4.907 -0.3032 -0.1040  0.0417
16842W        W34366  17.888   7.783  14.614 -0.2300 -0.0598 -0.1014
16843W        W34367   9.707  11.005  15.438 -0.2524  0.1781 -0.0214
16844W        W34368   4.054   8.508   4.074 -0.0995 -0.1348  0.2270
16845W        W34369  12.897   0.531  13.287  0.2389 -0.1519 -0.0662
16846W        W34370   3.215   4.876  12.242  0.0166  0.0728  0.0043
16847W        W34371  15.489   5.511   0.390  0.2234 -0.0498 -0.2313
16848W        W34372  14.802   9.305  10.868  0.0526  0.2399  0.3041
16849W        W34373   6.484   1.707  14.865 -0.1564  0.4964  0.2522
16850W        W34374  10.358   7.691  15.950 -0.2050  0.0492 -0.2053
16851W        W34375  10.400   7.568  11.626  0.1063  0.0763 -0.2612
16852W        W34376  11.570   0.546  13.582  0.3698 -0.3769  0.1006
16853W        W34377  10.557  17.445  13.891  0.3198  0.1067 -0.2584
16854W        W34378   7.138  12.464   4.444  0.0034  0.0177  0.1230
16855W        W34379   2.830  10.899  11.764  0.1689 -0.1150  0.0161
16856W        W34380   3.539   5.416   2.777 -0.3488 -0.0253 -0.0253
16857W        W34381   4.339   2.951   0.880 -0.0726  0.0763  0.3850
16858W        W34382   8.270  10.903   2.244 -0.2452 -0.0181 -0.0071
16859W        W34383   7.751  14.244  15.701 -0.4711 -0.2045  0.0999
16860W        W34384  13.280   7.563   4.153 -0.1208  0.2960  0.0613
16861W        W34385  17.852   5.921  14.432  0.1047  0.4629 -0.2820
16862W        W34386   0.180  11.815  14.805 -0.2170 -0.4301  0.2668
16863W        W34387   7.336   3.341  14.404 -0.0595 -0.0679 -0.2556
16864W        W34388   0.277   0.953   4.037  0.1713 -0.0011  0.2724
16865W        W34389  14.838   3.542  13.221  0.1357  0.1317  0.0843
16866W        W34390  16.489   0.531   4.163 -0.1043  0.3571 -0.3507
16867W        W34391  11.572  15.006   1.360  0.1877 -0.2541 -0.2716
16868W        W34392  11.664  15.357  15.980  0.0239  0.3923  0.2287
16869W        W34393  16.131   7.212  12.987 -0.1246 -0.0817 -0.0055
16870W        W34394   2.968  10.859   5.167 -0.2108  0.1311  0.2684
16871W        W34395   5.859  16.638   0.931  0.0698  0.0175  0.5108
16872W        W34396   2.249  18.087  15.491 -0.2340  0.2101 -0.0076
16873W        W34397  17.938   7.190   2.494  0.0534  0.0189  0.3499
16874W        W34398   8.814  13.353   2.007 -0.2123 -0.2677  0.3109
16875W        W34399  10.526   4.592  15.977  0.3122  0.1161 -0.1848
16876W        W34400   9.402   7.160   0.452  0.1222 -0.1656 -0.0136
16877W        W34401  17.540  16.311  14.743 -0.1760 -0.2374 -0.0203
16878W        W34402   0.916   5.342  15.211  0.0532 -0.2076  0.1666
16879W        W34403   7.093   6.145   0.582  0.0611 -0.1821  0.4015
16880W        W34404   8.501   2.845   1.848  0.1306 -0.0756 -0.1421
16881W        W34405   5.248  16.976  12.455  0.3108  0.0383  0.1802
16882W        W34406   4.279   9.099   2.502 -0.2408 -0.1039  0.0841
16883W        W34407   6.936   7.354  15.801  0.1330  0.0342 -0.1711
16884W        W34408   0.601   8.049   1.805 -0.0946  0.0604 -0.0454
16885W        W34409   0.105   5.912  14.694  0.1062  0.2069  0.2150
16886W        W34410   4.017   0.048  16.001 -0.2493 -0.2284  0.0267
16887W        W34411   0.369   1.923  11.214  0.0083  0.0664 -0.0159
16888W        W34412   7.073   7.032  13.207  0.2254  0.1015  0.1583
16889W        W34413   6.539  10.682  13.409 -0.1741 -0.1195 -0.0861
16890W        W34414   6.534  11.579   3.635  0.1511  0.1799 -0.1685
16891W        W34415  15.360  13.178  10.490 -0.1337 -0.0647 -0.0726
16892W        W34416   2.966   7.687   1.821  0.0240 -0.2811 -0.0071
16893W        W34417   5.743   1.317   0.567  0.0097 -0.1238 -0.1235
16894W        W34418   5.476   0.688   1.663 -0.1702  0.3571 -0.0451
16895W        W34419  11.564  13.624  14.222  0.0136  0.1211  0.1829
16896W        W34420   5.247  10.390   0.435  0.0152 -0.1227  0.0941
16897W        W34421  15.793  11.777  11.670 -0.0478 -0.1817  0.0461
16898W        W34422   0.794  10.956   4.807  0.1472  0.0686 -0.0069
16899W        W34423   8.007  15.421  14.667 -0.0621 -0.2332  0.2578
16900W        W34424   2.152   4.005   2.529  0.0500 -0.0632  0.2343
16901W        W34425   9.163  15.447   5.124 -0.0391  0.2795 -0.1066
16902W        W34426   6.064  15.007   0.196  0.1035 -0.0031 -0.1003
16903W        W34427   2.776   0.643  12.534 -0.0926 -0.2006 -0.0161
16904W        W34428  13.552  14.772   4.766  0.0262 -0.1434 -0.0570
16905W        W34429  10.965  15.602   1.075  0.1753 -0.1686 -0.0018
16906W        W34430  12.500   2.535  12.898 -0.0964  0.1202  0.1334
16907W        W34431  15.827  13.037  11.903 -0.3243 -0.0398  0.2490
16908W        W34432  14.114  11.287   5.831 -0.0480  0.1631  0.0134
16909W        W34433   7.546  16.186  15.279  0.0700 -0.1329  0.1088
16910W        W34434   8.595   8.043   4.064 -0.3583  0.0011 -0.5723
16911W        W34435   2.004  10.936   2.525 -0.2460 -0.1139 -0.0458
16912W        W34436  17.519  16.913  13.053  0.3244  0.0075 -0.2095
16913W        W34437   0.975  10.199  15.933  0.0596  0.0799  0.4572
16914W        W34438  11.582   0.762  14.580  0.2379 -0.1047  0.2816
16915W        W34439  17.624  15.454   3.455  0.2474 -0.0930 -0.0963
16916W        W34440  14.164   4.881   1.255 -0.1834  0.0225 -0.1582
16917W        W34441  15.538  12.753   0.462 -0.1811 -0.1967 -0.1028
16918W        W34442   3.536   0.069   3.679 -0.1357  0.3087  0.1289
16919W        W34443  10.972   5.418  14.738  0.0399  0.1274  0.1516
16920W        W34444  15.370   2.729  10.916 -0.3063  0.1594 -0.2144
16921W        W34445  11.533   9.207   3.403 -0.0982 -0.1423 -0.0402
16922W        W34446  10.611   7.173  11.396 -0.0406 -0.0385 -0.1305
16923W        W34447   8.765   8.960  14.705 -0.4050  0.1182 -0.2398
16924W        W34448  14.704  13.584   2.647  0.0021 -0.2314  0.0262
16925W        W34449  12.552  16.811   0.537 -0.0243  0.3202  0.2226
16926W        W34450  14.981   9.973   4.366  0.0136 -0.0416  0.2761
16927W        W34451   9.067  15.952  11.671 -0.1141  0.1583 -0.0289
16928W        W34452   1.988  11.795  12.936  0.1303 -0.0162  0.0606
16929W        W34453   6.255   4.214   2.096  0.0196  0.0604  0.0079
16930W        W34454  17.188   2.117   0.838  0.0771 -0.1758 -0.0601
16931W        W34455  13.670   2.707  13.939  0.0549  0.0669 -0.0367
16932W        W34456   4.997   0.051  12.689  0.0843 -0.2742 -0.1150
16933W        W34457  11.204  13.581   1.715  0.2714  0.1424  0.3020
16934W        W34458   7.972  16.088   0.592 -0.0281 -0.4271 -0.1622
16935W        W34459  14.726   8.656   4.042 -0.1050  0.0358 -0.3866
16936W        W34460   4.045   1.003   2.567  0.1442 -0.2722 -0.2910
16937W        W34461  12.656   1.582   1.133 -0.2022 -0.2944  0.3202
16938W        W34462   9.201  15.473  11.840 -0.0686 -0.0938  0.0893
16939W        W34463   9.740   7.418   2.647 -0.0255  0.0959 -0.2797
16940W        W34464   5.000   1.357   2.697  0.1705 -0.2613 -0.1718
16941W        W34465   9.902  13.922  15.798  0.3788  0.0040 -0.3373
16942W        W34466  13.493  12.848  15.256 -0.2907  0.0508  0.0156
16943W        W34467  13.251   5.110   1.736 -0.0208  0.2799  0.0441
16944W        W34468   2.222  16.224  14.136 -0.0438 -0.1575 -0.0381
16945W        W34469   5.363   9.689   1.786  0.0460 -0.3150 -0.0674
16946W        W34470  17.770   3.681  14.520 -0.1596  0.0470 -0.3076
16947W        W34471  16.229  14.931   0.706  0.3154 -0.3606  0.0466
16948W        W34472   3.614   7.545   3.220  0.0162 -0.1064 -0.0346
16949W        W34473   4.684   8.781   2.596 -0.0569  0.3360  0.0573
16950W        W34474  12.076   3.685  12.420  0.0395  0.0808  0.1919
16951W        W34475  10.057   7.483   4.568 -0.0266 -0.1726 -0.0834
16952W        W34476  10.476  14.459   0.403  0.0445 -0.0762 -0.4247
16953W        W34477  17.755   1.076  15.293 -0.2254 -0.2321  0.0860
16954W        W34478  16.664   1.554   3.406 -0.1199 -0.0320 -0.0106
16955W        W34479  15.698   4.799  15.294  0.0238 -0.0627  0.1744
16956W        W34480  12.818   7.336   4.174  0.0740 -0.0505 -0.0058
16957W        W34481  15.749   8.639   2.141  0.3946  0.0011 -0.0577
16958W        W34482  16.490  14.408  13.356  0.0059  0.1818  0.0299
16959W        W34483   9.090  13.915  14.554  0.2483  0.0608  0.1815
16960W        W34484   1.303   1.782  15.659 -0.5123 -0.0860 -0.0252
16961W        W34485   1.723  12.887  13.807  0.1042 -0.0999 -0.2276
16962W        W34486   3.281  15.096  10.456 -0.0486 -0.1954  0.2320
16963W        W34487  17.020   1.029  11.424 -0.0443  0.0315 -0.2184
16964W        W34488  11.785  10.905   4.002 -0.0153  0.0132 -0.2245
16965W        W34489   4.492   4.902  11.314  0.0042  0.4054 -0.2267
16966W        W34490   8.853   1.062   2.394 -0.0483  0.0116  0.1117
16967W        W34491   7.501   7.088  11.526 -0.0958 -0.3524  0.1999
16968W        W34492   5.419   7.495  11.031  0.1465 -0.0884  0.0234
16969W        W34493   7.356   5.474   3.878 -0.0059 -0.1516  0.0085
16970W        W34494   3.586  14.635   3.114 -0.0269  0.2096  0.1311
16971W        W34495  13.660  10.485  11.110 -0.1882 -0.1178  0.0696
16972W        W34496   8.881  10.208  12.545 -0.0885 -0.1552 -0.3015
16973W        W34497   3.411  13.442  12.526  0.2156 -0.2653  0.0238
16974W        W34498   5.582  16.828   3.098 -0.0339 -0.0232 -0.0057
16975W        W34499   8.685   1.379   5.026 -0.1421  0.1155 -0.3512
16976W        W34500  10.465  14.222   1.414 -0.3028 -0.0794  0.4183
16977W        W34501   4.584   5.005  15.756  0.1359  0.0381 -0.1686
16978W        W34502  15.840  14.376   1.006  0.0499 -0.1479  0.0902
16979W        W34503   8.310   3.328   1.826 -0.2974  0.0171  0.0460
16980W        W34504  18.134  12.352  14.128  0.1356 -0.0005  0.3106
16981W        W34505  11.530   3.155   2.569 -0.2699  0.2710  0.2377
16982W        W34506  11.986  13.852  14.447  0.0066 -0.2839 -0.1218
16983W        W34507   9.574   7.733   4.504 -0.2707  0.1146 -0.2862
16984W        W34508   5.066  16.499  12.413 -0.0078  0.2563  0.1491
16985W        W34509   5.209   2.786   1.709  0.0465 -0.0956  0.1125
16986W        W34510   9.377   9.828  13.536 -0.3295  0.0358 -0.1696
16987W        W34511  11.623   1.224   0.055 -0.4864 -0.2154  0.0213
16988W        W34512  15.190  11.999   3.706 -0.2738 -0.0750  0.0464
16989W        W34513  13.791  11.665  15.475 -0.1759  0.1351 -0.1239
16990W        W34514   4.657   9.836  13.651 -0.1095 -0.0462 -0.1597
16991W        W34515   8.854   0.260   5.713  0.0909  0.2525  0.1033
16992W        W34516   8.113  16.480  13.195 -0.1083 -0.1429  0.1669
16993W        W34517  14.542   7.145  14.413  0.3902 -0.3169 -0.0748
16994W        W34518  16.481   2.687   0.713 -0.1331  0.0892  0.1399
16995W        W34519   1.821  17.201  12.791 -0.2101 -0.1878 -0.3172
16996W        W34520   8.143  11.733   1.319 -0.2103 -0.1072 -0.1796
16997W        W34521   1.420   2.300   3.596  0.1562 -0.0789 -0.2369
16998W        W34522  10.203  11.141  15.277 -0.1398  0.3915  0.2081
16999W        W34523  15.031   1.871  11.307  0.0513  0.0708  0.2282
17000W        W34524   7.062   4.553  14.175  0.0290 -0.1560  0.3483
17001W        W34525  12.195  16.466  10.963  0.0671 -0.0285 -0.0274
17002W        W34526   1.961  16.669   0.356  0.1682  0.2016  0.2410
17003W        W34527  10.791  15.683  13.229 -0.0248 -0.1445  0.0977
17004W        W34528  14.438  17.200  13.298 -0.2233 -0.0024 -0.0459
17005W        W34529   8.164   5.539  11.596 -0.1926  0.1303 -0.1716
17006W        W34530   9.853   3.182  11.764 -0.2395  0.1787 -0.3813
17007W        W34531   2.651   3.242  12.812 -0.1229 -0.0035  0.0905
17008W        W34532  17.352  16.529  13.400  0.0593 -0.2389 -0.2906
17009W        W34533   7.071  13.183   3.866 -0.1290  0.0214 -0.0416
17010W        W34534   6.645   8.969   0.988  0.1341  0.0174  0.1735
17011W        W34535  13.230   8.885   0.787 -0.2548 -0.2232  0.1560
17012W        W34536   1.123  11.669  15.379  0.0115 -0.1424 -0.0536
17013W        W34537  13.451  15.378  12.374  0.1812 -0.2405 -0.1564
17014W        W34538  16.991   7.301  13.691  0.1931 -0.1080  0.0851
17015W        W34539   4.216   1.732   0.771 -0.0828 -0.1326 -0.0622
17016W        W34540  10.909  15.246  14.712 -0.0467 -0.2261 -0.1268
17017W        W34541  14.268  15.410   4.409  0.0200 -0.2566  0.1229
17018W        W34542  12.382   2.795  14.782 -0.2180 -0.0467 -0.1134
17019W        W34543   0.727  15.691   3.314 -0.1394  0.2775 -0.0804
17020W        W34544  13.252   0.125   1.942 -0.1182  0.2439 -0.0293
17021W        W34545  14.969  10.163   4.882 -0.1760 -0.4425  0.1629
17022W        W34546   5.089  13.965   4.429 -0.0217 -0.0652 -0.4256
17023W        W34547  13.927   8.009   0.877  0.1847  0.1959  0.0527
17024W        W34548   4.868   6.231   1.773 -0.0726  0.2017  0.0898
17025W        W34549  17.248   0.560  11.406 -0.2049  0.0229  0.0117
17026W        W34550  15.318  14.829   0.177 -0.1156 -0.1737 -0.1827
17027W        W34551   3.517  12.983  12.147  0.1553 -0.0214  0.0052
17028W        W34552   8.539  10.989  13.007 -0.0842  0.3233  0.1093
17029W        W34553   1.880   1.607  11.196  0.2729 -0.2155  0.3791
17030W        W34554   9.617   0.605   2.870  0.2445  0.2078  0.4493
17031W        W34555   9.527   4.309  12.055 -0.2508  0.0378 -0.2004
17032W        W34556   3.136   7.948   2.545 -0.0519  0.0301  0.0460
17033W        W34557   9.121   1.637   0.700  0.0377 -0.2422 -0.0850
17034W        W34558   0.966   4.073  10.813 -0.2916 -0.4034 -0.3864
17035W        W34559   0.630   5.921  14.044  0.0461 -0.0738  0.0357
17036W        W34560   3.436   8.437  12.250  0.1643 -0.1120  0.3647
17037W        W34561   8.358   6.367   0.727  0.0731  0.1425  0.1816
17038W        W34562  12.877   5.078   0.764  0.0304 -0.2394 -0.0615
17039W        W34563  14.419  13.356   1.886 -0.3246  0.1050 -0.1376
17040W        W34564  17.497   6.824   1.695  0.2008 -0.1421  0.1709
17041W        W34565   6.091   1.305  15.498 -0.3439  0.0554 -0.0396
17042W        W34566  17.325  16.711   5.239 -0.1616  0.2170 -0.1134
17043W        W34567   4.702  13.387  14.950  0.0426 -0.2789 -0.1334
17044W        W34568   9.987   5.698   0.458  0.2298 -0.2077  0.2683
17045W        W34569  12.046   8.800   0.647  0.0303 -0.3307 -0.0055
17046W        W34570   2.975   9.733   2.246 -0.0678  0.0116  0.2923
17047W        W34571   1.778   5.763   1.418  0.3354 -0.0575  0.1186
17048W        W34572   1.775   2.037  12.427 -0.4662  0.0865  0.0070
17049W        W34573   4.474  15.608  14.003  0.1202  0.1360 -0.1652
17050W        W34574  10.126  16.720   4.203  0.0639 -0.2027 -0.0335
17051W        W34575   6.187   7.433   4.154 -0.1979 -0.1339  0.1066
17052W        W34576   5.015  16.063  15.848 -0.0928 -0.0577  0.0151
17053W        W34577   6.355  10.912   4.276 -0.0495 -0.4280 -0.1855
17054W        W34578  14.060   0.815   4.509  0.1023  0.1661  0.0328
17055W        W34579  10.033  10.612   3.748 -0.2305  0.1351 -0.1003
17056W        W34580  15.864   2.262  12.858  0.0658 -0.0537  0.1149
17057W        W34581  14.998  15.363  11.485 -0.2761  0.2928  0.1223
17058W        W34582  13.183  15.898   0.394 -0.1254  0.0041 -0.0576
17059W        W34583   8.603   8.732   0.284 -0.1191 -0.1669  0.0480
17060W        W34584   4.082  16.250   4.417  0.1471  0.1261 -0.0310
17061W        W34585  12.951   1.149  13.999 -0.0746  0.0549 -0.0853
17062W        W34586   9.859   4.831  15.406 -0.1387  0.1161  0.1787
17063W        W34587  11.905  10.459  13.778  0.0811 -0.0307  0.1140
17064W        W34588   9.640   7.483   3.522  0.0043 -0.0171 -0.0862
17065W        W34589   2.994   4.932   1.065 -0.1553 -0.0678  0.0994
17066W        W34590   8.360  10.122  11.827 -0.3938 -0.0313 -0.1236
17067W        W34591   5.390   4.081  13.296  0.3081  0.1378 -0.0417
17068W        W34592   0.336   9.833  14.613  0.1213  0.0308 -0.2771
17069W        W34593  12.300  15.858   1.885  0.0315  0.1076 -0.0083
17070W        W34594   2.043  15.459  13.121 -0.1045 -0.0517  0.1695
17071W        W34595   0.752  10.291   0.261 -0.0415  0.1161 -0.0515
17072W        W34596   7.186  10.626   4.492 -0.3591  0.0739 -0.0893
17073W        W34597   9.041  12.222  12.064 -0.0172 -0.1740  0.0838
17074W        W34598   4.047   6.045   5.074 -0.0156 -0.0821  0.2942
17075W        W34599   3.477  17.058  12.211 -0.2893  0.0070 -0.1039
17076W        W34600   4.005  12.533   3.712 -0.0814 -0.0426 -0.0162
17077W        W34601   8.610  18.016  11.784  0.1232  0.1284 -0.1140
17078W        W34602  14.832  16.988  10.390 -0.1856 -0.0713  0.0810
17079W        W34603  13.373   8.265  11.330 -0.1068  0.0138  0.0127
17080W        W34604   0.900   5.276  13.257  0.2265 -0.1504  0.0689
17081W        W34605   3.982   6.451   1.212 -0.0844  0.0838  0.1539
17082W        W34606   7.819   5.724   0.313 -0.1542  0.2091  0.0892
17083W        W34607  14.456   2.534  14.626  0.1842  0.0106 -0.2217
17084W        W34608  15.241  16.800  13.800 -0.1748  0.1696 -0.3152
17085W        W34609   1.554   2.381   3.137 -0.0859 -0.1897 -0.0511
17086W        W34610  17.199  18.010  13.265  0.1033 -0.3427  0.2050
17087W        W34611   7.300  11.565  15.023  0.0675 -0.4289  0.0087
17088W        W34612  17.547   4.508  15.592 -0.1499 -0.0219  0.2592
17089W        W34613  13.737  12.318   3.729 -0.1775 -0.0081  0.3171
17090W        W34614   7.048   1.010  15.116  0.3889 -0.0835  0.1798
17091W        W34615  16.588   2.601   2.370 -0.0671  0.0036 -0.4305
17092W        W34616  17.152   1.788   2.546 -0.0208 -0.2914  0.0687
17093W        W34617   0.237   3.802   1.191 -0.1149 -0.0311  0.1655
17094W        W34618   0.420   2.991   1.302 -0.2225 -0.1529  0.2426
17095W        W34619  15.396   5.444   2.620  0.0483  0.2350  0.1218
17096W        W34620   3.549   5.573   1.438  0.0266 -0.1213 -0.1939
17097W        W34621   5.380  13.217  14.425  0.0834  0.1656  0.1288
17098W        W34622   9.031   4.809   3.127  0.0147  0.2352  0.2107
17099W        W34623   6.351  16.717   1.763  0.0207  0.0418  0.0101
17100W        W34624  11.510  10.145   3.433 -0.1017 -0.1305  0.1155
17101W        W34625   9.588   6.508   4.243  0.0614 -0.1288  0.4650
17102W        W34626   1.939  10.957  14.692  0.1918  0.0284 -0.3273
17103W        W34627   0.547   2.233   1.703  0.0152  0.2921  0.0274
17104W        W34628   8.703  16.096  15.545 -0.0136  0.0335 -0.3158
17105W        W34629   8.818  13.424  14.275 -0.1130  0.2566 -0.1335
17106W        W34630   7.261  10.322   4.111 -0.2546  0.2233 -0.0724
17107W        W34631   6.608   2.020  10.498 -0.4078 -0.1631  0.2688
17108W        W34632   6.828  17.256  13.089  0.0878 -0.0157 -0.1841
17109W        W34633   5.271  18.047  12.387 -0.1688  0.4608 -0.1115
17110W        W34634  10.284   4.727  11.810  0.1272  0.0907  0.2612
17111W        W34635   2.437   7.318  16.036 -0.1199  0.0785  0.0452
17112W        W34636  14.502  14.390   5.329 -0.0726 -0.0373  0.2511
17113W        W34637  14.540  18.096  11.405 -0.1285 -0.0571  0.3272
17114W        W34638  11.418   2.450  15.516 -0.0613  0.2317  0.1070
17115W        W34639  16.844   1.163  14.587 -0.1033 -0.1596  0.4485
17116W        W34640  13.984  17.525   3.909  0.0326  0.2274 -0.2320
17117W        W34641   5.826  13.333  12.235  0.0846 -0.3661  0.0815
17118W        W34642   1.229  17.229  14.529 -0.1274 -0.2090 -0.3133
17119W        W34643   9.406   5.305   0.309 -0.3198 -0.0037  0.1245
17120W        W34644   5.256   8.999   3.229 -0.1226 -0.0312 -0.1756
17121W        W34645  16.306  10.495   0.173 -0.1200 -0.1502  0.3413
17122W        W34646   6.713   7.546  11.270  0.1481 -0.0281  0.0079
17123W        W34647   1.860  14.878   2.662  0.1633 -0.1489 -0.0652
17124W        W34648   9.384   9.694  15.770 -0.0045 -0.1993 -0.1248
17125W        W34649   5.481   0.918   2.841 -0.1597 -0.1482  0.1953
17126W        W34650   4.203  17.803   0.622  0.0538  0.1164  0.0827
17127W        W34651  14.600  16.663  14.991 -0.1705  0.5439  0.1209
17128W        W34652   4.875  15.115   4.470 -0.3546  0.0159 -0.1177
17129W        W34653   2.901   7.159  15.137 -0.1730 -0.1019 -0.4711
17130W        W34654  14.536   9.937  16.054 -0.0058  0.1314 -0.1098
17131W        W34655  10.822  12.699  10.918 -0.0813  0.1434  0.1333
17132W        W34656  16.551   5.296   4.014  0.2080 -0.1837 -0.3427
17133W        W34657  15.070   5.941   3.961 -0.0990 -0.0498  0.0708
17134W        W34658  13.368  10.055  14.818 -0.0341 -0.1662  0.0049
17135W        W34659  12.565   0.814   2.999  0.1879 -0.1115 -0.0593
17136W        W34660   1.628   5.074   2.674  0.1532  0.1516 -0.2917
17137W        W34661  16.782   4.174  12.706 -0.0082  0.0364  0.1356
17138W        W34662   1.219  14.585   2.945 -0.4282 -0.0834 -0.0825
17139W        W34663  16.376  12.483  13.737 -0.1027 -0.2305  0.2751
17140W        W34664   0.981   0.963   4.805  0.1555  0.0134 -0.0903
17141W        W34665  17.360   3.528   1.379  0.0960  0.1501 -0.1387
17142W        W34666  15.029  13.265  10.808  0.3017 -0.1178 -0.2914
17143W        W34667  15.188   1.262   1.031 -0.2827  0.0350  0.0504
17144W        W34668   3.423   3.955   2.525  0.0329 -0.0602 -0.2384
17145W        W34669  12.712   8.919   1.952 -0.2774 -0.2062  0.0753
17146W        W34670   3.811   1.382   0.664 -0.1894 -0.1402 -0.0653
17147W        W34671   2.426  16.012  12.381 -0.2017 -0.3546 -0.2761
17148W        W34672  14.963   4.893   4.749  0.2037 -0.2745  0.0565
17149W        W34673   8.051  15.452   2.329 -0.0999  0.1068 -0.1594
17150W        W34674   0.599  10.824  15.060  0.1460 -0.1033 -0.0591
17151W        W34675  11.002   5.162   2.505 -0.1334 -0.0643 -0.0152
17152W        W34676  14.300  16.657  14.564  0.1875  0.3199 -0.0027
17153W        W34677  11.203   9.876  15.961  0.2288  0.2271  0.0813
17154W        W34678   4.575   9.686   5.929 -0.1712  0.1816  0.0525
17155W        W34679   4.168  12.275   3.288 -0.3744  0.1769  0.3399
17156W        W34680  15.475   9.126   3.692 -0.2025  0.1015  0.0168
17157W        W34681   5.436   4.676  11.745 -0.1144  0.0351  0.0547
17158W        W34682   3.198  10.136  15.980 -0.1647  0.0326  0.2340
17159W        W34683   4.865  12.313   1.010 -0.1666 -0.2381 -0.0413
17160W        W34684  14.923  15.082  15.518  0.0116  0.0510  0.1677
17161W        W34685   7.871   1.148  15.324 -0.1898 -0.1460 -0.1042
17162W        W34686   1.545   6.010  11.680 -0.1233 -0.1303  0.0462
17163W        W34687   2.502  17.307  12.024  0.3314  0.0779 -0.0842
17164W        W34688   5.511   2.850   1.285  0.2031  0.4764 -0.2255
17165W        W34689  16.168   6.430   2.017 -0.0089 -0.0486  0.1424
17166W        W34690   1.049  13.346  14.989  0.2671 -0.0004 -0.1874
17167W        W34691  18.094  11.868  13.002  0.1371  0.0860 -0.0768
17168W        W34692   2.744   2.734  15.522  0.0764 -0.0411 -0.3061
17169W        W34693   0.010   7.131   0.617  0.3058  0.0565 -0.2792
17170W        W34694  15.423   0.070  12.593 -0.2502 -0.1100  0.6302
17171W        W34695  16.840   3.554   0.708 -0.0129 -0.1241  0.0901
17172W        W34696  10.421   1.625  12.492 -0.0194 -0.0580  0.0542
17173W        W34697   6.279   6.181   1.070 -0.0848  0.3408  0.0626
17174W        W34698   0.675  15.292   0.140 -0.1114  0.0671 -0.0251
17175W        W34699  10.624  14.281  12.797  0.0324 -0.0024  0.0594
17176W        W34700   7.499   1.770  13.053  0.1716  0.6289  0.0101
17177W        W34701  17.518   2.515   2.757 -0.4986 -0.0835 -0.0544
17178W        W34702   4.827   7.115   2.427 -0.0862  0.0384 -0.0662
17179W        W34703   7.917  16.753  11.161  0.0270 -0.1829  0.1158
17180W        W34704   1.308   9.461   3.740 -0.0321 -0.2037  0.0144
17181W        W34705   2.018   3.706   0.446 -0.1222 -0.2510  0.0240
17182W        W34706  10.345   7.151   3.753  0.0961  0.0419  0.1069
17183W        W34707   9.076   1.236  15.940 -0.2456 -0.2138  0.3107
17184W        W34708  17.770   5.643   1.118 -0.0467 -0.0169  0.2013
17185W        W34709  16.446   9.293   2.155  0.0530 -0.1736 -0.0258
17186W        W34710   4.671   7.350  13.224 -0.0632 -0.2466  0.0374
17187W        W34711  17.548   6.690  13.486 -0.0460  0.2854 -0.2670
17188W        W34712   0.323   8.072  15.136  0.0076  0.1535 -0.1405
17189W        W34713   0.872  15.036   4.078  0.0357 -0.3129 -0.4313
17190W        W34714  13.136  12.104  12.175 -0.1468  0.1560 -0.1437
17191W        W34715   2.249   6.632  13.271 -0.0856 -0.2036  0.1023
17192W        W34716   2.776   7.513  10.481 -0.2439  0.0157  0.2202
17193W        W34717  14.393  14.989   1.827  0.4697  0.1528 -0.2736
17194W        W34718   2.897   6.020  15.534 -0.0545 -0.0034  0.1132
17195W        W34719  12.822   0.794  13.726  0.5147 -0.2269  0.0288
17196W        W34720   8.162  16.682   0.802 -0.2329  0.2500  0.3568
17197W        W34721   4.763   1.389  15.662  0.2126  0.0456  0.0460
17198W        W34722  13.485  13.619   5.771 -0.0516  0.4309 -0.4770
17199W        W34723  10.876  11.260  14.236  0.0816  0.2324 -0.1224
17200W        W34724   8.702  13.689  12.826 -0.0594 -0.0709  0.4293
17201W        W34725   5.530   3.876  11.249  0.1021 -0.0781 -0.0059
17202W        W34726   0.807   2.932  13.867 -0.3602  0.0713 -0.3935
17203W        W34727   4.895  13.786   3.949 -0.0564 -0.1456 -0.0163
17204W        W34728  13.221   5.425   0.644 -0.0895  0.0674 -0.2075
17205W        W34729  13.590  14.361   5.089  0.1481  0.1957 -0.1747
17206W        W34730  12.845   9.013   1.138 -0.3715 -0.0746 -0.6559
17207W        W34731   9.166  12.649  10.280 -0.2464 -0.1130  0.0431
17208W        W34732   3.454  11.973  14.798  0.0063 -0.0091 -0.3002
17209W        W34733  11.456  18.087   4.190  0.1336  0.1258 -0.1307
17210W        W34734  13.478   5.402   2.752  0.0746 -0.0211  0.0625
17211W        W34735   7.746   3.577  11.198 -0.0723  0.0267  0.2787
17212W        W34736  16.745   8.897  15.333  0.1296  0.2997 -0.1383
17213W        W34737   1.341  11.358  10.681  0.3682  0.0738  0.1683
17214W        W34738  10.146  12.204   2.712  0.0902 -0.1164 -0.2131
17215W        W34739   3.970   6.483  13.629  0.3370 -0.1921  0.0603
17216W        W34740   2.300   8.060   1.999  0.0713  0.1823  0.2105
17217W        W34741  10.086  14.323   4.647  0.1889  0.2516 -0.2355
17218W        W34742   9.294  10.797  14.733 -0.0976 -0.0012  0.0320
17219W        W34743  12.246  12.959  14.066  0.2841  0.0548 -0.1292
17220W        W34744   3.979  17.622  15.696 -0.3972 -0.1555  0.0500
17221W        W34745   5.249   4.102   1.089 -0.1763 -0.0437  0.0633
17222W        W34746  11.769   0.580  12.444  0.1370  0.0544  0.0637
17223W        W34747  13.492  13.522  12.791 -0.1634  0.1907  0.0621
17224W        W34748   0.714  13.755   3.605  0.4437 -0.1918 -0.0400
17225W        W34749   5.601   3.463  10.984  0.0592 -0.1000  0.0750
17226W        W34750  10.645  13.110  15.441  0.1999 -0.0150 -0.1315
17227W        W34751   1.251   8.150  11.781  0.0152  0.0888  0.1520
17228W        W34752   2.336  10.554   4.247  0.4652  0.1805  0.0078
17229W        W34753   0.698   0.468   4.730  0.1652  0.2282  0.1462
17230W        W34754  16.676   1.900   0.871  0.0070 -0.1611  0.1835
17231W        W34755   0.496   4.998   2.349  0.1815 -0.0348 -0.0123
17232W        W34756  12.421  15.752   4.977 -0.0300  0.2862  0.0323
17233W        W34757   3.952   1.898  15.189  0.0127 -0.0002 -0.0626
17234W        W34758  10.659   8.951   3.218  0.0082 -0.4348 -0.2474
17235W        W34759   7.053  17.922   2.813  0.0706  0.0632  0.0531
17236W        W34760   1.127  15.730  14.684 -0.0893  0.2340  0.2733
17237W        W34761   0.512   8.157  10.681 -0.1156  0.2270  0.2172
17238W        W34762  15.448   4.997   0.100 -0.1878 -0.1999 -0.1082
17239W        W34763   5.107   9.716   5.775  0.1151  0.1290 -0.0766
17240W        W34764   7.126  15.706  10.975  0.0723 -0.0252  0.1497
17241W        W34765   6.172   5.308   3.280 -0.0764  0.0885 -0.0831
17242W        W34766  14.813  14.190  12.980 -0.1709 -0.2075  0.0722
17243W        W34767  12.321   2.199  15.465  0.0570 -0.0560 -0.1441
17244W        W34768   3.741   2.723   1.771 -0.1788 -0.0980 -0.2943
17245W        W34769  12.995   9.382   3.116  0.4245  0.1188  0.0055
17246W        W34770   7.374   0.912  16.027 -0.0432  0.2020  0.1644
17247W        W34771   6.814   5.605   2.009 -0.0066 -0.1045 -0.1581
17248W        W34772  10.747   9.718  13.781 -0.3531 -0.2169  0.5233
17249W        W34773   7.562   3.898   0.931 -0.0635  0.0804 -0.0680
17250W        W34774  17.675  15.132   1.779 -0.0252 -0.2894 -0.0900
17251W        W34775   7.756  16.269  11.216  0.2714  0.2563 -0.1797
17252W        W34776  12.322   1.686  15.239  0.0279 -0.1701 -0.0245
17253W        W34777   3.050  13.362  13.158 -0.2306 -0.2743  0.3573
17254W        W34778   9.367   6.947  11.540  0.0797  0.2913  0.1359
17255W        W34779   6.121   9.622  12.591 -0.0327 -0.1764  0.0343
17256W        W34780   9.676   9.244   1.931 -0.0589  0.1125  0.0460
17257W        W34781  13.136   4.190  14.440 -0.1935  0.3687  0.0775
17258W        W34782  11.936  14.465   1.030  0.0316  0.0664  0.2275
17259W        W34783   5.250   4.261  14.828  0.0141 -0.1611  0.1205
17260W        W34784   5.399  14.652   1.671 -0.0587 -0.0167  0.0521
17261W        W34785   6.417   7.450   2.291  0.0931 -0.1765 -0.1832
17262W        W34786   4.937  16.939   4.583  0.0417  0.2613  0.0685
17263W        W34787  16.570  17.625   0.068  0.0846  0.0366  0.1856
17264W        W34788   6.681   1.244   2.289  0.0505  0.1814  0.0058
17265W        W34789  15.485   4.642   3.050  0.2944 -0.1635  0.1524
17266W        W34790  13.381  16.354   1.983 -0.0072 -0.3247 -0.1960
17267W        W34791  14.065  17.482  14.070 -0.1046  0.0496  0.0526
17268W        W34792  15.767  16.570  12.935  0.0030  0.0145  0.0212
17269W        W34793   5.777   5.698  16.060 -0.0719  0.0076  0.1667
17270W        W34794   7.539   9.904  12.720 -0.0586 -0.0869 -0.1207
17271W        W34795  11.948  17.901   2.467  0.1921  0.1286 -0.3916
17272W        W34796   3.034  10.052  15.556  0.0844  0.1547 -0.0024
17273W        W34797   9.682   4.787  12.012  0.1208  0.0043 -0.0643
17274W        W34798  12.251  18.191  13.569 -0.0609 -0.1180  0.1062
17275W        W34799   8.519   3.870  12.939  0.1501  0.1192 -0.1615
17276W        W34800  12.469  15.630  13.474 -0.1267 -0.0476 -0.2444
17277W        W34801   2.809  16.451  15.885 -0.2503  0.0156 -0.1099
17278W        W34802   6.815   2.059   1.124  0.0002 -0.0349 -0.1749
17279W        W34803  13.368   5.816  13.635  0.0978 -0.3372  0.1350
17280W        W34804  16.007  12.539   3.690 -0.1543  0.1340  0.2586
17281W        W34805  18.037   5.120   2.732  0.0559  0.2157 -0.3597
17282W        W34806   6.355  15.967   1.939  0.0108  0.2073 -0.0308
17283W        W34807   2.209   6.531   2.056 -0.1388 -0.1176  0.0519
17284W        W34808   0.398   4.434  15.708  0.0467 -0.1499  0.1110
17285W        W34809   4.159  10.855   3.696 -0.1398 -0.2278  0.0420
17286W        W34810   0.713   2.439  13.871 -0.1455 -0.0194  0.1740
17287W        W34811   8.236  13.109   0.319 -0.4554 -0.0541  0.2013
17288W        W34812   9.308   5.205   3.311 -0.4652  0.0469  0.1830
17289W        W34813  17.303   2.364   5.156 -0.2233  0.2907  0.0453
17290W        W34814   7.021  13.843   0.383 -0.3977  0.0989  0.3090
17291W        W34815   0.852   4.912   1.881  0.1163 -0.0167  0.1599
17292W        W34816  10.589  16.822   1.118 -0.1440  0.1209  0.3229
17293W        W34817   5.946   3.647  14.308  0.1314 -0.1871 -0.0240
17294W        W34818   4.947   1.562   1.770 -0.4071 -0.0850  0.0767
17295W        W34819   7.634  10.129   2.662  0.3163 -0.0287 -0.0515
17296W        W34820   3.932   0.972  16.066 -0.1696  0.1921  0.2417
17297W        W34821   4.603   3.870  15.570  0.0771 -0.0703  0.1039
17298W        W34822  13.415   0.707   2.900  0.1215 -0.2672 -0.2710
17299W        W34823   6.651   7.262   4.260 -0.1167  0.2011 -0.0469
17300W        W34824  10.232   5.371  12.619 -0.0971 -0.1403 -0.2507
17301W        W34825  10.811  11.841  13.270 -0.2104 -0.3272 -0.1195
17302W        W34826   6.064  13.007   3.578 -0.2672 -0.4687  0.1066
17303W        W34827  13.519   7.940  13.873  0.0603  0.0548  0.1756
17304W        W34828  16.505   5.777   4.894 -0.4265 -0.2057  0.1394
17305W        W34829  14.357  13.786   3.537  0.0354 -0.0981  0.1666
17306W        W34830   1.170  13.363  11.566  0.0223 -0.0755 -0.1418
17307W        W34831   2.639   4.398   1.782  0.1810  0.0911 -0.2503
17308W        W34832   0.506  14.674  12.483 -0.3026 -0.0882 -0.3065
17309W        W34833   6.643  16.904  12.714  0.3696 -0.1218 -0.2485
17310W        W34834   4.340   8.961   4.352  0.0688  0.1077  0.1023
17311W        W34835   3.290   4.798   3.436 -0.0454 -0.4191  0.0832
17312W        W34836  10.934  15.652  13.954 -0.0527  0.1284  0.1727
17313W        W34837  12.983   5.631   1.032  0.4717 -0.0433  0.0655
17314W        W34838  15.244  12.650   1.685 -0.2191 -0.1479 -0.1123
17315W        W34839   0.187   7.785   1.942  0.3621 -0.1187 -0.2740
17316W        W34840   4.274   3.220   1.610 -0.1058  0.0290  0.2373
17317W        W34841   5.618  13.401   2.888 -0.0648 -0.1373 -0.3436
17318W        W34842  12.800  11.436  12.876  0.2230 -0.0808 -0.4194
17319W        W34843   1.338   7.393   4.507 -0.0976 -0.0029  0.2954
17320W        W34844   9.122   0.525   0.871  0.0725 -0.0856  0.1511
17321W        W34845   1.108   1.953   2.478  0.0016  0.4032  0.1369
17322W        W34846  11.276  17.262  11.739  0.0296 -0.1440  0.1922
17323W        W34847  15.297  15.169   0.569  0.0882 -0.1857 -0.0746
17324W        W34848  16.027   5.468  15.650  0.1375 -0.1771 -0.0959
17325W        W34849  16.881   4.715   2.639  0.2968  0.1089 -0.1356
17326W        W34850  16.433  10.121  14.780 -0.0181 -0.0769  0.3470
17327W        W34851   3.793  17.296  12.824  0.0365 -0.0494 -0.1705
17328W        W34852  15.075  13.596   3.951  0.2662  0.2320  0.3777
17329W        W34853  11.621   2.881  13.286 -0.1348  0.1267 -0.0709
17330W        W34854   4.661   8.429   2.984  0.1563 -0.0821  0.0029
17331W        W34855   4.240   5.319   0.077  0.1131  0.1587  0.1467
17332W        W34856   2.224   6.410   3.724 -0.0249  0.0957 -0.4520
17333W        W34857   8.325  16.093   2.973  0.0109 -0.0927 -0.0234
17334W        W34858  17.791  13.233  12.704  0.2380  0.2702  0.1409
17335W        W34859   8.456   4.191  15.405 -0.4346 -0.3983 -0.1721
17336W        W34860   4.775  13.048   0.455 -0.0454 -0.3040 -0.0585
17337W        W34861   1.267  14.861  14.228  0.4318  0.0102 -0.1687
17338W        W34862   1.786   8.973   2.679  0.1295 -0.0246 -0.2576
17339W        W34863  15.279   6.649  12.313 -0.1702 -0.3188  0.2531
17340W        W34864  13.738   5.627   5.523  0.1889 -0.0848 -0.1258
17341W        W34865   8.765  11.209   3.442 -0.1177  0.0908 -0.1890
17342W        W34866   4.925  14.795  13.926 -0.1139 -0.1684  0.2583
17343W        W34867   2.095  10.657  13.838 -0.1893  0.0653  0.0262
17344W        W34868   0.901  12.947  12.704 -0.1275 -0.1262  0.1675
17345W        W34869   5.929   3.873  10.932  0.0420 -0.0788 -0.4742
17346W        W34870   1.519   4.731   4.151  0.0653 -0.2093 -0.1053
17347W        W34871  16.463  15.242  12.987  0.0698  0.0994 -0.2010
17348W        W34872  16.523   4.645  15.394 -0.0966 -0.2661  0.0910
17349W        W34873   7.332   2.740  11.313 -0.0046  0.1362  0.1759
17350W        W34874   6.802   5.931   4.799  0.1141  0.1079 -0.2572
17351W        W34875   7.110   1.837   4.134  0.1233 -0.4337  0.1232
17352W        W34876   0.458   4.427   2.452  0.2918 -0.0106  0.0525
17353W        W34877  11.481   4.534   2.945 -0.1516  0.1751 -0.0760
17354W        W34878   1.298   1.815  15.155 -0.2618  0.0169 -0.0712
17355W        W34879   7.859   3.921  14.866  0.3731  0.0964 -0.4271
17356W        W34880  16.392   0.842  15.319 -0.2079  0.0221  0.0351
17357W        W34881   2.705  18.023  13.631  0.0967  0.0316 -0.3148
17358W        W34882  11.780  13.541   2.452 -0.0885 -0.0201  0.1714
17359W        W34883   0.753  14.446   2.743 -0.0769 -0.1633 -0.1212
17360W        W34884   4.253   1.502   1.732 -0.3671 -0.2091 -0.4210
17361W        W34885   9.855  11.929  15.489  0.0500 -0.0993 -0.0838
17362W        W34886  13.821  13.228  15.447  0.2849 -0.1024  0.1524
17363W        W34887  13.524  14.034  13.344 -0.0968 -0.1034  0.3171
17364W        W34888  13.971   3.365   4.627  0.2402  0.0331 -0.1995
17365W        W34889  11.621  13.772   4.022  0.2411  0.0396 -0.1040
17366W        W34890   5.675  13.599   4.203 -0.0749  0.2456 -0.3176
17367W        W34891   6.961  16.131   1.364 -0.0668  0.1663  0.0784
17368W        W34892   5.604   3.772   2.533 -0.1019  0.1276 -0.1140
17369W        W34893   4.811   1.871   1.374  0.0917 -0.1783 -0.0822
17370W        W34894   3.213  13.222  11.827  0.0839  0.2381  0.3848
17371W        W34895   6.421   1.474  13.902  0.1762 -0.2737 -0.2220
17372W        W34896  15.801   1.052  12.432 -0.0713  0.1629 -0.0960
17373W        W34897   0.695   6.020   0.371 -0.0846 -0.0288  0.0228
17374W        W34898  15.281   3.102   4.140  0.1351 -0.1796  0.0194
17375W        W34899   7.912   8.072   1.645  0.1477 -0.3476  0.1007
17376W        W34900  17.622  12.467  11.993  0.0017  0.0292 -0.0354
17377W        W34901  17.108   5.304  15.066 -0.0896  0.3573  0.0055
17378W        W34902  15.888   5.685  13.870  0.0981  0.2372  0.3712
17379W        W34903   8.167  15.201   3.289 -0.0665 -0.2216 -0.1276
17380W        W34904   2.816  17.667   2.201 -0.0618  0.1747  0.0956
17381W        W34905  11.073   8.069   0.641  0.3128 -0.0013 -0.0321
17382W        W34906   4.379  11.545  13.055 -0.2900 -0.2170  0.0054
17383W        W34907  13.445   2.248  15.539 -0.2931 -0.0790 -0.2572
17384W        W34908  12.962  12.136  15.649 -0.0018  0.0102 -0.2166
17385W        W34909   6.202   3.270  13.013 -0.1557 -0.2599  0.0781
17386W        W34910   4.466   6.116  12.476 -0.1458  0.0235 -0.1289
17387W        W34911   3.573   4.649  11.859  0.0542 -0.3015 -0.0242
17388W        W34912  16.690  11.345   1.368 -0.1836 -0.0627 -0.1406
17389W        W34913   8.823   9.800   1.750  0.2555  0.0004 -0.1430
17390W        W34914   1.283   9.217  15.756  0.1931  0.1299  0.1227
17391W        W34915  14.005   6.629  15.765  0.1935 -0.0378  0.1452
17392W        W34916  13.297   0.489  15.839 -0.2546 -0.1488  0.0398
17393W        W34917   0.921   0.742   0.723 -0.4927 -0.0587  0.1173
17394W        W34918  17.928  10.366   2.208 -0.1564  0.0298  0.2468
17395W        W34919  15.709  11.809  15.249 -0.0502  0.0546  0.2024
17396W        W34920   8.696  12.546  13.560  0.0671 -0.2367 -0.1415
17397W        W34921   2.237   1.993   1.754 -0.2993 -0.4172 -0.1464
17398W        W34922  16.092  11.919   0.408  0.4012  0.1439  0.2055
17399W        W34923   6.514   7.910  11.652 -0.1132  0.1194  0.2295
17400W        W34924  14.816  17.508   0.404 -0.0004  0.1048 -0.2706
17401W        W34925   9.305   6.662   2.895  0.1357 -0.1449  0.2348
17402W        W34926   3.923   2.819   3.072 -0.0219 -0.1038  0.3560
17403W        W34927   7.084  16.008   1.836  0.1159  0.3892 -0.6500
17404W        W34928   6.205  10.382   1.191 -0.0536  0.0332 -0.0219
17405W        W34929  12.903   7.314  11.364  0.1761 -0.2260 -0.3746
17406W        W34930  14.444  14.291   0.791 -0.0075  0.1172  0.2430
17407W        W34931   2.559   0.296   0.430  0.1150  0.3510 -0.0317
17408W        W34932   3.430   4.622   1.084 -0.0358 -0.1445 -0.0707
17409W        W34933  12.960  13.556   4.733  0.0212  0.0223 -0.1225
17410W        W34934   6.932  11.218  12.486 -0.2366 -0.3274  0.4388
17411W        W34935   4.346   0.767   0.317 -0.1841 -0.2130  0.0628
17412W        W34936   6.570   9.303  13.987 -0.1096 -0.0669  0.1765
17413W        W34937   5.330   7.489  12.880  0.1536  0.0901  0.0782
17414W        W34938  16.468   6.443   0.155 -0.2105 -0.0200  0.1165
17415W        W34939  10.722   9.668  14.766  0.0108 -0.0922  0.1359
17416W        W34940   7.537   3.325  11.740  0.1282  0.0515 -0.0400
17417W        W34941   4.058   8.227   1.990  0.1901  0.1915  0.0439
17418W        W34942  10.423   3.583   0.536 -0.2112  0.1277  0.0176
17419W        W34943  10.818  10.519   4.949 -0.3004 -0.1437  0.0539
17420W        W34944  15.376   3.381   5.000 -0.0150  0.2364  0.3986
17421W        W34945   9.960  16.580   2.429  0.2028  0.2364 -0.1201
17422W        W34946  14.526  16.414   4.367 -0.2394  0.0778 -0.0799
17423W        W34947   6.199  10.806  12.755  0.1380 -0.0793 -0.2027
17424W        W34948   3.401  10.410   1.073 -0.3414  0.0024  0.1908
17425W        W34949  16.247   4.362  15.066 -0.0767  0.3381 -0.1742
17426W        W34950  10.597  11.981   4.940 -0.2193  0.2946 -0.2223
17427W        W34951   9.353   6.873  14.767  0.1079 -0.1351 -0.0075
17428W        W34952   5.549  11.368   4.543  0.1453 -0.1655  0.2791
17429W        W34953   1.513  11.407   0.122 -0.1784  0.1900 -0.2597
17430W        W34954  13.945   3.743  13.363  0.1757 -0.0115  0.0736
17431W        W34955  10.921   4.223  14.148 -0.3132  0.4223  0.4420
17432W        W34956  17.117  17.096   0.545 -0.0059  0.0782 -0.0562
17433W        W34957   8.119   0.601  15.967 -0.0777 -0.0429 -0.0188
17434W        W34958  16.216   3.491  12.773 -0.2341 -0.0739  0.0331
17435W        W34959   7.920   7.006   0.075 -0.0143  0.1600  0.1270
17436W        W34960  14.685  10.954  11.954 -0.0234 -0.0519 -0.2303
17437W        W34961   3.395  17.038   1.918 -0.1603 -0.3150  0.1444
17438W        W34962   6.913  16.964   4.246 -0.1197  0.3233  0.1062
17439W        W34963  17.609   9.266  13.609 -0.2516 -0.1872 -0.2181
17440W        W34964   4.257  15.503   3.798 -0.3386  0.0713  0.2183
17441W        W34965   4.492   2.244   3.611  0.2270  0.0911 -0.0840
17442W        W34966  13.847   5.173  12.324  0.1525  0.2194 -0.1251
17443W        W34967   4.498  14.715  13.785 -0.1594 -0.2382  0.0463
17444W        W34968   3.278   2.731   0.509  0.2642 -0.1256 -0.0708
17445W        W34969   1.879  15.110  13.473 -0.0058  0.1154  0.1813
17446W        W34970   2.266  14.195   0.567 -0.0127  0.1568 -0.0756
17447W        W34971  12.222  15.096  12.480  0.1883 -0.3243 -0.2339
17448W        W34972  11.610   5.751  10.873  0.4985 -0.1631 -0.0932
17449W        W34973   2.584  14.296  14.786  0.0181 -0.2777  0.3919
17450W        W34974   6.225   8.446  13.359  0.1822 -0.1852 -0.0404
17451W        W34975   8.677   8.665   1.866  0.3759 -0.0113  0.3091
17452W        W34976   6.972  12.140   0.335  0.2289  0.1408 -0.0141
17453W        W34977  17.339   8.686   1.469 -0.2469 -0.2539  0.0967
17454W        W34978  16.019   3.009   2.631  0.2097  0.0840 -0.1428
17455W        W34979   8.423   7.502   0.464  0.2004  0.1263 -0.1825
17456W        W34980  14.064   6.491  12.560  0.2338 -0.1451 -0.2000
17457W        W34981   4.413  10.391   0.802  0.0016 -0.0977 -0.2813
17458W        W34982  12.936   7.347   4.950 -0.1085  0.1122 -0.3314
17459W        W34983  10.690  15.811  15.413  0.1953  0.1671 -0.0559
17460W        W34984   9.065   5.337  12.454 -0.0979  0.0526 -0.0716
17461W        W34985  14.771   2.644   1.961 -0.0945  0.0767 -0.0595
17462W        W34986   2.785  13.969  12.363  0.0130  0.6283 -0.2977
17463W        W34987   8.908  15.444   3.125  0.1356 -0.1955 -0.2867
17464W        W34988   6.578  12.770  14.747 -0.1219  0.0045 -0.1195
17465W        W34989  15.347   0.329   3.647  0.0162 -0.1725 -0.1771
17466W        W34990  12.602  12.873   3.967 -0.1205  0.0394  0.0234
17467W        W34991  10.668   2.882  15.157 -0.3396 -0.2168  0.1451
17468W        W34992  11.761   2.590   1.515  0.4312 -0.2921  0.0985
17469W        W34993   0.448   4.345   1.121 -0.2156 -0.1246 -0.2090
17470W        W34994   4.992  13.039   4.414  0.0473  0.0343  0.0190
17471W        W34995   0.023   7.783  13.535 -0.4235  0.1602  0.2066
17472W        W34996  15.677   3.416  15.604 -0.0481  0.2484 -0.1114
17473W        W34997   6.374  10.810  14.826 -0.0755  0.1704  0.1172
17474W        W34998   1.863  16.724   4.935  0.1368  0.0884 -0.1880
17475W        W34999   4.280   1.691  10.165 -0.1024  0.1242 -0.0591
17476W        W35000   1.621  15.798   4.119 -0.0349  0.1995  0.4634
17477W        W35001   0.259   4.051  16.027 -0.0780  0.1539 -0.0797
17478W        W35002   1.617  13.874  10.901 -0.1718 -0.0057 -0.0074
17479W        W35003   0.859   5.904   2.393  0.0307  0.0128  0.1455
17480W        W35004   1.573   1.378   5.222  0.0611 -0.0952  0.1095
17481W        W35005  16.697   1.994  12.482  0.1633 -0.0496 -0.1606
17482W        W35006   3.561   1.559  14.839 -0.0851 -0.4486 -0.2047
17483W        W35007   4.140   5.229  15.700 -0.2349 -0.0299 -0.1216
17484W        W35008   4.950  17.794  12.915  0.2648  0.0239  0.1717
17485W        W35009  13.519   0.914  16.011  0.2664 -0.0161  0.0265
17486W        W35010   3.126  14.304  12.433  0.0415  0.1498  0.2088
17487W        W35011  15.098  13.008   0.926 -0.2570 -0.0143  0.1158
17488W        W35012   2.310  15.761  13.848  0.0982  0.1406  0.0387
17489W        W35013  16.138  13.203   1.490 -0.0221  0.0635  0.1088
17490W        W35014   9.047   8.219   3.878 -0.1845 -0.0020  0.4529
17491W        W35015  18.153  12.938   2.086 -0.3404 -0.1426  0.1035
17492W        W35016   4.335  13.402   3.151  0.2472  0.2179  0.4006
17493W        W35017   7.437   8.396  11.016  0.1417 -0.0912 -0.1428
17494W        W35018  12.190   9.498   0.932  0.0179  0.1326 -0.2249
17495W        W35019   0.030   1.288  11.898  0.0460 -0.1486  0.0201
17496W        W35020  18.131   2.959   1.395  0.1455 -0.1497 -0.0849
17497W        W35021  15.843   2.988   5.836 -0.0722 -0.1892 -0.1981
17498W        W35022  17.653  16.238  13.681 -0.1779 -0.0286  0.2319
17499W        W35023  17.430  10.845  11.884 -0.1986  0.0258  0.0524
17500W        W35024   8.401  15.810  15.233  0.1147  0.0379  0.2683
17501W        W35025  16.820  15.609  15.501  0.1814  0.3541 -0.0431
17502W        W35026   0.101  17.191  15.838  0.2010  0.0531  0.2693
17503W        W35027  10.868   2.566  11.127 -0.0757 -0.1232  0.1764
17504W        W35028  16.460   1.428   5.137  0.0837 -0.1837 -0.3576
17505W        W35029   3.000   4.952   1.651  0.0621  0.2140  0.0474
17506W        W35030  12.780  15.192   3.171 -0.2384 -0.0380 -0.1201
17507W        W35031   2.192  12.555  13.621 -0.1238  0.2493 -0.0425
17508W        W35032  10.767  16.615  14.304  0.1468  0.1442  0.3459
17509W        W35033   0.797   6.644  15.658 -0.2813 -0.0309 -0.1183
17510W        W35034   1.190   7.627  15.627 -0.1712 -0.0607  0.2419
17511W        W35035   9.550   8.030  10.515  0.0592  0.1256  0.0898
17512W        W35036  11.692   7.665   1.468  0.3760 -0.1272  0.0884
17513W        W35037  10.684  10.741   3.103 -0.0895  0.0072  0.0724
17514W        W35038   5.466   5.778   2.836 -0.2060 -0.0023  0.0434
17515W        W35039  11.988   7.683  13.255  0.2840 -0.1297 -0.0592
17516W        W35040   9.071   2.171  10.674  0.1114 -0.0242  0.0176
17517W        W35041   3.379  16.401   2.907  0.0440  0.0720  0.0184
17518W        W35042   4.525   2.151  13.111  0.2013  0.3420  0.2267
17519W        W35043   4.309  10.249  12.287  0.1622  0.0174 -0.0650
17520W        W35044   4.477  14.106  13.026 -0.0049 -0.1650 -0.2252
17521W        W35045  12.885  10.962  12.761  0.2397 -0.0224  0.4203
17522W        W35046  10.838  17.328  12.028  0.3122 -0.1261 -0.0865
17523W        W35047   7.782   1.608  12.716 -0.3178 -0.1591 -0.0981
17524W        W35048  16.450   2.450   3.104 -0.0707 -0.1904  0.1176
17525W        W35049   7.649  13.359   9.948 -0.0835  0.2479  0.1258
17526W        W35050  15.315   0.989   1.658 -0.0969 -0.0292 -0.0049
17527W        W35051   0.944  12.564   0.622 -0.0373  0.0713 -0.0397
17528W        W35052   6.850  17.556   2.553 -0.2444 -0.2009 -0.0892
17529W        W35053   0.810  11.481   3.389 -0.3152  0.1314 -0.3197
17530W        W35054   2.168   1.234  13.502 -0.1207 -0.1349 -0.0821
17531W        W35055  15.626  15.542   0.675 -0.1743  0.4041 -0.2135
17532W        W35056  11.658  12.570  12.245  0.1621 -0.2131  0.0732
17533W        W35057  10.803   9.414  12.101  0.1380  0.0274  0.5680
17534W        W35058  12.225  10.859  15.205 -0.3410  0.0402 -0.1244
17535W        W35059   1.981  10.409   2.346  0.1458 -0.2700 -0.3072
17536W        W35060  15.518   1.229  13.400  0.0143  0.7149  0.0112
17537W        W35061  16.206  14.273   1.363  0.1767 -0.0155  0.0450
17538W        W35062  14.871   7.418   1.161 -0.0650 -0.1396 -0.2273
17539W        W35063   7.493   2.798  10.858 -0.2470  0.0086  0.2239
17540W        W35064   6.174   3.181  14.202 -0.2289  0.0818 -0.0574
17541W        W35065  17.326   5.786  12.017 -0.1072  0.2179  0.4696
17542W        W35066   7.626  16.434   0.752  0.2897 -0.0507  0.2692
17543W        W35067   5.189   3.254   3.405  0.0460 -0.0756 -0.1640
17544W        W35068  11.878   4.861   0.019  0.2807  0.1206 -0.0909
17545W        W35069  16.427  13.648  11.649 -0.4108 -0.0125 -0.0703
17546W        W35070  15.577  11.929   3.218  0.0629 -0.0651 -0.4110
17547W        W35071  13.072   5.231   4.234 -0.2269  0.2160  0.1414
17548W        W35072  16.673  16.641  11.072  0.1730  0.2467  0.2194
17549W        W35073  13.769  14.557  11.270  0.0537 -0.3518 -0.2048
17550W        W35074  15.116   3.115  10.748  0.0640 -0.1565  0.2425
17551W        W35075   8.958   2.707   3.612  0.0733  0.0459 -0.2653
17552W        W35076   2.361  16.946   0.022 -0.2117  0.1696  0.1595
17553W        W35077  17.871  16.085  14.441 -0.0636  0.0924  0.0229
17554W        W35078   9.875  18.057  14.589  0.1174  0.0465 -0.0446
17555W        W35079   8.936  13.550   1.561 -0.1909  0.2255 -0.2273
17556W        W35080   3.693  16.372   0.361  0.0828 -0.2992  0.1694
17557W        W35081   6.111  16.872  14.446 -0.0814  0.1658  0.0620
17558W        W35082   5.080   9.963   3.035 -0.1576  0.0665  0.0317
17559W        W35083   7.089  11.365   4.264  0.0825  0.1841  0.2614
17560W        W35084  16.647  10.646  10.519 -0.1688  0.2311 -0.1220
17561W        W35085  15.500   6.432  14.243  0.1379 -0.0619  0.1077
17562W        W35086   0.435   5.379  13.416 -0.3088 -0.2697 -0.1211
17563W        W35087   8.110   6.153   3.087  0.2694 -0.0677 -0.0950
17564W        W35088   2.215  10.508  13.345  0.0100  0.2431 -0.0027
17565W        W35089  16.888  14.825  12.892  0.2410 -0.0776  0.0292
17566W        W35090   3.249  10.215   3.525 -0.1989 -0.1903  0.0212
17567W        W35091  14.652   7.374   4.355 -0.1236  0.0317 -0.0693
17568W        W35092   6.096  13.645   1.658 -0.0816 -0.2382  0.4498
17569W        W35093  12.353   9.258   5.382 -0.1827 -0.0156  0.0114
17570W        W35094   3.810   8.093   3.835  0.1888  0.0409  0.1073
17571W        W35095  14.835  17.982  14.077 -0.0433 -0.1613 -0.3177
17572W        W35096  12.055   1.277  15.067 -0.3039  0.2411 -0.1282
17573W        W35097   7.118  15.682   1.485 -0.1923 -0.0747 -0.0187
17574W        W35098  11.188   5.626  10.653  0.1324 -0.2229  0.1452
17575W        W35099  17.586   4.022   1.321  0.2307 -0.1601  0.1495
17576W        W35100  17.625  15.794   0.744  0.0950 -0.0678 -0.1380
17577W        W35101   7.141  14.388   5.207 -0.0914  0.0863 -0.0622
17578W        W35102   2.286  11.083  11.833  0.0942  0.5968  0.0685
17579W        W35103   6.886  13.987  14.004 -0.0340 -0.0309 -0.0388
17580W        W35104   9.006   9.477   5.076  0.0079  0.0805  0.1384
17581W        W35105  12.213  11.224  13.278 -0.0452 -0.0462 -0.0680
17582W        W35106  17.777   8.883  14.330 -0.1758  0.0247 -0.1311
17583W        W35107  13.861  15.123   9.846  0.1983  0.2021 -0.0029
17584W        W35108   2.815  12.624   0.506  0.2085 -0.2020 -0.1988
17585W        W35109   8.976  16.277  13.002 -0.0998  0.3104 -0.1974
17586W        W35110   5.239  11.234  12.970 -0.4508  0.0793 -0.0496
17587W        W35111  12.851   7.866  15.474  0.0510  0.2114  0.0499
17588W        W35112  11.312  14.608   3.237  0.0455 -0.0306 -0.3464
17589W        W35113   6.973  11.848  10.703  0.0032  0.2140  0.1198
17590W        W35114   8.318   9.842   1.294  0.2242  0.0591  0.1037
17591W        W35115  16.747   5.611   3.119  0.0970 -0.0853 -0.1392
17592W        W35116  16.992   7.609   3.209 -0.0957  0.0318  0.3495
17593W        W35117   7.829  17.029  16.089  0.3502  0.0042  0.0479
17594W        W35118   1.181  14.146  10.733  0.4519 -0.0192  0.0493
17595W        W35119  18.060   2.885  14.232  0.0157  0.0391 -0.3598
17596W        W35120  16.367   8.006   4.071 -0.0735  0.1131 -0.0618
17597W        W35121   9.456  13.776  14.863 -0.0055 -0.0718  0.0335
17598W        W35122  11.271   0.217   4.527  0.1802  0.1293  0.1335
17599W        W35123   4.178   0.965  14.839  0.2012 -0.1870 -0.1107
17600W        W35124  17.936   8.968  13.285 -0.0063 -0.1685 -0.0195
17601W        W35125  11.412   9.281   2.232  0.0959  0.0189  0.1260
17602W        W35126   2.696   9.100   1.558  0.1171 -0.0737 -0.0590
17603W        W35127  10.680   5.618   2.606  0.3494  0.0519 -0.3252
17604W        W35128  14.904  14.760  15.912  0.2259 -0.3478 -0.0876
17605W        W35129   5.369   8.634  13.419 -0.2573  0.1341 -0.0546
17606W        W35130   1.188  12.893   0.188 -0.1689 -0.1332 -0.1699
17607W        W35131   0.606   0.035  15.472 -0.0236  0.0298 -0.0943
17608W        W35132  18.154  16.245   2.947  0.1929  0.3507  0.1847
17609W        W35133   0.266   6.195   0.323 -0.1691 -0.0223  0.0436
17610W        W35134   6.998  11.286  10.222  0.2090  0.0980 -0.2149
17611W        W35135  17.848   7.486  12.248  0.2654 -0.0832 -0.1085
17612W        W35136  16.631   6.211  15.507 -0.1207  0.1287 -0.0182
17613W        W35137  17.859  15.159   0.100  0.1682 -0.0511  0.1510
17614W        W35138   4.186  11.724  13.473  0.1665 -0.1343 -0.0648
17615W        W35139   6.838  12.027   1.115 -0.0582 -0.0739 -0.0798
17616W        W35140   8.934  14.151  13.636  0.2152 -0.0303 -0.0946
17617W        W35141   0.510   8.798   3.854 -0.0016  0.0643  0.1499
17618W        W35142   3.702  13.686   3.631 -0.2215 -0.2010 -0.0712
17619W        W35143   1.197  10.483  15.542  0.2220  0.1402 -0.4109
17620W        W35144   4.048   4.492   2.995  0.1849 -0.1005  0.1953
17621W        W35145   9.771   1.056  11.276 -0.3196 -0.3596  0.2342
17622W        W35146   2.056   7.624  15.344 -0.2036 -0.0887 -0.0370
17623W        W35147   6.292  12.655   0.026  0.0028  0.2380  0.1368
17624W        W35148   3.735   9.458  12.830  0.0456  0.2518 -0.1001
17625W        W35149  15.085   0.854   4.820  0.2216  0.1465  0.1287
17626W        W35150   7.363  14.012  10.714 -0.0471  0.2310 -0.0970
17627W        W35151   7.985   5.360  14.717  0.5261 -0.1329  0.0368
17628W        W35152   0.518  11.081   4.300 -0.0825  0.2694 -0.2182
17629W        W35153  12.160  10.436   4.186 -0.1248  0.0274 -0.5216
17630W        W35154   0.037  17.662   2.309 -0.1270 -0.1651  0.1096
17631W        W35155  12.475  15.367   1.955  0.0965 -0.0708  0.1150
17632W        W35156   6.358   7.266   0.747 -0.0855  0.1902  0.0854
17633W        W35157  11.039   4.578   3.914 -0.1464  0.1855  0.1105
17634W        W35158   0.616  10.967  13.288 -0.1256  0.1068  0.4434
17635W        W35159  12.360   8.422   0.043 -0.0618  0.0314  0.1547
17636W        W35160  11.713   1.584  11.608 -0.1384 -0.5321  0.0405
17637W        W35161   3.172  12.168  12.485  0.2132  0.1120  0.0438
17638W        W35162  11.188   1.635   0.152  0.0041 -0.2079  0.2809
17639W        W35163   4.535   8.310  11.442  0.0793 -0.1477 -0.0419
17640W        W35164  17.274   0.463  10.871  0.3336 -0.6374  0.1767
17641W        W35165   6.519   6.278  13.379 -0.2168  0.1677 -0.0603
17642W        W35166   4.417   9.713   0.392  0.0284  0.2632  0.0371
17643W        W35167  14.589   9.634   4.420  0.0698  0.1044 -0.2770
17644W        W35168  13.451   3.304  10.313 -0.1348 -0.2385 -0.0498
17645W        W35169   9.684   6.988   2.930 -0.1065  0.0296 -0.2268
17646W        W35170   3.539   6.691  11.305 -0.1431  0.1082 -0.1111
17647W        W35171   5.245   5.444   4.181  0.1466 -0.2595 -0.0095
17648W        W35172   7.921  10.883  10.763  0.1560 -0.1002 -0.0461
17649W        W35173   8.157  15.949   3.383 -0.1208 -0.2493 -0.1833
17650W        W35174  14.535   4.211  11.253 -0.4573 -0.0077  0.1713
17651W        W35175  11.680  17.252  14.346  0.0963 -0.1574  0.1520
17652W        W35176   6.401   0.725  13.147 -0.0832  0.3485  0.0684
17653W        W35177  10.626  14.462  15.140  0.0521 -0.1946 -0.1889
17654W        W35178  15.698  14.770   4.934 -0.0658 -0.0831  0.0633
17655W        W35179  11.800   6.672   4.492 -0.1359 -0.1246  0.2296
17656W        W35180   1.267  11.328  12.187 -0.1086  0.0276 -0.0544
17657W        W35181  15.759  11.712  13.132 -0.0310  0.0773  0.0871
17658W        W35182   8.939  16.141  13.767  0.1166 -0.0766 -0.0151
17659W        W35183  17.829   9.745  12.593  0.0147 -0.0248 -0.3155
17660W        W35184   2.271   0.287   1.875  0.1866 -0.0929  0.0319
17661W        W35185   7.166   2.616   0.329 -0.0948  0.2218  0.1765
17662W        W35186  12.859  14.128  13.995 -0.1143  0.0939 -0.1537
17663W        W35187  11.808  17.983  11.948  0.0879 -0.1491 -0.2192
17664W        W35188  17.014   9.508   1.149  0.1835  0.3166 -0.3801
17665W        W35189  18.110   3.468  15.937  0.1477 -0.1261  0.1162
17666W        W35190  16.881   1.078   1.461  0.2892  0.2015 -0.1137
17667W        W35191  16.656   9.165   1.281 -0.0165 -0.1924 -0.0981
17668W        W35192   6.936   6.622   4.367 -0.2548 -0.2750  0.2169
17669W        W35193   6.080   0.595   4.063 -0.2834  0.0074  0.0278
17670W        W35194  15.568   5.958  14.959 -0.1159 -0.0037 -0.0137
17671W        W35195   7.750   8.730   2.522  0.1407 -0.1393  0.0209
17672W        W35196  13.937   5.530  12.751 -0.2002  0.0449 -0.0104
17673W        W35197   6.606   0.377  13.946 -0.3335  0.0109 -0.0906
17674W        W35198   3.199   9.138   0.599  0.2773  0.1963 -0.0532
17675W        W35199   7.014  13.979  13.216 -0.3500 -0.1260  0.1277
17676W        W35200  11.405   6.536  13.898 -0.1056  0.0282  0.2636
17677W        W35201  10.761  12.217  15.950 -0.3424  0.4604 -0.1632
17678W        W35202  17.591   4.321  16.061  0.3587 -0.0447  0.3441
17679W        W35203  16.897  11.826  11.936  0.1514 -0.0692 -0.0163
17680W        W35204  10.983   4.549   3.112 -0.0074  0.3072  0.0090
17681W        W35205   2.856   5.581  15.864  0.0945 -0.3732 -0.0040
17682W        W35206   8.087   3.722   3.665 -0.1999 -0.2657  0.0280
17683W        W35207   1.119  13.603  11.126  0.0559 -0.0025 -0.0384
17684W        W35208   1.699   9.669   5.909 -0.3214 -0.0533 -0.2217
17685W        W35209   1.460   0.170   0.731  0.0695 -0.3879 -0.1003
17686W        W35210   9.656  15.365   1.245 -0.1341  0.0297  0.0343
17687W        W35211  18.078  13.748  14.094  0.1710 -0.1004  0.1315
17688W        W35212   4.375  15.551  14.613  0.0668  0.0584  0.1993
17689W        W35213   1.735  16.371  12.178  0.4036 -0.1869 -0.1324
17690W        W35214  17.510   3.230  12.434 -0.0926 -0.1683  0.1381
17691W        W35215   9.829  17.987   1.909  0.0446  0.0259  0.1716
17692W        W35216  10.491  17.914   4.430 -0.1367  0.0915 -0.0789
17693W        W35217   2.562  17.104   3.104 -0.0932  0.4144 -0.3081
17694W        W35218  18.100   2.079   1.068  0.0407  0.2975 -0.0011
17695W        W35219  10.252   1.631   4.408 -0.0633 -0.2593  0.0094
17696W        W35220   4.910   3.274   0.078 -0.0343  0.2883  0.0964
17697W        W35221  14.339   0.742  14.834 -0.0167  0.0048 -0.0451
17698W        W35222  17.355  14.486   1.931 -0.1367  0.2015 -0.0996
17699W        W35223   6.400  17.472  15.902  0.3227  0.1571  0.3267
17700W        W35224  16.091   7.704  11.628  0.1244  0.3610  0.4428
17701W        W35225   1.903  11.443   2.681  0.0857  0.0618  0.4136
17702W        W35226  16.386  13.280   0.026  0.0256  0.4291  0.4312
17703W        W35227  11.540  10.142  15.710  0.1503 -0.1466 -0.1830
17704W        W35228  14.321   2.158  12.587 -0.1581  0.0299 -0.0155
17705W        W35229   1.387   6.311  13.398 -0.1448 -0.1986  0.0971
17706W        W35230  13.337   7.455  15.369  0.1293  0.0939  0.0388
17707W        W35231  18.032  17.832  13.566  0.0208 -0.2604 -0.0940
17708W        W35232   4.266  17.026   0.893 -0.0306 -0.4553 -0.1080
17709W        W35233   6.247   6.712  12.212 -0.0423  0.1034 -0.1445
17710W        W35234  18.141   3.999   5.149  0.3580  0.0395 -0.0527
17711W        W35235   0.009  15.232   3.048 -0.0013  0.0900 -0.2285
17712W        W35236   4.736  11.255  12.820 -0.1558  0.0623  0.1310
17713W        W35237  12.009   7.181  11.815 -0.0058  0.1146 -0.1880
17714W        W35238  11.354  15.492   3.205  0.1906  0.2019 -0.0730
17715W        W35239   0.696   8.303  11.742  0.1300 -0.0907  0.2302
17716W        W35240   6.954  12.838   0.978  0.0843 -0.2150 -0.0839
17717W        W35241  14.607   2.282   3.862 -0.0870  0.1150  0.1849
17718W        W35242   0.116   8.084  12.711  0.1751  0.0939 -0.2618
17719W        W35243  17.335  12.102   2.642 -0.2293 -0.0547  0.1311
17720W        W35244   2.204   9.987  13.208  0.0736 -0.0702  0.0251
17721W        W35245  15.645   9.065  13.717 -0.2258 -0.0430 -0.0878
17722W        W35246  14.959  11.356   2.047  0.0375  0.0666 -0.0274
17723W        W35247   4.953   3.289   0.733 -0.1190 -0.1085 -0.2553
17724W        W35248   2.463   5.904   4.037 -0.3008  0.1582 -0.2278
17725W        W35249   2.431   7.412  15.007 -0.1070  0.1226  0.0304
17726W        W35250   7.943   2.370   0.661  0.1076  0.0126  0.0376
17727W        W35251   2.109   1.082  14.607  0.0593 -0.0776 -0.0031
17728W        W35252   4.056   9.734  11.305  0.0507  0.0827 -0.1650
17729W        W35253  11.951   3.336  13.019  0.1246  0.1778 -0.1944
17730W        W35254  17.141   1.952   5.440  0.0890 -0.2000  0.1889
17731W        W35255  16.376   8.029   5.497 -0.0237  0.2511  0.1201
17732W        W35256   6.631   2.806  15.965  0.1140 -0.0268 -0.0995
17733W        W35257   4.864  10.687   0.553  0.2438 -0.0374  0.0842
17734W        W35258  15.357   5.016  12.552  0.0080 -0.0589 -0.0727
17735W        W35259  15.458  15.503  14.863 -0.0387 -0.0052  0.0316
17736W        W35260   2.878  14.877  14.668  0.0558 -0.0664 -0.1121
17737W        W35261   9.008   0.098   2.147 -0.2233 -0.3099  0.2833
17738W        W35262  17.913  14.246  15.925  0.0153 -0.2390  0.1588
17739W        W35263   7.421   5.654   4.374 -0.0500 -0.0782  0.3736
17740W        W35264  17.639   4.511  14.533  0.2437 -0.2358  0.0225
17741W        W35265   8.194   1.530  15.598 -0.2732  0.0947 -0.2107
17742W        W35266  14.751  11.043   0.372 -0.3481  0.3331  0.0440
17743W        W35267  14.952   9.299   3.539 -0.1737  0.0701 -0.2604
17744W        W35268   9.765  14.801  14.674  0.2988 -0.4725 -0.1560
17745W        W35269   2.492   6.685  10.932 -0.1240 -0.4227 -0.2746
17746W        W35270   6.459   0.471   1.905 -0.1859 -0.2274  0.2295
17747W        W35271  14.046   6.515   0.738  0.2473  0.1153 -0.1225
17748W        W35272  14.386   1.515  13.640 -0.3813  0.1452 -0.0654
17749W        W35273   2.464  12.028  14.517 -0.0982  0.0701 -0.1461
17750W        W35274  10.965  15.550  12.422 -0.0948 -0.1722  0.0705
17751W        W35275  15.201  11.775  10.606 -0.0696  0.1030 -0.2073
17752W        W35276   8.940   8.800  15.476 -0.2660  0.0676 -0.0365
17753W        W35277  13.490  13.849   3.243 -0.0799 -0.0971  0.1933
17754W        W35278   9.310   4.125   5.378 -0.3885 -0.2511  0.2271
17755W        W35279   7.152  16.046   0.902 -0.0666 -0.1697 -0.0184
17756W        W35280  12.175   1.835  11.903 -0.0639  0.1110 -0.0284
17757W        W35281   4.633  10.586   1.401  0.0471  0.3378 -0.2327
17758W        W35282   4.253  10.847   2.516 -0.1389 -0.0254  0.1787
17759W        W35283   7.795  13.256  14.627 -0.1582  0.3596 -0.0658
17760W        W35284  11.625   7.205  15.970 -0.1843 -0.1110  0.1673
17761W        W35285   4.805   6.252  14.301  0.1492 -0.1475 -0.1605
17762W        W35286   7.585  15.476   2.612  0.0002 -0.2225  0.0148
17763W        W35287   8.273   9.861  11.324  0.2216  0.0796 -0.3724
17764W        W35288  16.983   2.485   2.124 -0.2989 -0.0796 -0.2554
17765W        W35289  17.018  16.790  13.021 -0.1041  0.0190 -0.2312
17766W        W35290   4.518  14.788   1.097  0.0692  0.5193 -0.1284
17767W        W35291   0.622   3.052   5.394  0.2261  0.0739  0.1413
17768W        W35292   7.813   7.513  14.112  0.3880 -0.0062 -0.0809
17769W        W35293   1.866   4.854  13.252 -0.2324 -0.1149  0.1061
17770W        W35294  17.525   8.831   3.125 -0.0823  0.0538 -0.0022
17771W        W35295  15.566  13.998   1.226 -0.0906  0.0144 -0.1015
17772W        W35296   6.430  14.382   0.749  0.1325  0.0487  0.0497
17773W        W35297  10.363   2.850   3.443 -0.1692 -0.0652  0.1119
17774W        W35298  15.518  10.747  11.710 -0.1339 -0.2515 -0.2259
17775W        W35299   3.393   3.093  13.627  0.0305  0.0711  0.0684
17776W        W35300   9.635  14.934  12.528 -0.0943  0.0052  0.1581
17777W        W35301   2.607   0.348  15.490 -0.1105 -0.0799  0.1158
17778W        W35302   0.255   5.874  15.136 -0.0490  0.0645  0.2314
17779W        W35303  14.192   1.236   2.650 -0.0764  0.3615  0.2181
17780W        W35304  17.886  10.743   1.443 -0.0398 -0.2416  0.4311
17781W        W35305   5.712   8.801   0.934 -0.0638 -0.0274 -0.1530
17782W        W35306   1.165  11.200  12.672 -0.1382 -0.1783 -0.1981
17783W        W35307   2.466  17.875   4.213 -0.4801  0.0027  0.0113
17784W        W35308  11.208   5.243  12.573  0.0642 -0.1895 -0.3425
17785W        W35309   0.507  15.885  12.624  0.1028 -0.0841 -0.1429
17786W        W35310  13.086  13.668   4.005  0.5990  0.0444 -0.0949
17787W        W35311   4.588  15.187  14.281 -0.0738  0.0606  0.0251
17788W        W35312  16.591  10.773   2.416  0.1142  0.0007 -0.0440
17789W        W35313   5.050   7.509  15.709 -0.0269 -0.0147  0.0768
17790W        W35314  14.005   4.748  14.378 -0.0590 -0.2907 -0.3939
17791W        W35315   8.269   1.210   1.818  0.0882  0.2362  0.0498
17792W        W35316   3.657   8.064   4.762 -0.1367 -0.2368 -0.0359
17793W        W35317   3.892   3.563  13.903  0.3095  0.0478  0.0049
17794W        W35318  11.277   1.106   3.582 -0.0113  0.2995 -0.1518
17795W        W35319  11.680   5.671   2.068  0.3052  0.1609  0.2027
17796W        W35320  11.640  14.312   3.015 -0.0487  0.0728 -0.0996
17797W        W35321   9.376  11.717  11.307  0.1111 -0.1057  0.0104
17798W        W35322  18.006  18.127  12.800  0.0228 -0.2614  0.1041
17799W        W35323  18.039  14.476   5.180  0.1415  0.0233  0.2025
17800W        W35324   4.418  17.882  15.770  0.0889  0.0250 -0.1218
17801W        W35325  15.225  16.306   1.537  0.2106 -0.0158  0.2056
17802W        W35326   6.144  13.465   3.365  0.0671 -0.1852 -0.0191
17803W        W35327  17.302  13.218  14.303 -0.0802  0.0496 -0.1473
17804W        W35328   7.331   9.931   5.045 -0.0488 -0.2654  0.1616
17805W        W35329  16.388   4.336   0.475  0.2249 -0.1044 -0.3114
17806W        W35330   6.906  13.946   3.582  0.0758 -0.3789 -0.1789
17807W        W35331  12.572   2.962   2.322  0.0477  0.1689 -0.0898
17808W        W35332   7.619   6.719  11.923 -0.0692 -0.1126  0.0097
17809W        W35333  18.089   3.840   4.243  0.0775  0.0448 -0.0133
17810W        W35334  15.749   4.017  13.625  0.3318  0.1852  0.1209
17811W        W35335   9.498  15.217   4.385  0.2379 -0.0698 -0.1153
17812W        W35336   6.786  10.233   3.722 -0.0617  0.0594  0.2374
17813W        W35337   0.745   5.409   1.014  0.1364 -0.0879  0.3504
17814W        W35338  12.687   7.243   0.027  0.3442  0.1214  0.2046
17815W        W35339  15.730   6.406  11.480 -0.3047 -0.3423  0.0120
17816W        W35340  14.823  16.002  14.059 -0.0848 -0.0167 -0.3227
17817W        W35341   8.669   6.491  14.251  0.0937 -0.0453  0.0055
17818W        W35342  12.818  16.901  13.430  0.1822  0.4585 -0.1396
17819W        W35343   1.681   3.849   0.782 -0.0618  0.2029  0.3568
17820W        W35344  11.314   6.464   4.221 -0.2028  0.3107 -0.3670
17821W        W35345   7.679   7.011   1.834 -0.1366  0.0446  0.1182
17822W        W35346  15.026  16.148   2.448  0.0377  0.0064 -0.0432
17823W        W35347  18.120   5.097  12.729 -0.3629  0.0184 -0.4179
17824W        W35348  10.590   1.474   4.750  0.1911  0.0201 -0.3063
17825W        W35349   1.530  10.977   0.380  0.1263 -0.0166  0.0986
17826W        W35350  13.485  17.860  15.505 -0.0770 -0.2210  0.2302
17827W        W35351  11.372  10.711   0.209 -0.0669 -0.1550 -0.1422
17828W        W35352   7.451  11.652  11.122 -0.1395  0.2983 -0.3081
17829W        W35353   1.330  11.790  10.426 -0.0883 -0.0305  0.1487
17830W        W35354   9.687   9.654   0.992 -0.0340  0.0044 -0.0449
17831W        W35355   9.681   1.732   1.003  0.0427 -0.1991 -0.1800
17832W        W35356   2.934   9.519   4.564  0.1208 -0.2653  0.1546
17833W        W35357  10.406  17.702   1.465 -0.2896 -0.0197  0.0446
17834W        W35358   7.849  10.641  13.796 -0.1430  0.0887  0.2197
17835W        W35359  11.614  17.164   0.927 -0.0787 -0.2678  0.0975
17836W        W35360   6.387   8.118  12.961 -0.0336  0.0608 -0.0642
17837W        W35361  10.068   2.518   5.627  0.1435  0.0961  0.0904
17838W        W35362   2.579  17.024   1.572 -0.2678  0.0630 -0.2636
17839W        W35363   0.373   8.339   2.137 -0.0106 -0.2182 -0.2760
17840W        W35364   0.721   0.539  14.948  0.1695 -0.3405 -0.0747
17841W        W35365  12.012  12.480   1.039 -0.0612 -0.0372 -0.0163
17842W        W35366   1.062   7.529  15.079  0.0081 -0.1167  0.0744
17843W        W35367  16.942  17.257   1.491 -0.0749 -0.0275 -0.1088
17844W        W35368   2.064  12.737  13.001  0.1401 -0.3720  0.3387
17845W        W35369   5.109  16.124   1.506  0.1317 -0.2877  0.0787
17846W        W35370   6.869  10.278   6.031 -0.0486  0.1242 -0.0188
17847W        W35371   8.402   1.173   0.744 -0.0153  0.1425 -0.1278
17848W        W35372   6.362   4.520   4.056  0.1658  0.0474  0.3024
17849W        W35373   1.669  11.223  12.562  0.1526  0.0856 -0.1059
17850W        W35374   1.646   1.754   0.600 -0.0921 -0.1406 -0.3859
17851W        W35375   9.749  12.561   2.650  0.0311 -0.2480 -0.4366
17852W        W35376   0.745   8.868   3.331 -0.2838 -0.5584 -0.0946
17853W        W35377   9.386  12.357   5.138  0.3110  0.1096 -0.3536
17854W        W35378   6.660  14.608  14.816  0.0485  0.0917 -0.0735
17855W        W35379  10.935   9.106   6.193  0.0554  0.0098 -0.0823
17856W        W35380   2.054  14.658  14.705  0.1839 -0.3637 -0.2403
17857W        W35381  16.475   6.127   2.303 -0.0165 -0.0089  0.1689
17858W        W35382  10.685  16.409   1.559  0.2186  0.2915 -0.0349
17859W        W35383  11.445   7.406  14.514  0.1038  0.1126  0.0602
17860W        W35384   8.264   2.822   4.090  0.1460 -0.0318  0.1528
17861W        W35385   3.141  17.310   3.752  0.0013 -0.3420 -0.1381
17862W        W35386   3.104  15.653  13.139 -0.1084  0.1310 -0.0345
17863W        W35387   7.498  15.196   2.063 -0.3383 -0.2500  0.1028
17864W        W35388   6.072   9.194   2.893 -0.1918  0.0449 -0.1286
17865W        W35389   5.550   4.463  15.196 -0.1997  0.2957  0.0536
17866W        W35390  12.891   7.853   2.581 -0.0921 -0.0846 -0.1976
17867W        W35391  17.667  16.377  10.718  0.0988 -0.0251  0.2473
17868W        W35392  16.819   6.702   1.653  0.2508  0.1376 -0.1719
17869W        W35393  17.070  17.530  15.720 -0.0977  0.1943  0.0520
17870W        W35394  10.930  14.484  11.542 -0.3786  0.0923  0.0597
17871W        W35395   4.285  17.189  13.310 -0.1345  0.1294  0.1491
17872W        W35396  13.362  13.212  15.627  0.1266 -0.1645 -0.2283
17873W        W35397  16.907   0.356   3.965 -0.0039 -0.3748 -0.0008
17874W        W35398   8.616  17.036  12.463  0.4137 -0.2510 -0.4039
17875W        W35399  14.318  14.580  15.737 -0.0943 -0.0309  0.1153
17876W        W35400  10.139  15.124  12.706  0.0263 -0.0533 -0.0000
17877W        W35401   6.493  16.422   1.359  0.0613 -0.1274  0.1576
17878W        W35402  15.608  13.241  13.191  0.0595  0.2819 -0.0370
17879W        W35403  11.175   5.446  11.126 -0.0023 -0.1519  0.3224
17880W        W35404   7.649  15.643   0.352  0.0567 -0.2367  0.0484
17881W        W35405   1.944  15.219   4.750  0.1373 -0.0081  0.1504
17882W        W35406  10.907   3.055  13.474 -0.3895  0.1129  0.0411
17883W        W35407  14.434   1.029  15.672  0.3698  0.2449  0.0860
17884W        W35408  14.740   4.689  12.787 -0.0271  0.0129 -0.2188
17885W        W35409   2.847   1.929  11.308  0.0712 -0.1673  0.2030
17886W        W35410  14.324   8.229   1.368  0.0101 -0.4051 -0.1118
17887W        W35411  10.228   1.384   2.059 -0.0680 -0.0561 -0.2777
17888W        W35412   5.135   8.671   2.784  0.0396  0.0746  0.1835
17889W        W35413   0.223   6.467   3.417  0.0421  0.2211  0.0333
17890W        W35414  15.886  16.417   5.325 -0.2342 -0.0809  0.1620
17891W        W35415   8.951  15.101   0.750 -0.0624  0.1874 -0.1039
17892W        W35416  10.272  16.585  13.557  0.3087 -0.2616  0.1143
17893W        W35417  15.997   6.960   4.866  0.3843 -0.2283 -0.0840
17894W        W35418  10.063  13.316  13.029  0.3600 -0.2471 -0.2988
17895W        W35419  14.845   3.340   2.662 -0.0219 -0.0998 -0.1575
17896W        W35420  13.621   8.436  12.591  0.1319  0.1531  0.2730
17897W        W35421   3.718   6.687   1.607  0.3171 -0.0849 -0.0155
17898W        W35422  11.658   9.772  14.707 -0.3872 -0.1501  0.3573
17899W        W35423   2.101   5.554  15.298  0.1547  0.2441  0.2063
17900W        W35424   8.528   0.419   0.196  0.1420  0.0214  0.1844
17901W        W35425  11.321   3.575  10.804  0.0827 -0.0942  0.0424
17902W        W35426   5.965   8.203   0.835  0.2309 -0.0002 -0.0127
17903W        W35427   9.888  15.292  11.305  0.3291 -0.1158 -0.1057
17904W        W35428  11.045   6.709   1.759  0.0696 -0.2703 -0.3134
17905W        W35429  16.061  16.256  13.748  0.2998 -0.2502  0.0521
17906W        W35430   3.635  15.867  14.940 -0.3049  0.1754  0.1731
17907W        W35431   5.376  11.693  14.012  0.1068 -0.3587  0.1845
17908W        W35432   7.771   9.720   5.162  0.0750 -0.1627 -0.3730
17909W        W35433   9.145  17.266  15.401  0.1522  0.3554 -0.2037
17910W        W35434  14.096   3.980  11.446 -0.2149 -0.0547 -0.1107
17911W        W35435  13.594   0.495   4.402 -0.1333 -0.1600  0.0170
17912W        W35436  17.144  15.556  15.846  0.1089  0.1053 -0.1235
17913W        W35437  12.776   1.992   0.813 -0.0614 -0.0110  0.1287
17914W        W35438   9.884  15.317  12.254 -0.0576 -0.1162 -0.3066
17915W        W35439  11.813  12.778  12.734  0.3159  0.2867  0.0358
17916W        W35440   7.461   5.234   4.620  0.2693  0.1213  0.3265
17917W        W35441  11.773   2.897  15.552  0.1102 -0.1893 -0.1968
17918W        W35442  16.712  11.494  13.562 -0.0382 -0.1477 -0.0235
17919W        W35443  17.016   4.893   4.770  0.2470  0.1512 -0.2000
17920W        W35444  10.728  13.732  13.923  0.2653 -0.1503 -0.1667
17921W        W35445   8.266  15.616  15.709  0.0003 -0.1277  0.0317
17922W        W35446   5.110   4.152   1.802  0.4170 -0.3128 -0.1243
17923W        W35447   9.689  10.659   0.817  0.1170  0.0289  0.0531
17924W        W35448   4.267   9.386  12.887 -0.2975  0.0705 -0.0894
17925W        W35449  12.366  14.929   0.249 -0.2353  0.2085 -0.0582
17926W        W35450  14.441  14.284   3.318  0.3512  0.2272  0.2056
17927W        W35451  10.887  16.092   1.094  0.3966 -0.0622 -0.2838
17928W        W35452  14.254   7.903  13.312 -0.2579  0.1133 -0.3699
17929W        W35453  18.142  13.638   2.562 -0.0412 -0.2230  0.0857
17930W        W35454   2.802  12.091   0.217  0.2924  0.2075  0.0660
17931W        W35455  10.640  15.564  15.816  0.1859  0.0835  0.0015
17932W        W35456   5.028   9.946   2.070  0.1485  0.2012  0.1684
17933W        W35457  15.244  15.299  12.687 -0.1401 -0.1356 -0.5010
17934W        W35458  14.128   4.094  12.484 -0.1915  0.2445 -0.2079
17935W        W35459  16.307   9.211  15.247  0.2659 -0.1773  0.3499
17936W        W35460  15.155  13.473  15.636 -0.0297  0.2015  0.0004
17937W        W35461  17.095  12.545   0.175 -0.0370 -0.1285 -0.0811
17938W        W35462   1.703   4.073   1.247  0.1223 -0.1775 -0.3353
17939W        W35463   5.377   0.652   0.150 -0.1868 -0.0405  0.0586
17940W        W35464  15.561   3.175   0.396 -0.0849  0.2922  0.0319
17941W        W35465  13.524   4.739  12.589 -0.2524  0.0419  0.2856
17942W        W35466  16.206  10.473   3.749  0.0730 -0.1663 -0.0253
17943W        W35467   7.405   3.069  12.563  0.0096 -0.0336 -0.4025
17944W        W35468  18.081  13.668   3.221 -0.2391  0.2103 -0.2496
17945W        W35469   4.127  13.213  13.932 -0.0840  0.2328 -0.0852
17946W        W35470   1.339   0.758  14.355 -0.0956  0.0457  0.1061
17947W        W35471   3.531   8.302  11.111 -0.2406  0.2349 -0.4080
17948W        W35472  12.918  16.284   3.296 -0.1943  0.0886  0.0142
17949W        W35473   4.047  11.242  12.749  0.0005  0.1971  0.0694
17950W        W35474   4.876   9.055  15.857  0.0634  0.1510  0.0345
17951W        W35475   2.723  16.524   1.566  0.2534  0.0739  0.0683
17952W        W35476   7.653   6.615   2.775 -0.0901 -0.0333  0.0443
17953W        W35477   1.769   2.604   4.481  0.2681  0.2837  0.0817
17954W        W35478   3.998   5.203  13.484  0.3018  0.0773 -0.3767
17955W        W35479  16.330   7.673  12.086  0.1976  0.1123 -0.1270
17956W        W35480   6.560  14.387  12.039 -0.1421  0.0841  0.3213
17957W        W35481   4.807   7.170   3.528 -0.0340  0.2051  0.1779
17958W        W35482   2.244   7.070   1.868  0.1064 -0.1333 -0.1346
17959W        W35483  17.770   3.485   1.624  0.3271 -0.1984  0.1879
17960W        W35484  14.067   3.669  12.879  0.2189 -0.1666  0.1025
17961W        W35485  13.505  14.407  11.669  0.0194 -0.0162  0.3008
17962W        W35486   8.138  17.162  11.950  0.2099 -0.0911  0.4052
17963W        W35487   5.405   9.366  15.575 -0.4221 -0.2218 -0.1068
17964W        W35488  11.767  16.931  11.696  0.1341 -0.1925 -0.3908
17965W        W35489   7.150   8.128   0.868  0.0571  0.0551  0.1567
17966W        W35490   5.716   9.414   2.582 -0.2404 -0.0052 -0.2237
17967W        W35491   7.810   8.810   3.001  0.1773  0.1946  0.0168
17968W        W35492  14.139  12.915   3.312  0.1082 -0.1705  0.0093
17969W        W35493   2.184  15.995   4.267  0.3670  0.0649  0.3495
17970W        W35494   7.495   6.363  14.513  0.1141 -0.0750  0.0519
17971W        W35495   3.623   2.386   3.202 -0.1566  0.0389 -0.2714
17972W        W35496  11.045  13.746  13.467 -0.0641  0.0777  0.1818
17973W        W35497   5.167   7.882  15.106 -0.1372 -0.4428  0.1776
17974W        W35498  14.608  16.704   1.661  0.1048  0.4160  0.0510
17975W        W35499  15.356  13.310   5.704  0.0783  0.2515 -0.0287
17976W        W35500   8.192   8.523   4.910  0.1990  0.3728  0.0034
17977W        W35501   5.872   8.635  16.049  0.0349 -0.4144 -0.1600
17978W        W35502   7.503   6.495  13.365  0.0728  0.5146  0.1279
17979W        W35503  14.576  16.129   1.099 -0.2232 -0.0243  0.1157
17980W        W35504  14.998   3.037  14.952 -0.1472 -0.4085 -0.0037
17981W        W35505  10.870   1.135  12.624 -0.3386  0.2414  0.0349
17982W        W35506  12.045  17.595  14.427  0.1975 -0.1920  0.1764
17983W        W35507   5.542  16.820   1.338 -0.5621  0.3120 -0.0783
17984W        W35508  17.744  17.338   1.467  0.2009 -0.2171 -0.1841
17985W        W35509   0.149   6.801  15.004  0.1791 -0.1370 -0.1062
17986W        W35510   7.766   1.921   0.724  0.1812  0.1152  0.2775
17987W        W35511  15.328  10.227   0.661 -0.4945 -0.3097 -0.0077
17988W        W35512   8.605   3.991   0.753 -0.0309 -0.2400  0.3977
17989W        W35513  13.792  12.779   5.175 -0.1285  0.1700 -0.1241
17990W        W35514  15.015  14.151  11.983 -0.0844 -0.2390 -0.0571
17991W        W35515   7.857  14.167  12.319  0.0876 -0.2564  0.2779
17992W        W35516  13.769  15.541   1.931 -0.1875 -0.0367 -0.1673
17993W        W35517  11.832  16.119  11.242 -0.1351  0.1042  0.0730
17994W        W35518  11.189  12.544   0.854  0.0336 -0.0539  0.0515
17995W        W35519  16.690   7.687   1.020 -0.1138  0.2385 -0.0724
17996W        W35520   8.688  12.062  13.825  0.0252 -0.1189  0.0901
17997W        W35521  12.574   4.676   3.601 -0.4527  0.0541  0.2229
17998W        W35522  15.220  13.068   1.439  0.1529  0.2295  0.1460
17999W        W35523   0.466   1.953  14.913 -0.0330 -0.2337  0.5248
18000W        W35524   1.554  16.950   2.657  0.0348  0.0623 -0.0265
18001W        W35525  14.806   2.312  14.295  0.1520 -0.3022  0.3293
18002W        W35526  11.030  15.037  14.017 -0.0407 -0.1717 -0.0609
18003W        W35527  11.106   4.091   4.248 -0.1322 -0.0339 -0.1360
18004W        W35528  12.398   0.076   0.148  0.1273  0.2637  0.2946
18005W        W35529   8.782   8.534   3.217 -0.2112  0.1167  0.3214
18006W        W35530  13.106  11.355  11.117  0.2571 -0.1210  0.2389
18007W        W35531   7.397   8.988   2.792 -0.1810  0.4453  0.2469
18008W        W35532   4.722  17.371  14.774 -0.1096  0.4474  0.1473
18009W        W35533  15.172  16.425  12.986  0.1870 -0.0847 -0.1510
18010W        W35534   8.305   9.572  11.753  0.2008  0.1738  0.0248
18011W        W35535  10.985   2.501  15.891  0.0274 -0.1718 -0.1497
18012W        W35536   7.618   7.853   2.064 -0.0645  0.0916  0.1586
18013W        W35537   7.615   0.629   2.011  0.0746  0.2536  0.1031
18014W        W35538   3.193   1.479   0.099  0.1517 -0.0950 -0.0170
18015W        W35539  14.837   6.014  11.898 -0.0478  0.0064  0.1665
18016W        W35540   0.877   6.353   1.064 -0.1430 -0.1295 -0.1152
18017W        W35541  10.128   3.286   0.254 -0.1471  0.0121 -0.0077
18018W        W35542  17.961  11.420  12.687  0.1934 -0.2223 -0.1447
18019W        W35543  10.914   4.476  15.638  0.2183 -0.1220 -0.0678
18020W        W35544  10.466   5.903   0.559  0.1161  0.2221 -0.0467
18021W        W35545   1.609   5.906  12.209  0.5411 -0.0104  0.3742
18022W        W35546  14.219   2.685  12.514  0.0304 -0.1280 -0.0350
18023W        W35547   7.853  16.091  12.916 -0.1096 -0.1356 -0.4341
18024W        W35548   7.534  14.018   2.988  0.1042 -0.0962  0.1978
18025W        W35549   8.835   3.640  11.917 -0.2259  0.2661 -0.2523
18026W        W35550  15.650   8.438   3.151  0.2192  0.1168 -0.1383
18027W        W35551  13.237   9.541   4.317  0.0708  0.3232 -0.0977
18028W        W35552   5.185  13.514  14.815 -0.0376  0.0568  0.0068
18029W        W35553  14.100   0.203   1.773  0.3072  0.2214 -0.1691
18030W        W35554   5.674   3.591   0.680  0.3324  0.2476 -0.0407
18031W        W35555   9.160   8.010   1.851 -0.0807  0.1949  0.2016
18032W        W35556   2.799  15.997  12.699 -0.1105  0.4297 -0.0369
18033W        W35557   4.471  17.171   4.660 -0.2742 -0.1497  0.1439
18034W        W35558  18.082   4.727   5.484  0.0294 -0.0779  0.3031
18035W        W35559   2.548   1.362  13.161  0.1476 -0.1471  0.0886
18036W        W35560   6.608  16.038  14.230  0.0407 -0.0489  0.1958
18037W        W35561   8.594   4.892  13.592 -0.1186  0.0438 -0.1992
18038W        W35562  13.858  17.697  14.478  0.0230 -0.1216 -0.0855
18039W        W35563   6.726  18.126  11.807 -0.1823 -0.1473 -0.1550
18040W        W35564  10.016   1.901  15.112 -0.1151  0.3355  0.2567
18041W        W35565   4.461  13.932   2.284  0.0632  0.3134  0.0445
18042W        W35566  11.887   9.635   4.003  0.3709  0.0680 -0.0893
18043W        W35567   3.321  10.656   2.299  0.1874  0.1777  0.3171
18044W        W35568  15.031   5.777  13.331 -0.0647  0.1812 -0.2643
18045W        W35569  10.566  13.305  10.334 -0.2806  0.2022 -0.1234
18046W        W35570  10.803   5.894  12.078 -0.1007 -0.0867  0.2138
18047W        W35571   8.645   2.577   2.259 -0.0593  0.1577  0.2657
18048W        W35572  11.649   6.164  11.642 -0.1233 -0.2427 -0.0118
18049W        W35573   7.668   8.991  14.630 -0.3891  0.1850 -0.0560
18050W        W35574   0.784   8.226   4.694  0.1933  0.2627  0.1866
18051W        W35575  17.911   8.905  13.875 -0.3447 -0.0767 -0.0558
18052W        W35576  17.820   7.821   1.849 -0.0154 -0.2625  0.0350
18053W        W35577   3.806  13.458   1.739  0.2084  0.2276 -0.2254
18054W        W35578  10.447  13.720   0.686  0.1492 -0.0194 -0.3089
18055W        W35579   4.066   0.469  13.526 -0.2491 -0.1212  0.0579
18056W        W35580   6.629  13.947  13.529  0.3438  0.2217  0.1171
18057W        W35581   3.624   1.386   3.219  0.2212 -0.1802  0.2128
18058W        W35582   7.485   2.512   3.607  0.0755 -0.5070  0.0562
18059W        W35583   3.561  13.742   0.140  0.1292 -0.2347  0.1787
18060W        W35584   0.045  14.958  15.973 -0.0940 -0.0665  0.2117
18061W        W35585   0.144  15.319   0.827 -0.1187 -0.2290 -0.0532
18062W        W35586   4.217   0.362  12.626  0.0361  0.0003  0.1343
18063W        W35587  10.433   0.036   3.024  0.1240  0.0119  0.0207
18064W        W35588  17.655  14.170   4.437 -0.1560 -0.1378  0.0405
18065W        W35589   9.916   5.242  15.144  0.1415 -0.1118  0.0809
18066W        W35590  11.637  12.642   2.807  0.1302  0.1262  0.3804
18067W        W35591  16.669  16.239   3.612  0.1935  0.1476  0.0377
18068W        W35592   4.930   9.149   0.892  0.3017  0.0479 -0.2100
18069W        W35593  15.369  17.411  13.574  0.2097  0.0290  0.0530
18070W        W35594   7.862  16.976  13.838 -0.4765  0.0957 -0.0999
18071W        W35595   6.998   9.260  10.858 -0.5386 -0.0616  0.0886
18072W        W35596   0.079   5.802   5.306  0.1424 -0.0770  0.2250
18073W        W35597   2.660   8.935   1.089 -0.1876 -0.0526 -0.1689
18074W        W35598   6.319  15.440   0.404  0.2329 -0.2809  0.0518
18075W        W35599   0.682   1.895   0.605  0.2107  0.0345 -0.1786
18076W        W35600   7.342  15.985  12.001 -0.5074 -0.0756  0.1335
18077W        W35601  10.357   3.016   2.927 -0.3629  0.0529 -0.2379
18078W        W35602  17.894  12.327  15.894 -0.0632 -0.2849 -0.0608
18079W        W35603   9.415   9.464  13.145  0.1198 -0.1122  0.0912
18080W        W35604  12.396   4.785  15.967 -0.1743  0.1605 -0.1646
18081W        W35605   9.958   2.475  14.938  0.1402 -0.3548  0.0163
18082W        W35606   8.892   4.439  15.473  0.1885 -0.0216 -0.0483
18083W        W35607   1.298   7.891   4.380  0.3119  0.0321  0.0667
18084W        W35608   2.162  13.540  13.311  0.0225  0.1753  0.0782
18085W        W35609   3.415  12.107  10.621  0.0853 -0.1923 -0.0352
18086W        W35610   6.765   1.278  13.639  0.3427  0.1931  0.3672
18087W        W35611  15.499  14.417   1.957  0.1930 -0.1334  0.1912
18088W        W35612   5.876  15.752   1.112 -0.0542  0.1226 -0.1024
18089W        W35613  12.039  16.752  12.932  0.1771  0.0391  0.0405
18090W        W35614  12.581  16.488   4.580  0.0197  0.4120  0.2053
18091W        W35615   2.174  14.871   1.804  0.2025 -0.3898 -0.0482
18092W        W35616   7.411  10.056  11.934  0.0794  0.2215  0.0988
18093W        W35617  13.481   9.997   1.903 -0.0326  0.1050 -0.0016
18094W        W35618   3.617  17.932   3.256  0.0249 -0.1311 -0.2119
18095W        W35619   4.367   2.654   3.272 -0.3053  0.3240  0.1478
18096W        W35620   4.604   6.436   4.968 -0.1852  0.0029 -0.0565
18097W        W35621  15.188  16.879   4.261  0.2191 -0.2211 -0.2358
18098W        W35622   0.573   3.477   2.119 -0.1092  0.1126  0.3437
18099W        W35623  15.612  11.840   4.028  0.1584 -0.1143 -0.0116
18100W        W35624  12.813   9.923   4.145 -0.0546  0.1045  0.0579
18101W        W35625   0.311  12.774   1.446  0.3600 -0.0598 -0.2849
18102W        W35626   6.592   5.426  11.920 -0.4506 -0.1964 -0.0795
18103W        W35627   8.002   4.058  12.173  0.0682  0.1115  0.1894
18104W        W35628   9.243   6.366  14.884 -0.1980 -0.0320 -0.3393
18105W        W35629   2.576  15.400   2.540  0.0390  0.1112  0.1695
18106W        W35630   5.705  17.595   1.020 -0.0678 -0.1208  0.1802
18107W        W35631  16.585   1.757   4.728  0.2141  0.0730 -0.2819
18108W        W35632   3.341   7.538  11.776  0.1747  0.0895 -0.1756
18109W        W35633  16.848   9.929  15.027  0.0553  0.1258 -0.0036
18110W        W35634   4.093   1.429  15.941 -0.1622 -0.0361 -0.0762
18111W        W35635   9.278  16.020   2.884 -0.0221  0.0716  0.0967
18112W        W35636   7.056  15.285  11.269  0.0464 -0.0467 -0.3083
18113W        W35637  11.694  17.459   3.717 -0.2173  0.1780  0.0793
18114W        W35638  14.450   5.659  15.042  0.0395  0.0029  0.2526
18115W        W35639   1.902  16.671  14.864  0.1356  0.1366  0.1356
18116W        W35640   7.741   3.416  12.728  0.1581 -0.1310 -0.0849
18117W        W35641  16.662   0.304   0.407  0.0621 -0.0965  0.1092
18118W        W35642  16.034   2.684   3.284 -0.0240  0.1397  0.0810
18119W        W35643  14.644  11.780   3.940 -0.0120 -0.2201 -0.1127
18120W        W35644   8.131  11.131   4.769 -0.0652 -0.0134  0.3809
18121W        W35645   1.921  15.791  14.217  0.2924  0.1248 -0.2005
18122W        W35646   3.166  17.800  15.548 -0.0564  0.0262  0.0323
18123W        W35647   0.585   4.438   0.111  0.2608  0.0084 -0.1579
18124W        W35648  15.951  13.181   4.940  0.4378 -0.2971  0.1585
18125W        W35649   5.757   0.883   4.498 -0.1825 -0.0501 -0.0297
18126W        W35650  12.116  12.914   0.712 -0.1636 -0.0960  0.0935
18127W        W35651   1.677  10.120   1.511  0.4585 -0.3617  0.1438
18128W        W35652   8.715  17.022   0.060  0.0656  0.4009  0.1162
18129W        W35653  11.411  10.158   2.895  0.1447  0.1385  0.3199
18130W        W35654   3.349  17.155  15.723  0.0149 -0.0724 -0.0261
18131W        W35655   6.809  14.185  10.952 -0.0153  0.0010 -0.0741
18132W        W35656   7.221   1.643   1.179 -0.1713 -0.1000  0.1536
18133W        W35657  11.773   9.847   2.973 -0.2442  0.0847 -0.2693
18134W        W35658  12.433   7.920  12.997  0.0424  0.2882 -0.2109
18135W        W35659  10.199  16.703  12.714  0.0756 -0.1600  0.1354
18136W        W35660   4.369  11.646   2.781  0.3868 -0.0563 -0.1922
18137W        W35661  13.569   0.591   3.847  0.0559  0.0952 -0.3710
18138W        W35662  17.975  15.867  15.000  0.1451 -0.0060  0.2118
18139W        W35663  15.406  13.070  14.693 -0.0367  0.1137 -0.1753
18140W        W35664  15.444   5.397  14.808  0.1881  0.1351 -0.1161
18141W        W35665  11.763   3.526  14.779 -0.3325 -0.1861  0.0508
18142W        W35666   6.819   3.172   2.774  0.2775 -0.0357  0.2722
18143W        W35667  12.796   3.094  14.443 -0.0402  0.0533 -0.0578
18144W        W35668  17.279  13.093   0.898  0.1530  0.3116  0.1961
18145W        W35669   4.070   8.108   4.396 -0.1911 -0.0562  0.1796
18146W        W35670   1.025  14.575  12.698 -0.0252 -0.2625  0.1182
18147W        W35671  15.736   2.914  13.542  0.0058  0.0544 -0.0830
18148W        W35672   5.344   1.532   0.740 -0.1763 -0.1208  0.0680
18149W        W35673   4.927   3.134  12.282  0.0506  0.3171 -0.0763
18150W        W35674   9.251   8.300  10.816  0.0841  0.0042 -0.3104
18151W        W35675  13.833   5.510  11.567 -0.1647  0.2482  0.0732
18152W        W35676  15.111   8.081   3.888 -0.1061  0.3509  0.0243
18153W        W35677  17.907  17.422  14.899 -0.1570 -0.1290  0.0550
18154W        W35678  15.728  16.843  14.296 -0.2827  0.1264  0.2150
18155W        W35679   5.840  10.662   0.933 -0.2658  0.1101  0.1961
18156W        W35680   3.149   2.513   2.914 -0.3218  0.1743 -0.1889
18157W        W35681  13.808  16.685   0.558 -0.2156  0.1962 -0.2857
18158W        W35682  11.295   9.197   0.569 -0.0210 -0.1173  0.2727
18159W        W35683  17.771   8.971   0.677  0.2337  0.1901  0.2481
18160W        W35684   9.728   0.031  11.374 -0.4099 -0.1568 -0.1881
18161W        W35685   6.264   6.585  14.839  0.1717  0.0263 -0.3468
18162W        W35686  15.415   1.996  13.628  0.2793  0.1684  0.0275
18163W        W35687  17.153   3.465   3.122  0.0167 -0.1366  0.2748
18164W        W35688   7.535   7.669  15.773 -0.1867  0.0307  0.2557
18165W        W35689   9.358  14.676   4.182 -0.2234  0.0506 -0.2548
18166W        W35690   9.694  12.834   2.188 -0.0751 -0.1197 -0.1264
18167W        W35691   4.434  18.142  12.678  0.2330  0.2815 -0.2341
18168W        W35692  13.082   7.859   3.772  0.2683  0.3597 -0.0619
18169W        W35693   8.768  14.250  15.983  0.0042  0.1688 -0.1996
18170W        W35694  10.403   4.028   0.165 -0.3189 -0.1308  0.3098
18171W        W35695   0.141   9.584   1.584 -0.1441 -0.1083  0.0402
18172W        W35696   1.128   3.234  10.489  0.2140 -0.0279  0.2069
18173W        W35697  16.232   2.843  14.313 -0.6017  0.1887  0.1417
18174W        W35698   2.045   6.594   3.070 -0.0814 -0.0689  0.0297
18175W        W35699   9.175  17.860  15.935 -0.1269  0.2058  0.1002
18176W        W35700   6.014  14.917   3.993  0.0417  0.0135  0.4987
18177W        W35701  17.963   0.466   1.592  0.1437  0.1343 -0.1813
18178W        W35702  13.808   0.519  16.012 -0.2277  0.0772 -0.1890
18179W        W35703  13.663   2.357   1.045 -0.3310  0.1378  0.1282
18180W        W35704   1.076  12.225  14.054 -0.0886 -0.1347 -0.1332
18181W        W35705   6.213   4.140   3.439 -0.2941 -0.0905 -0.3429
18182W        W35706   5.085  13.350   3.311  0.1266  0.2109 -0.5315
18183W        W35707  10.651   3.243   0.836  0.0258 -0.3199 -0.2851
18184W        W35708  17.369  13.371   0.368  0.3649 -0.1933 -0.1039
18185W        W35709  17.051   9.067   1.615  0.1015  0.1552  0.1418
18186W        W35710   9.271  11.299  15.077 -0.1772 -0.1741 -0.1378
18187W        W35711   1.377   3.429   3.146  0.2167  0.3308 -0.2573
18188W        W35712  10.369  17.084   0.783 -0.0515  0.0457  0.1262
18189W        W35713   0.233   1.617  14.021 -0.0023  0.3349 -0.1918
18190W        W35714   6.909   1.456  14.845  0.0652  0.2401 -0.1407
18191W        W35715  10.032  15.455  13.782  0.0334  0.1218 -0.1011
18192W        W35716  10.463   8.954  12.239 -0.1857  0.0790 -0.1295
18193W        W35717  17.426  11.823   1.520  0.1891 -0.2275 -0.0230
18194W        W35718  15.778  15.642  12.019  0.1888  0.0876 -0.2710
18195W        W35719   8.433   7.397  15.766  0.1582  0.0999  0.0500
18196W        W35720  10.536  15.171   0.932 -0.5295 -0.2002 -0.0455
18197W        W35721  17.670   5.408   0.658  0.2167 -0.2203  0.2066
18198W        W35722  15.388  13.286  12.532 -0.1013 -0.0843 -0.2440
18199W        W35723   7.416  11.842  12.452 -0.2029 -0.0550  0.0084
18200W        W35724   6.664  13.651  15.738 -0.0066  0.2480  0.0115
18201W        W35725   9.986   0.430   3.223 -0.0276  0.3781  0.0800
18202W        W35726   4.056  13.961   3.999  0.0493  0.1361 -0.0966
18203W        W35727   1.466  11.989  15.210 -0.0512 -0.0589  0.1048
18204W        W35728   8.542   7.939  13.078  0.1038  0.2361  0.2462
18205W        W35729   7.585   4.786  14.116  0.0624  0.2732  0.0363
18206W        W35730   5.560   3.093   3.716  0.0023 -0.1642  0.0004
18207W        W35731  10.000   3.882   0.480 -0.0139 -0.4174  0.2134
18208W        W35732   5.340   7.726   4.490  0.0849  0.1512  0.3993
18209W        W35733  13.245   8.779  10.980 -0.0730 -0.1987  0.0565
18210W        W35734  11.765  12.229  14.155  0.2352  0.2173  0.1844
18211W        W35735  13.081  10.085   3.724 -0.6041 -0.0846 -0.4168
18212W        W35736   7.112  15.504   1.018 -0.2093  0.3480 -0.0550
18213W        W35737  17.641  15.568   1.347  0.2407  0.1893  0.0693
18214W        W35738  13.169   0.012   3.336  0.2378 -0.1274 -0.3258
18215W        W35739   6.761  14.937   2.832  0.1929 -0.0856 -0.1085
18216W        W35740   1.576  14.322   4.189  0.1215  0.0174 -0.2066
18217W        W35741   7.974   6.664  12.280  0.0578 -0.0112  0.1283
18218W        W35742  16.683  10.001  14.283 -0.0890 -0.1970  0.2218
18219W        W35743   6.397   8.058   4.670  0.0174 -0.1805 -0.1978
18220W        W35744  14.556  14.973  15.241 -0.0912 -0.0903 -0.0164
18221W        W35745   6.561  10.108   5.637  0.2265 -0.0858  0.1679
18222W        W35746  10.674   5.904   4.412  0.0500  0.0401 -0.1232
18223W        W35747  11.192   3.238   1.956  0.0927  0.1484 -0.3679
18224W        W35748   2.700   3.072  14.788 -0.0363 -0.0774  0.1470
18225W        W35749  10.174   7.226  15.062 -0.0383  0.0443  0.2900
18226W        W35750  15.369   7.715   2.076  0.0110  0.0337  0.1587
18227W        W35751   7.643   8.357   3.013 -0.1754  0.0794 -0.0213
18228W        W35752   2.667   7.840  14.772  0.1328  0.0463 -0.0969
18229W        W35753  15.766   9.348  11.770  0.0963  0.2031 -0.3831
18230W        W35754  15.699   8.237  16.017 -0.0385  0.0743 -0.3904
18231W        W35755   7.773   0.728   3.587  0.0745  0.1477 -0.3299
18232W        W35756   8.922  13.115  12.136 -0.1581  0.1074 -0.1084
18233W        W35757   2.830   8.954   4.345 -0.1458 -0.0727  0.1197
18234W        W35758   4.659  14.697   3.797 -0.1396  0.2583 -0.2213
18235W        W35759  12.850   0.186   0.889 -0.0343 -0.0622 -0.0662
18236W        W35760   3.277   1.232  11.904  0.1332  0.2198  0.0747
18237W        W35761  12.590  14.141  11.828 -0.2584  0.1645 -0.0758
18238W        W35762   1.530  10.207   0.705  0.1718  0.1805 -0.2589
18239W        W35763   8.215   1.637  11.271  0.1441  0.0821  0.0086
18240W        W35764   0.540   1.100   2.415  0.0400 -0.0988 -0.4405
18241W        W35765  10.283  11.599  15.618  0.1650 -0.1781  0.1133
18242W        W35766  17.724   0.470  13.613 -0.1284  0.1839  0.0359
18243W        W35767   7.374  18.181   0.827 -0.1880  0.0145  0.2885
18244W        W35768  14.784  15.262  11.955  0.0529 -0.1554  0.1050
18245W        W35769   3.767   1.532   3.866 -0.1363  0.0610  0.1967
18246W        W35770   5.386  18.105   0.695 -0.3496  0.0187 -0.0196
18247W        W35771  14.044  14.909   1.416  0.0724 -0.1812  0.1933
18248W        W35772   5.225  17.749   0.390  0.0897 -0.2242  0.0881
18249W        W35773   6.673   2.209   3.868 -0.0484 -0.0783  0.1398
18250W        W35774   4.682   2.674   2.875 -0.1112 -0.0471  0.1914
18251W        W35775  15.132   4.120  13.451 -0.2569 -0.1800 -0.1319
18252W        W35776   7.379  12.371  14.654  0.2579 -0.0723  0.2727
18253W        W35777  17.353   4.921  15.439 -0.1792 -0.1943 -0.1550
18254W        W35778   5.617   8.877   2.879  0.2254 -0.1584  0.2207
18255W        W35779   4.535   8.652   3.984  0.0486 -0.0525 -0.0394
18256W        W35780  13.602   3.861  11.151 -0.1922 -0.0891 -0.0320
18257W        W35781   1.521  10.302  15.042  0.0919  0.2922  0.0308
18258W        W35782  12.423   3.420  12.834  0.0854  0.0559 -0.3510
18259W        W35783   5.796   0.963   0.185 -0.3953  0.1559 -0.1139
18260W        W35784   5.488  17.598   5.334  0.0839  0.1218 -0.0379
18261W        W35785   3.350   2.799  16.062  0.1916 -0.0798  0.2328
18262W        W35786  14.679  16.918   2.133  0.1776  0.0957  0.0799
18263W        W35787   0.358   0.555   1.339  0.0423 -0.1025  0.1834
18264W        W35788  13.114   0.022  14.342  0.0877 -0.1325 -0.1389
18265W        W35789  14.936  10.345  15.748 -0.0045 -0.2022  0.1597
18266W        W35790  14.436  16.016   0.611  0.1998 -0.0902 -0.1230
18267W        W35791   6.105  12.076   3.053 -0.1976 -0.2553 -0.1471
18268W        W35792  16.514  11.915  15.682 -0.0049 -0.0033  0.3181
18269W        W35793  17.630   7.442  14.383 -0.4654  0.2489  0.3429
18270W        W35794  10.217   1.397  15.591  0.0505  0.1385  0.1629
18271W        W35795  17.119   4.320   1.311  0.0694 -0.1754  0.2578
18272W        W35796  11.126   9.991  15.437  0.2092  0.0823 -0.1579
18273W        W35797  11.182  14.778   0.446  0.0876 -0.0837  0.0534
18274W        W35798   2.753   8.736  12.999 -0.1903  0.1011  0.1760
18275W        W35799   5.532   6.586   1.975 -0.0919  0.0846  0.1831
18276W        W35800   7.257   5.358  11.136  0.0283 -0.0085  0.4146
18277W        W35801   7.049   8.703  10.559 -0.1242 -0.0304  0.0784
18278W        W35802   4.454   5.573  13.072 -0.0904  0.5421 -0.1151
18279W        W35803   4.192   7.417  13.041 -0.2549  0.1532 -0.1364
18280W        W35804   2.023   1.335  15.087 -0.0911  0.3551  0.0402
18281W        W35805   2.720   9.568  14.332 -0.0313 -0.1516  0.0445
18282W        W35806   0.328  10.657  15.721 -0.1627  0.2445  0.1139
18283W        W35807  16.550   9.600  14.686  0.0341 -0.1638 -0.3734
18284W        W35808  10.831  10.812   4.362 -0.0320  0.5494  0.0190
18285W        W35809  14.626   3.349  12.826 -0.1911  0.1426 -0.0270
18286W        W35810  14.279  10.554  15.371  0.1820 -0.2006 -0.1904
18287W        W35811   2.037  11.017  14.141 -0.0650  0.1852  0.1533
18288W        W35812   2.899  10.344  10.587 -0.0968  0.1406  0.0238
18289W        W35813  12.988  17.818  14.625  0.0625 -0.0975 -0.0780
18290W        W35814   9.352   6.674  11.087 -0.0803 -0.1329  0.0807
18291W        W35815   5.021  13.745  15.378  0.1562 -0.1772 -0.1063
18292W        W35816  16.072   3.090   3.721 -0.0145  0.1280  0.0079
18293W        W35817   9.250  12.056  15.463 -0.0926 -0.0134  0.3423
18294W        W35818   5.235   4.136   3.714  0.1391  0.0856 -0.4674
18295W        W35819   5.841   4.559  11.205 -0.1676  0.1228  0.1071
18296W        W35820   2.196   1.197  14.070 -0.0851  0.0246 -0.0674
18297W        W35821  13.799  16.520   0.034 -0.1111  0.1537  0.0993
18298W        W35822  15.400  17.988  14.811  0.0233 -0.2401 -0.2917
18299W        W35823  13.099  10.622   3.749  0.0755 -0.0031 -0.0083
18300W        W35824  16.216   9.098   3.874 -0.3667 -0.0526 -0.2032
18301W        W35825  12.167  17.438  15.414  0.1104 -0.0494  0.2158
18302W        W35826   7.679  14.377   4.165  0.0310  0.0836  0.1272
18303W        W35827   2.961  10.412  13.266 -0.1207  0.1651  0.0661
18304W        W35828   6.641  16.415   4.785  0.3045  0.0343  0.0549
18305W        W35829   5.818  17.083   0.842 -0.0229 -0.4020 -0.1247
18306W        W35830   3.587   9.432   0.372  0.2484 -0.3062  0.3482
18307W        W35831  12.423  15.451  12.908 -0.1561 -0.0177 -0.1861
18308W        W35832   8.256   4.303  12.978  0.1171  0.0636  0.2152
18309W        W35833   3.059   9.675   0.762 -0.0298 -0.2533  0.1049
18310W        W35834   5.461  12.005   3.748  0.0851  0.1907 -0.0183
18311W        W35835  16.224   0.066  14.856  0.3190  0.1107  0.0225
18312W        W35836   0.810   8.067   3.293  0.0246 -0.1086  0.0623
18313W        W35837   7.305   7.038  13.788  0.1133 -0.0582  0.0830
18314W        W35838  12.688  14.542   2.225 -0.1064 -0.1633  0.2883
18315W        W35839  13.751  14.924  13.906  0.0336 -0.0256  0.1102
18316W        W35840  11.601  15.034   0.301 -0.1845  0.1933 -0.0351
18317W        W35841   5.609  11.707  11.621  0.0974  0.2022  0.0657
18318W        W35842   8.695   1.753  10.785 -0.2069  0.0054 -0.1071
18319W        W35843   3.787   9.083   3.459 -0.0469 -0.3781 -0.0820
18320W        W35844   3.183  12.547  15.616  0.0746  0.0337  0.2215
18321W        W35845  11.268  10.886   4.079  0.1618 -0.1672  0.1063
18322W        W35846   6.997  12.978   1.993 -0.1002 -0.1601 -0.1282
18323W        W35847  15.118  15.269   4.569  0.1866 -0.0490 -0.3341
18324W        W35848  15.288   7.617   1.422  0.0316 -0.2454  0.2923
18325W        W35849   6.437  10.762   1.394  0.1268  0.1580  0.0482
18326W        W35850   0.676   7.371  15.365  0.3481 -0.2304  0.1262
18327W        W35851   0.431  15.375  15.730 -0.0534 -0.1590  0.0163
18328W        W35852  14.860  13.849  15.544  0.0023 -0.1872  0.1401
18329W        W35853   3.287  12.282  13.451 -0.1295  0.1206  0.3657
18330W        W35854   2.778   8.783   2.736  0.0436 -0.1404  0.1898
18331W        W35855   8.342   2.270   0.370  0.4110 -0.2047 -0.0538
18332W        W35856   9.265   0.840  14.689 -0.5088  0.1116 -0.2300
18333W        W35857  17.812   6.027   5.306  0.2349 -0.3454  0.1213
18334W        W35858  15.788   3.898  14.136  0.0966 -0.1245 -0.1332
18335W        W35859   2.348  10.630  14.418 -0.6636 -0.0159  0.2998
18336W        W35860   9.991   6.370  14.010  0.0765  0.0269 -0.1646
18337W        W35861   4.323  12.447   4.127 -0.1049 -0.0511  0.1490
18338W        W35862   9.244  12.504  15.603 -0.2558 -0.0209  0.1568
18339W        W35863  12.172  16.447   4.267  0.2645  0.0828  0.0607
18340W        W35864   2.765   5.491   3.987 -0.1685  0.1547 -0.0454
18341W        W35865  17.617   5.141  14.619 -0.0822 -0.1447 -0.0623
18342W        W35866   9.176  14.684  12.484  0.1143  0.1368 -0.0663
18343W        W35867  11.527  14.523   1.804  0.0419  0.4395 -0.1274
18344W        W35868   4.898   2.344   1.617 -0.1160 -0.0736 -0.1841
18345W        W35869   0.558   3.969   2.127  0.1045 -0.0099 -0.2192
18346W        W35870   1.747   9.038  14.952  0.2866 -0.0499 -0.1291
18347W        W35871   1.414   0.514  13.473  0.2271  0.0085 -0.2079
18348W        W35872   2.562   6.451  12.247  0.0008 -0.0672 -0.1644
18349W        W35873  16.222   1.531   3.129  0.3359 -0.3538  0.0398
18350W        W35874   4.729  14.386  14.707 -0.1437  0.1534  0.2679
18351W        W35875   0.213   9.121  14.029  0.1068 -0.0214  0.0627
18352W        W35876  11.014   3.608  11.529 -0.1676 -0.0614 -0.3308
18353W        W35877  12.040  11.501  11.552 -0.0382 -0.1722 -0.0164
18354W        W35878  12.181  14.659   4.636 -0.0971 -0.3866 -0.0112
18355W        W35879  11.843   8.784   3.502 -0.4359 -0.2188  0.2872
18356W        W35880  16.893   2.382   5.425 -0.2592 -0.0759  0.2178
18357W        W35881  11.329   2.898   1.586 -0.1606 -0.1253 -0.0693
18358W        W35882  17.176   0.368  11.969 -0.0668  0.1010  0.0051
18359W        W35883  12.936  11.473   0.376  0.2800 -0.1902 -0.0197
18360W        W35884  16.473   5.704  12.485  0.0498 -0.4779  0.1496
18361W        W35885  11.228   9.642   1.974  0.0374  0.1022 -0.2430
18362W        W35886   9.892   0.212   1.626 -0.1825  0.2531 -0.0185
18363W        W35887   1.174   7.167   3.292 -0.2650  0.0386  0.0738
18364W        W35888   5.998   2.779  15.452  0.1413  0.5707  0.0180
18365W        W35889  10.483   9.653   0.411  0.0143  0.0914 -0.0069
18366W        W35890   5.196  13.509   4.276 -0.2280  0.2479 -0.2248
18367W        W35891   2.059   2.945   4.789 -0.0009 -0.0943  0.0222
18368W        W35892  16.854   8.506  13.359 -0.0882  0.1080  0.0644
18369W        W35893   8.424   4.098   3.712 -0.0393 -0.2235  0.0082
18370W        W35894  15.585   9.333   5.304  0.4032  0.1959 -0.1483
18371W        W35895   1.304  13.786  12.491  0.2818  0.2418 -0.1796
18372W        W35896   3.947   9.216  14.701  0.2745  0.1217  0.0134
18373W        W35897   6.233   5.809   3.112 -0.0562  0.2252 -0.0974
18374W        W35898  11.126  16.924   2.621  0.0916 -0.3953 -0.0202
18375W        W35899  14.875   1.524  13.623 -0.0509 -0.0326  0.1111
18376W        W35900   1.646   2.883   1.512  0.2338 -0.1622  0.2156
18377W        W35901   1.863  12.551  14.194 -0.2326  0.1029  0.2927
18378W        W35902   5.352   0.474   4.371 -0.3278  0.0548  0.0716
18379W        W35903   5.749  15.940   4.793  0.1400 -0.0287 -0.0971
18380W        W35904   7.176   5.768   2.892  0.0502  0.0449  0.1114
18381W        W35905   9.308  12.582   2.281 -0.0033  0.0073 -0.1533
18382W        W35906   6.022   6.572   2.755  0.3006  0.3342 -0.1192
18383W        W35907   4.614   8.569  11.026 -0.1720 -0.0467 -0.2116
18384W        W35908   1.651   5.383   0.398  0.2806 -0.0109 -0.0444
18385W        W35909  17.055   2.585  10.826 -0.1647  0.2051  0.0509
18386W        W35910   6.857   9.560  15.734  0.1618  0.2502 -0.1715
18387W        W35911  12.032   7.591  16.025  0.0770 -0.2197  0.1468
18388W        W35912   5.680  13.796  11.325  0.0355 -0.1246  0.0320
18389W        W35913  13.427   0.224  11.580 -0.3789 -0.0649  0.0656
18390W        W35914   4.718   8.137  15.172  0.0268  0.1869  0.2624
18391W        W35915  13.996  12.490   3.122  0.0887  0.1455  0.2465
18392W        W35916   7.234   3.965   0.123 -0.1920  0.1503  0.3187
18393W        W35917  11.317  11.469   0.446  0.0866  0.1652 -0.1541
18394W        W35918   0.878   1.420  10.837  0.2390  0.3468  0.0578
18395W        W35919   5.904  16.316  11.151  0.1608  0.0212  0.0844
18396W        W35920  17.342  14.911  15.110  0.0604 -0.1108 -0.2308
18397W        W35921  12.496   3.404  12.360 -0.1611  0.0658 -0.1503
18398W        W35922   9.215  14.915  12.980  0.4686 -0.1792 -0.0667
18399W        W35923  11.590  14.078   1.088  0.0315  0.1140 -0.0634
18400W        W35924   6.345  16.929  13.676  0.0573 -0.2742  0.1845
18401W        W35925   3.008  11.183   0.836 -0.1185 -0.1933 -0.1267
18402W        W35926   4.686   2.161   0.967 -0.5014 -0.0487  0.3053
18403W        W35927  15.966  11.895   4.830  0.2751 -0.0406  0.2223
18404W        W35928   6.079  13.213   5.020 -0.0680  0.0737 -0.1955
18405W        W35929   1.461  18.014  11.470 -0.2276  0.1199 -0.3429
18406W        W35930   1.928  12.211  14.696  0.0277 -0.2624  0.1612
18407W        W35931  15.680   7.399  14.374 -0.2457 -0.1838  0.1048
18408W        W35932  16.330  16.931   2.771 -0.2101  0.2512 -0.1077
18409W        W35933  18.070   0.367  11.630 -0.0978  0.3852  0.4341
18410W        W35934   7.170  12.954   4.290 -0.2635 -0.2178 -0.0009
18411W        W35935  15.253   0.840   4.238  0.3078  0.0782  0.0296
18412W        W35936   1.581  12.966   2.958  0.0488 -0.0762 -0.1151
18413W        W35937   0.483  15.447  12.322 -0.0571  0.0265 -0.0446
18414W        W35938  10.594   6.574   5.666 -0.0595  0.2059 -0.1160
18415W        W35939   4.194   3.901  15.259 -0.0373 -0.0845  0.2069
18416W        W35940   6.800   1.292  12.061 -0.2289  0.2033 -0.1201
18417W        W35941  15.812  14.128   4.576  0.2763 -0.0520 -0.0022
18418W        W35942   7.827   9.507  11.988 -0.5195  0.0839 -0.0172
18419W        W35943  13.946   2.806   1.691 -0.0990  0.1604  0.1268
18420W        W35944   1.574   7.336  12.042 -0.1466  0.2985  0.1960
18421W        W35945   3.276  15.242   4.609 -0.3999 -0.2130 -0.0320
18422W        W35946   4.679   2.011   3.174  0.0364  0.0588  0.2513
18423W        W35947   0.717  11.352  12.899 -0.1705  0.0746 -0.2638
18424W        W35948  17.628  13.881  15.621  0.2617 -0.1581 -0.0748
18425W        W35949   2.095  13.609   3.356 -0.1171 -0.0456 -0.2110
18426W        W35950   2.789   4.773  14.508  0.1827  0.1803  0.0253
18427W        W35951   5.265  12.189  15.414  0.2392  0.0067  0.0926
18428W        W35952   3.213   5.806   2.811  0.0164  0.3775  0.0830
18429W        W35953  16.619  10.112   0.191 -0.2123 -0.0988 -0.2209
18430W        W35954  13.300   1.522  11.781 -0.2082 -0.0708  0.0528
18431W        W35955  13.751  17.450   4.432 -0.0525  0.0438  0.0234
18432W        W35956   2.229  14.529  12.871  0.2505  0.2317  0.0147
18433W        W35957  14.520   5.165  12.882  0.0666  0.0356  0.0225
18434W        W35958   3.940   8.669  14.852  0.1553 -0.0561 -0.1192
18435W        W35959  12.999  13.461  11.200  0.2144  0.1335 -0.0976
18436W        W35960  13.829  15.070   5.058 -0.2288 -0.4469  0.2352
18437W        W35961   4.324   1.371   3.926 -0.1046  0.2008  0.1404
18438W        W35962  14.956  12.508  15.756 -0.1903 -0.1667 -0.0180
18439W        W35963   9.564  14.501   0.838 -0.2872 -0.0308  0.3642
18440W        W35964  15.262   9.502  12.882  0.1564  0.2650  0.1386
18441W        W35965  14.939  17.140  13.595 -0.2756 -0.0363 -0.3479
18442W        W35966  10.252   8.079  14.095 -0.3915  0.0685 -0.2718
18443W        W35967   8.791   5.878  14.006 -0.1079 -0.1523 -0.2798
18444W        W35968   5.720   1.841   3.110  0.2049 -0.1806  0.1012
18445W        W35969   8.704   2.246  10.986 -0.0266  0.1047 -0.1694
18446W        W35970  10.504   8.782   1.632 -0.3267  0.1600 -0.3121
18447W        W35971   2.382   0.404  12.901  0.1448 -0.0161  0.2450
18448W        W35972  14.518   2.447   4.326 -0.1706  0.0481  0.1564
18449W        W35973   9.353   7.671  13.689 -0.1634  0.0607  0.1610
18450W        W35974  15.294  11.141  11.480 -0.1463 -0.1313  0.2344
18451W        W35975   0.864  12.067  16.000 -0.1443 -0.0907  0.2329
18452W        W35976   8.513   4.835   3.878  0.1571 -0.1894 -0.2519
18453W        W35977  14.207   5.177  14.124  0.0581 -0.1774  0.0154
18454W        W35978   3.276   4.069  14.173 -0.0298 -0.1099  0.3845
18455W        W35979   7.960  10.929  11.702  0.1488 -0.0162 -0.0872
18456W        W35980  16.680  15.574  14.583 -0.0601 -0.1440 -0.0229
18457W        W35981  12.602   9.331  13.177  0.0103 -0.2523 -0.1656
18458W        W35982  13.833   8.781  12.969 -0.0994  0.0051  0.0568
18459W        W35983  17.587   6.542   0.470  0.0614  0.0917  0.2784
18460W        W35984  11.279  16.264   0.868  0.5098  0.0247 -0.2764
18461W        W35985  12.637   8.145   4.436  0.2569 -0.0550 -0.0049
18462W        W35986  10.102  11.362  11.795 -0.0516  0.0921  0.0599
18463W        W35987  16.690  13.666   3.217  0.0312 -0.1994 -0.0050
18464W        W35988   0.776   9.338   2.319 -0.1771 -0.2882  0.0451
18465W        W35989  11.151  16.024  13.706 -0.1953 -0.0323  0.3214
18466W        W35990  14.073  11.656   5.301 -0.1956  0.1374  0.0339
18467W        W35991   7.308  10.621  11.225 -0.2988 -0.0246 -0.1205
18468W        W35992   5.029   1.038  14.317  0.1700 -0.1916  0.2205
18469W        W35993  14.081   1.033  12.109  0.0296 -0.2183 -0.0595
18470W        W35994   1.401   8.409  14.310 -0.0663  0.1098  0.1974
18471W        W35995  18.039  16.276  15.885  0.0820 -0.0215  0.0254
18472W        W35996  11.728   7.013   3.618  0.0995  0.0245  0.2293
18473W        W35997   1.443  12.040   1.677 -0.1451 -0.0801  0.0691
18474W        W35998   7.654  11.504  12.765 -0.0187 -0.1525 -0.0463
18475W        W35999   2.440   0.963   0.302  0.0998 -0.1135  0.1457
18476W        W36000  12.909  16.862   3.809  0.0269  0.2759 -0.1124
18477W        W36001  12.709   9.876  11.302 -0.0066 -0.2218  0.3287
18478W        W36002  12.089  11.091   0.397 -0.3802 -0.0745 -0.0425
18479W        W36003   3.795  10.739   2.738  0.2285 -0.1988 -0.2263
18480W        W36004   8.532  13.821   2.774  0.1959  0.1289 -0.1207
18481W        W36005   4.018   7.592   2.523  0.0011 -0.0286 -0.0233
18482W        W36006   2.365   7.774  13.940 -0.0392 -0.1985  0.0378
18483W        W36007   4.267   7.612  12.123  0.3045  0.1650 -0.1115
18484W        W36008  15.008  13.877  13.711 -0.0344  0.4082  0.0249
18485W        W36009   7.760  16.681   3.368 -0.1868  0.0905  0.2363
18486W        W36010  15.389   2.040   0.548  0.1612  0.3282  0.0791
18487W        W36011   9.325   1.737  15.705  0.2918 -0.0837 -0.0377
18488W        W36012  12.126  11.393  15.991 -0.0087 -0.1752 -0.1317
18489W        W36013   8.111   0.266   0.256  0.1342  0.2463 -0.0113
18490W        W36014   9.227   3.729  15.827 -0.1217  0.1369 -0.1317
18491W        W36015   0.315   4.274   3.319 -0.0927 -0.0365 -0.4407
18492W        W36016   4.210  18.152  13.555  0.0531 -0.0429 -0.0705
18493W        W36017  11.762  10.664   4.420 -0.0091  0.1450 -0.4414
18494W        W36018  10.468  13.009  11.286 -0.1906  0.3365  0.0931
18495W        W36019   0.907   6.675  13.739  0.0031  0.2270  0.0719
18496W        W36020  15.377   5.489   3.103 -0.2072 -0.2932  0.1108
18497W        W36021  16.443   0.844   1.302 -0.0232  0.0988  0.0811
18498W        W36022  13.365  14.213   1.011 -0.0426  0.2610 -0.1734
18499W        W36023   0.928   6.388   0.575  0.0761 -0.1977  0.1333
18500W        W36024   8.493  13.731   0.927 -0.2935  0.0506  0.0886
18501W        W36025   5.423   3.671  13.612 -0.1440 -0.0123  0.2988
18502W        W36026  11.627   9.137   0.181  0.0751  0.2031 -0.0517
18503W        W36027  15.829  12.747   1.501 -0.0181  0.0322 -0.1547
18504W        W36028  16.783   0.703   1.822  0.1365 -0.0160 -0.1041
18505W        W36029  15.149  17.873   2.514  0.0958  0.0544  0.0503
18506W        W36030   0.808   9.865  15.550  0.1945 -0.1299  0.1687
18507W        W36031   7.048  17.292  14.423  0.1280  0.1603 -0.0409
18508W        W36032   5.171  14.701   5.751  0.0993  0.5861 -0.0069
18509W        W36033  15.201  11.160  11.980 -0.0539 -0.2929  0.2594
18510W        W36034  12.167   0.211  11.002 -0.1952  0.0944  0.1581
18511W        W36035   5.332  11.367  14.800 -0.1922 -0.0954  0.0597
18512W        W36036   9.012   4.383   0.318  0.0680  0.0680  0.2911
18513W        W36037  14.682  13.488  14.063  0.0854  0.0107 -0.1970
18514W        W36038   4.617  14.066  15.614 -0.1195 -0.0902  0.0047
18515W        W36039  17.753  13.267   4.723 -0.2137  0.1053 -0.1720
18516W        W36040   9.485  11.479   1.894  0.2376  0.0018 -0.1575
18517W        W36041   4.166   6.731   0.126 -0.2223  0.0145 -0.2412
18518W        W36042   0.262   7.055   3.518  0.0146 -0.0258 -0.2480
18519W        W36043  11.313   7.745  10.595 -0.1441  0.0502  0.2577
18520W        W36044   6.961  10.474  15.546  0.3447 -0.0489 -0.0189
18521W        W36045   5.211  10.657  13.861 -0.0434 -0.3184  0.2199
18522W        W36046   4.190   5.641   0.650  0.0343  0.4113 -0.0850
18523W        W36047   0.066   3.010   2.272  0.0021 -0.1864 -0.0106
18524W        W36048  14.164   3.824  11.953  0.1038 -0.1764 -0.0766
18525W        W36049  15.632   0.738   4.977  0.1536 -0.1687  0.2334
18526W        W36050   2.681   5.267   2.412 -0.3241 -0.2424  0.3762
18527W        W36051  10.087  10.130  14.945 -0.1755 -0.1105 -0.0025
18528W        W36052   3.758   5.139  12.095 -0.3086  0.0127  0.1918
18529W        W36053   8.694   0.929   4.732 -0.1312 -0.0999  0.0102
18530W        W36054   5.834  16.185   4.268 -0.1007 -0.3060  0.1782
18531W        W36055   9.357  14.870  15.629 -0.0829  0.1236 -0.0652
18532W        W36056  13.903   5.919   4.326 -0.0546 -0.0419 -0.3121
18533W        W36057   7.879  12.226  10.762 -0.0950 -0.1581  0.1606
18534W        W36058   4.814  12.490  14.886 -0.0486 -0.0519  0.0146
18535W        W36059   1.506   4.599   5.094 -0.1034  0.0534  0.3764
18536W        W36060  11.605   9.136   3.924  0.0178 -0.1450 -0.2666
18537W        W36061  16.384   1.911   4.309  0.2792  0.0693  0.2457
18538W        W36062  14.426   4.807   2.031 -0.1723 -0.3383  0.0079
18539W        W36063   8.338   8.819  13.894 -0.2572  0.0099  0.1645
18540W        W36064   7.919   4.990  13.357  0.1809  0.3422  0.0667
18541W        W36065   1.107  10.067  15.202 -0.0402 -0.0096 -0.0780
18542W        W36066   4.517   5.113   3.395  0.2863 -0.0468 -0.1160
18543W        W36067  11.241  18.024   2.353 -0.0026 -0.0165  0.1563
18544W        W36068  13.888   1.492  12.015  0.0065 -0.0662  0.1155
18545W        W36069  15.284  11.517  15.246  0.2488  0.0842 -0.0032
18546W        W36070   5.894   4.744   3.986  0.0237  0.0792  0.1584
18547W        W36071   0.644  15.237  11.515  0.0650  0.0921  0.0998
18548W        W36072   3.773  18.018   2.202 -0.0526  0.0896 -0.0938
18549W        W36073   8.552   0.856   4.048 -0.3960  0.1715  0.2382
18550W        W36074  13.716  12.162  12.998 -0.0402  0.2402 -0.1425
18551W        W36075  13.854  16.491  11.954 -0.2258 -0.1713  0.1088
18552W        W36076   9.922   3.621   3.674  0.1977  0.0954 -0.2403
18553W        W36077  10.368  16.073   5.875 -0.0528 -0.3280 -0.3104
18554W        W36078  14.453  12.463  13.059 -0.0005 -0.1799 -0.1870
18555W        W36079  11.916   5.833   5.040 -0.0558  0.2895 -0.1184
18556W        W36080  12.574  17.968  13.155  0.1191  0.3343  0.0024
18557W        W36081   3.977   2.159   0.644 -0.0609 -0.1732 -0.0612
18558W        W36082  16.270  15.665   1.213 -0.0184 -0.2136 -0.2447
18559W        W36083   8.346  17.678   1.088 -0.0682  0.0245 -0.0606
18560W        W36084  17.328   6.171   0.171 -0.3549 -0.2778 -0.1969
18561W        W36085  13.347   0.181   1.098 -0.0746  0.1941 -0.3096
18562W        W36086   7.356  14.482  15.403  0.0193 -0.0354  0.0216
18563W        W36087   5.371  12.599   0.225 -0.3700 -0.1640  0.0048
18564W        W36088  16.819   2.404  13.515 -0.0140  0.1901 -0.0994
18565W        W36089   1.804   6.977   2.724 -0.0386  0.3919 -0.2585
18566W        W36090   8.708  17.145   2.165  0.5590 -0.2884  0.0250
18567W        W36091  12.067  14.859  14.610 -0.0099  0.0485 -0.1635
18568W        W36092   8.138   2.782   4.571 -0.2651  0.1901 -0.0119
18569W        W36093   9.634  12.202   4.725 -0.1572 -0.1175 -0.2320
18570W        W36094   1.527  10.496   3.496  0.2074  0.1818 -0.2168
18571W        W36095  13.899  10.092  15.014 -0.0351  0.2462 -0.0255
18572W        W36096   6.697  10.731  15.995  0.1248  0.0232  0.4087
18573W        W36097   8.554   9.915  15.626  0.1682  0.1964  0.0529
18574W        W36098   9.451  13.502   4.254  0.1967  0.5230 -0.0197
18575W        W36099  14.816  17.095   1.316  0.1306 -0.0433 -0.0785
18576W        W36100   2.544  10.427  14.922  0.3742 -0.0970  0.1787
18577W        W36101   3.776  14.153  15.996 -0.0844 -0.1181  0.1552
18578W        W36102  14.332   0.943   3.740 -0.0740 -0.0712 -0.0068
18579W        W36103   4.554  12.229  14.128  0.0238 -0.1541 -0.0220
18580W        W36104  16.139   3.469   3.409 -0.2606  0.0860  0.2875
18581W        W36105   1.248  16.502  14.487 -0.2668  0.0764 -0.1546
18582W        W36106   4.581   1.866   1.878 -0.2733 -0.1807 -0.0873
18583W        W36107   6.296   2.335  14.643  0.0083  0.0707 -0.2071
18584W        W36108  15.375   3.986  11.255 -0.0570  0.0706 -0.0936
18585W        W36109   0.733   8.303   2.470 -0.0611  0.0569  0.0857
18586W        W36110   2.452   3.269   1.968  0.0897  0.1916 -0.1089
18587W        W36111  14.874  13.948  11.536 -0.0169 -0.2064 -0.0586
18588W        W36112  10.097   5.273   2.348 -0.2302  0.3812 -0.0244
18589W        W36113  11.033   0.098  15.688  0.1172  0.0210 -0.0143
18590W        W36114   9.207   7.587   2.663 -0.0541 -0.0567  0.1924
18591W        W36115   3.860   8.174  11.571  0.3300 -0.0809  0.1421
18592W        W36116  15.075   4.610  13.186 -0.2122  0.0650 -0.0515
18593W        W36117   8.949   6.496   4.630  0.0449  0.1718 -0.0303
18594W        W36118   7.812   7.095  12.536 -0.0782  0.1428  0.1809
18595W        W36119  12.122  12.477   2.749  0.1834 -0.0167  0.0071
18596W        W36120   6.348  16.667  14.843  0.4131  0.0865 -0.1750
18597W        W36121  12.814   2.114  16.058  0.1272 -0.1908  0.3905
18598W        W36122  14.506  11.341  14.595 -0.2880 -0.0119 -0.0956
18599W        W36123  15.740   7.576   1.170  0.0446  0.1937  0.1359
18600W        W36124  17.664   4.148   2.053  0.0756 -0.0253  0.2988
18601W        W36125   7.025  13.506   3.515  0.0176  0.0566 -0.0038
18602W        W36126   6.121   3.302   9.833  0.2120  0.1222 -0.1002
18603W        W36127  14.598   5.038  13.783 -0.1933 -0.0861 -0.1180
18604W        W36128   3.480  15.122  11.713  0.2638  0.2535  0.2860
18605W        W36129  10.167  13.569  12.605  0.1702  0.1002 -0.1895
18606W        W36130  15.297  17.563   0.042  0.2225  0.2607  0.1529
18607W        W36131   2.744   5.820  13.621  0.3231 -0.1122  0.0227
18608W        W36132   7.959  16.672  12.069  0.2646  0.0697  0.3571
18609W        W36133  14.691   6.806   5.095  0.0518  0.2129 -0.2484
18610W        W36134  15.737  17.699  15.815 -0.0898  0.1286 -0.0996
18611W        W36135  13.056   3.371  13.695  0.2352 -0.2339  0.0907
18612W        W36136   2.533  17.182   1.112  0.0761 -0.0584  0.1220
18613W        W36137   4.601  17.536   0.816 -0.1197  0.0049 -0.0588
18614W        W36138  10.763  13.705  15.284  0.1287  0.2734  0.1020
18615W        W36139  14.923   5.175  12.555 -0.4471 -0.3290  0.1706
18616W        W36140  12.571   0.553   2.533 -0.2122 -0.1249 -0.2249
18617W        W36141  15.028  13.622  11.856  0.0295  0.2629 -0.2437
18618W        W36142  12.177   3.843  15.829  0.2421  0.0046 -0.0421
18619W        W36143  17.669  15.474  12.242 -0.0927  0.3176  0.2128
18620W        W36144   5.534  15.001   2.046  0.5031  0.0967 -0.3997
18621W        W36145   8.134  10.169   3.063 -0.0273 -0.1443  0.0402
18622W        W36146   6.476   1.579  10.937 -0.0744  0.3204 -0.0356
18623W        W36147  13.177   8.614   5.175 -0.0645  0.0121  0.1646
18624W        W36148   4.045  15.469  13.247 -0.1248 -0.1231 -0.0568
18625W        W36149  17.063  16.477  11.319  0.1326 -0.1562 -0.0002
18626W        W36150   1.951   4.711   4.863 -0.5031  0.0572  0.0736
18627W        W36151   4.991   5.576   2.769 -0.1883 -0.1537 -0.3354
18628W        W36152   5.740  12.454   3.020  0.0571 -0.0674 -0.2297
18629W        W36153   4.312  17.631   2.026  0.1776 -0.1095  0.0880
18630W        W36154  17.754   8.709  15.793  0.0849  0.1544 -0.0658
18631W        W36155   8.018   4.194  11.698  0.0290  0.0800  0.1535
18632W        W36156  13.559  17.437  12.547  0.0697 -0.2158  0.0180
18633W        W36157   3.764   8.524   0.967  0.0004 -0.1527 -0.4251
18634W        W36158   6.738  17.800  15.023 -0.4602 -0.2386 -0.1246
18635W        W36159  15.174  13.541   0.549 -0.0974 -0.2060 -0.1025
18636W        W36160   1.121   0.591  13.939 -0.1819  0.0408  0.0318
18637W        W36161  13.344   4.200   1.915  0.0241  0.4298  0.0348
18638W        W36162  12.502   4.232   0.486 -0.0111  0.0610  0.3198
18639W        W36163   3.829   5.216   2.233 -0.3050 -0.3545 -0.0006
18640W        W36164   0.784   5.476   2.650  0.0236  0.0359 -0.1816
18641W        W36165   0.768  14.263  15.167  0.3591 -0.1102 -0.3060
18642W        W36166  16.624   4.809  14.926  0.0659  0.0154 -0.0742
18643W        W36167   3.154   6.909  11.017  0.1953  0.1499  0.2291
18644W        W36168   8.673   9.167  11.825  0.0127  0.1203 -0.1311
18645W        W36169   9.368   6.993  12.327 -0.1837 -0.2146 -0.0027
18646W        W36170  10.056   9.345  15.309 -0.0384  0.0021 -0.0948
18647W        W36171  10.545   0.079   3.981 -0.1071 -0.1259  0.0990
18648W        W36172  15.773  17.470  12.017 -0.0683 -0.3345  0.0829
18649W        W36173   5.696   2.650  14.030 -0.1419  0.1214 -0.3006
18650W        W36174  14.234   2.005   4.158 -0.2221  0.1672 -0.2091
18651W        W36175   0.715  10.664   1.373  0.0921  0.0058 -0.2561
18652W        W36176   6.215  11.628  15.929  0.0694 -0.1081 -0.0039
18653W        W36177   5.680   3.898   0.248  0.1524  0.2429  0.0111
18654W        W36178  12.049   9.183  13.244  0.2589 -0.0569 -0.2366
18655W        W36179   3.942   3.324   2.845 -0.0779 -0.0366 -0.2992
18656W        W36180  16.209   4.457   2.244  0.1152  0.1567  0.2209
18657W        W36181  14.693   4.024  15.783  0.0678  0.1084  0.2069
18658W        W36182   2.273   4.888  12.726  0.1345 -0.1490 -0.1031
18659W        W36183   7.939   4.177   3.498 -0.1248 -0.2565  0.1900
18660W        W36184   3.226  15.969   4.177  0.0337  0.2966 -0.0444
18661W        W36185   1.421   5.976   3.907  0.5113 -0.0756  0.1357
18662W        W36186  16.093   0.876  13.376 -0.1137  0.0318 -0.4892
18663W        W36187   7.917  12.370   0.258 -0.3288  0.1693  0.0820
18664W        W36188   7.256  18.034  11.344 -0.5374 -0.0620  0.0243
18665W        W36189  15.753   6.713  15.574 -0.2905 -0.0625  0.2387
18666W        W36190   7.531   6.417   0.820  0.1736  0.0517  0.0953
18667W        W36191   1.437   3.291   4.151 -0.2580 -0.1938 -0.0934
18668W        W36192   3.534   0.666   0.236 -0.0733  0.0444 -0.2295
18669W        W36193  16.586  15.193  11.372  0.2601  0.1627 -0.0360
18670W        W36194   3.305  17.100   0.889 -0.1340  0.0521 -0.1163
18671W        W36195   7.822   5.621   2.059 -0.0888  0.2184  0.1447
18672W        W36196  17.083   8.209   1.316  0.0281  0.2503  0.0027
18673W        W36197   4.788   5.949   0.038  0.1524  0.0932 -0.2571
18674W        W36198   9.326   3.858   3.400 -0.0926 -0.1870  0.1007
18675W        W36199  13.806  15.158   4.516 -0.0929 -0.0126  0.0461
18676W        W36200   4.248  15.750   1.285 -0.0242 -0.1699 -0.0661
18677W        W36201   7.488  15.158   4.920 -0.0449 -0.2180  0.1426
18678W        W36202   2.372   1.595   3.885 -0.3380 -0.0078 -0.2979
18679W        W36203  10.975  15.155   3.047 -0.0262  0.1633  0.1847
18680W        W36204   9.638   5.501  13.799  0.1725  0.0333  0.0935
18681W        W36205   6.830   1.384  11.605  0.0410  0.2614 -0.1843
18682W        W36206  11.288  14.076   0.292  0.0602  0.1643 -0.0585
18683W        W36207   3.948   0.034  14.531 -0.2618 -0.2063 -0.0292
18684W        W36208   6.829   5.651   3.787 -0.1895  0.0671  0.2581
18685W        W36209   3.483  10.449   3.111  0.0572 -0.2894  0.2725
18686W        W36210   3.547  16.016  11.503  0.0236  0.2678  0.2442
18687W        W36211   0.683  13.474   2.160  0.1036  0.1851 -0.1282
18688W        W36212  13.820  16.047   1.739 -0.2457 -0.2123  0.1537
18689W        W36213   7.527   7.787   2.918 -0.2665 -0.0160 -0.0866
18690W        W36214  14.702   4.542   5.053 -0.3149  0.0585 -0.2191
18691W        W36215   9.908   1.587   0.403 -0.0227 -0.0780 -0.1077
18692W        W36216   0.457  10.286   0.705  0.1094 -0.0636  0.0766
18693W        W36217   7.966   2.457   3.409 -0.1456  0.4693  0.0414
18694W        W36218   6.487  14.227  14.528 -0.4149 -0.1453 -0.0880
18695W        W36219   9.287   5.985  15.805 -0.1083 -0.2083 -0.0369
18696W        W36220  11.186  13.578  15.521  0.2509 -0.7456  0.1367
18697W        W36221   1.511   1.331   0.309  0.2846 -0.3241 -0.0543
18698W        W36222  16.724  16.071  11.294 -0.2432  0.0911 -0.1551
18699W        W36223  10.682  13.271  14.102  0.2745  0.0041 -0.2496
18700W        W36224  10.859   5.443  13.014  0.2509  0.1234 -0.0508
18701W        W36225   4.477   2.576  12.918 -0.3705  0.0079  0.3258
18702W        W36226   0.733   4.222   4.187  0.0764 -0.1960 -0.0089
18703W        W36227   8.691  11.211  11.154 -0.2095  0.0321  0.0255
18704W        W36228  10.508   2.281   3.778  0.0331  0.3228 -0.1147
18705W        W36229  16.486   9.086  14.691  0.1603 -0.1127 -0.1843
18706W        W36230  15.037   1.611  12.803 -0.2107  0.2251 -0.3942
18707W        W36231  17.945   6.598  13.104 -0.0583 -0.1813  0.1681
18708W        W36232   8.248  10.979  11.303  0.1044  0.0028 -0.1212
18709W        W36233   4.788   8.876   3.093 -0.2597  0.2908  0.0655
18710W        W36234   2.181  15.336   1.526  0.0815 -0.0807  0.0623
18711W        W36235   3.296   6.232  12.994  0.2710 -0.0059 -0.0039
18712W        W36236   1.144   1.099   3.026 -0.3056  0.2224 -0.3207
18713W        W36237  16.163   9.420  12.651 -0.0605  0.0228  0.1646
18714W        W36238   0.320  17.348   1.203  0.0623  0.3118 -0.1453
18715W        W36239  12.840   2.349  11.518 -0.3163 -0.2432  0.1185
18716W        W36240  14.535   7.626  11.902  0.1045 -0.0173 -0.0003
18717W        W36241   0.481   0.382  14.535  0.0285  0.2962  0.1226
18718W        W36242   1.203   4.379   2.797 -0.0673  0.0363 -0.0766
18719W        W36243  18.120   8.323  12.366  0.1105 -0.0450 -0.0652
18720W        W36244   8.497  18.155   0.357  0.0343  0.3496 -0.0061
18721W        W36245   6.714   3.437   0.939  0.0350 -0.2009  0.1741
18722W        W36246   8.625   5.212  14.026 -0.1632  0.2693  0.0883
18723W        W36247   9.689   6.277   3.801 -0.1358  0.0227 -0.4451
18724W        W36248  17.365  16.743  12.534  0.1169 -0.2310 -0.3423
18725W        W36249   7.563   9.272   1.059 -0.2191 -0.0954  0.1378
18726W        W36250   3.447  17.156  14.409  0.0365 -0.1565 -0.2577
18727W        W36251  13.349  17.426  13.160  0.1195  0.0197 -0.1103
18728W        W36252   3.833   4.963   4.238 -0.2167 -0.4975  0.3541
18729W        W36253   4.714   5.377  14.588  0.1759 -0.1238 -0.2690
18730W        W36254   1.367  15.650   0.379 -0.1098 -0.0441  0.1285
18731W        W36255   6.708  15.669  14.535 -0.1629  0.1739 -0.3614
18732W        W36256  14.356   9.711   5.300  0.2007 -0.1535 -0.0369
18733W        W36257  17.951  11.645   4.343 -0.1297 -0.0737  0.1967
18734W        W36258  16.095  10.421   1.723 -0.0939 -0.0144 -0.0765
18735W        W36259   0.305   6.596   1.670 -0.0150 -0.1175  0.0129
18736W        W36260   0.627   9.485   4.949 -0.1859 -0.0068 -0.0890
18737W        W36261   3.067   5.950  14.017  0.1479  0.0430 -0.2422
18738W        W36262  10.895   5.031   4.458  0.3244  0.3202 -0.0776
18739W        W36263   1.772   9.884  14.071 -0.1858 -0.0735 -0.2556
18740W        W36264  13.609   0.139   1.522  0.3251 -0.2602 -0.0920
18741W        W36265   7.370   2.849   3.899 -0.0377 -0.1786  0.2881
18742W        W36266  13.225   6.649   1.651 -0.3408  0.0215  0.1739
18743W        W36267  17.816  13.124  14.422 -0.0118  0.2485 -0.0329
18744W        W36268   5.975  10.709   4.554  0.0521  0.1018 -0.3725
18745W        W36269  13.751   5.082   3.026 -0.3003 -0.2784 -0.0520
18746W        W36270   8.125   3.517   2.268  0.0939 -0.0820 -0.0790
18747W        W36271   6.481   4.478  13.939 -0.0208  0.1719 -0.2850
18748W        W36272   6.821   6.893   0.866  0.0205  0.0029 -0.0959
18749W        W36273   0.916  12.112  13.195 -0.0217  0.1233 -0.0976
18750W        W36274  17.979   5.063   0.822  0.1077  0.1935 -0.0851
18751W        W36275  16.923  12.036   6.032  0.0362 -0.0649  0.1721
18752W        W36276  16.189   7.561  15.481 -0.0952 -0.4542 -0.1273
18753W        W36277  15.486   6.835   3.555  0.7164 -0.1620 -0.0971
18754W        W36278   2.444  10.240  11.395  0.1497  0.0642 -0.1123
18755W        W36279   1.677   8.291   6.165 -0.3573 -0.0056 -0.2379
18756W        W36280   0.750   7.889  13.590  0.0650 -0.0027 -0.0677
18757W        W36281   8.308  11.505  11.339 -0.0666 -0.0851  0.1495
18758W        W36282   5.307  17.703   2.650  0.1996  0.1285 -0.0881
18759W        W36283  18.061  16.259   3.590 -0.1162  0.1819  0.0678
18760W        W36284   4.312  16.206   0.911 -0.3509  0.0353  0.4110
18761W        W36285  15.496  15.387   1.865 -0.5033  0.2126 -0.0588
18762W        W36286   8.279   8.675  12.564  0.0827  0.0651 -0.2284
18763W        W36287   6.137   2.629   0.183  0.1885  0.0370 -0.0104
18764W        W36288   5.124   7.022  15.783 -0.2009  0.1808 -0.2578
18765W        W36289  16.012  15.735   2.550 -0.2582  0.0255 -0.3630
18766W        W36290  16.943   1.645  11.624 -0.3024 -0.2145  0.0896
18767W        W36291   9.083   9.951  11.660 -0.1634 -0.0780  0.0478
18768W        W36292  12.387  10.704   0.797  0.1236 -0.0274 -0.2762
18769W        W36293   5.280  12.337   1.370 -0.2480 -0.1477 -0.0904
18770W        W36294  14.236  10.101   2.430 -0.0189 -0.3708  0.1128
18771W        W36295   6.842   7.343   0.639  0.0627  0.1503  0.2320
18772W        W36296   1.125   3.035   2.193 -0.4137 -0.1692 -0.0017
18773W        W36297   9.795   9.213  12.361  0.0406 -0.2459 -0.0783
18774W        W36298   4.411   7.214  15.140 -0.0005 -0.2784  0.3544
18775W        W36299   7.794  10.210   0.156  0.1605 -0.0240  0.0720
18776W        W36300  17.256   0.288  12.525  0.2532  0.2544 -0.2756
18777W        W36301   6.289  15.886   0.647 -0.1218 -0.1502 -0.1420
18778W        W36302   9.319  12.141  10.940 -0.1302  0.0329  0.1555
18779W        W36303  14.622  14.329   1.252  0.1350 -0.2637  0.1222
18780W        W36304   1.671   6.411   2.692  0.2138 -0.3492 -0.0072
18781W        W36305  12.798  10.154   1.334  0.3003  0.0122  0.2241
18782W        W36306   4.207  14.913   0.622 -0.1068  0.2388  0.3319
18783W        W36307  11.968   7.321  12.279 -0.0896 -0.1131 -0.1336
18784W        W36308  11.379   4.451  14.043 -0.2727 -0.0652  0.0561
18785W        W36309   7.914  11.062   0.304  0.1122  0.0211  0.0805
18786W        W36310   0.705  12.156  13.682 -0.0159 -0.0170  0.1663
18787W        W36311   8.665  15.245   5.127 -0.1095 -0.1191 -0.0840
18788W        W36312   5.843   0.150  11.713 -0.1567  0.1467 -0.1353
18789W        W36313  10.944  17.424   0.787  0.4648 -0.3775  0.0616
18790W        W36314   0.606  16.976   2.216 -0.2005 -0.0603 -0.2773
18791W        W36315   4.291   1.758  11.157 -0.3808 -0.1161  0.1237
18792W        W36316   3.957  13.310  15.479  0.0814  0.2663  0.0078
18793W        W36317   6.683   3.525  12.037 -0.4081  0.3894 -0.3282
18794W        W36318   9.439  16.602  11.171 -0.0742  0.3995  0.0656
18795W        W36319   9.671  11.121   3.184  0.0477 -0.1110  0.1907
18796W        W36320  13.138   0.439   3.624  0.1310 -0.1923 -0.1272
18797W        W36321  16.793   3.109   2.243 -0.0585 -0.0492  0.2002
18798W        W36322  11.247  10.421   6.160 -0.0694 -0.0916 -0.1377
18799W        W36323   6.240  14.116  14.970 -0.0694  0.3216 -0.1103
18800W        W36324  10.932   7.491  13.970 -0.0979 -0.0230  0.0354
18801W        W36325   7.490   4.997   1.657  0.2550  0.2494 -0.1357
18802W        W36326  11.199   4.342  14.521 -0.1183 -0.2207  0.1677
18803W        W36327  14.350  10.926   2.642 -0.4168 -0.0139 -0.1362
18804W        W36328  18.184  14.823  14.641  0.0991  0.0593 -0.1314
18805W        W36329  15.116  14.204   5.332 -0.3539  0.3582  0.1071
18806W        W36330   2.345   8.423  13.117  0.0387  0.1238 -0.1197
18807W        W36331   2.005   1.664   4.282 -0.1063 -0.1548 -0.0965
18808W        W36332   1.653  10.294  12.143 -0.0988 -0.4157 -0.1950
18809W        W36333  13.053   4.837  12.600 -0.3929  0.2631  0.1427
18810W        W36334   0.245   5.975  12.678 -0.5336 -0.2091 -0.3029
18811W        W36335   8.932   6.102   5.004  0.1076  0.3669 -0.0741
18812W        W36336  11.790   6.053  13.318 -0.0393  0.0161  0.0506
18813W        W36337  12.952  17.573   0.185  0.1922 -0.1579 -0.0773
18814W        W36338   1.419  10.411  11.001 -0.1753  0.1419 -0.0348
18815W        W36339   8.810   2.636  13.078  0.1609  0.1563  0.3065
18816W        W36340  18.021   0.228   0.158 -0.2412 -0.0604  0.2363
18817W        W36341  14.219  15.798   2.014 -0.0983  0.2263  0.3565
18818W        W36342  13.227   8.157   1.582  0.0360  0.2038  0.2011
18819W        W36343  10.702  10.708  13.310  0.0840  0.3586  0.0525
18820W        W36344  11.069  15.048  12.734  0.0376 -0.1759  0.2529
18821W        W36345   0.625   9.787  11.097  0.2332 -0.0603 -0.0792
18822W        W36346   0.205  14.031   3.060 -0.2404 -0.0889 -0.0112
18823W        W36347  11.959  13.253   0.363  0.2918  0.1323  0.4895
18824W        W36348  15.371   8.640  11.439  0.1394  0.0357 -0.0231
18825W        W36349  11.851   3.287   2.909 -0.3096  0.0709 -0.1147
18826W        W36350   5.983  11.286  13.394  0.2182  0.1214  0.0536
18827W        W36351  11.480  17.886  13.251  0.1035 -0.0325 -0.1551
18828W        W36352   8.373   2.739  13.860  0.0214  0.0442 -0.1869
18829W        W36353  12.633   9.555   4.431  0.0666 -0.0652  0.0455
18830W        W36354   1.853   6.862   3.756  0.0697 -0.2202  0.1735
18831W        W36355   6.373   7.924  15.104 -0.0895 -0.2166 -0.2457
18832W        W36356   1.358  11.345   1.613  0.2603 -0.1005 -0.0997
18833W        W36357   0.472   4.284   3.794  0.3275  0.0864 -0.0023
18834W        W36358   0.920   2.246   0.948  0.1521  0.1389 -0.0165
18835W        W36359   0.210   8.260   3.808  0.0519 -0.0176  0.2931
18836W        W36360  13.524   2.800  14.813 -0.3369  0.0390  0.0566
18837W        W36361  17.014   6.785   3.472  0.1884  0.1302 -0.0056
18838W        W36362  14.407  13.341   3.078 -0.0188  0.2196 -0.0456
18839W        W36363  17.410   8.941  13.992 -0.0423 -0.1442 -0.2464
18840W        W36364  10.244  14.699   4.176  0.1723  0.1844 -0.3708
18841W        W36365  11.218  17.291   3.575  0.1783  0.0295 -0.3228
18842W        W36366  16.705   2.657  15.305 -0.2053  0.2372 -0.1839
18843W        W36367  16.952   4.527  13.168  0.0867  0.3894 -0.0831
18844W        W36368   7.553  15.684   1.806 -0.3574 -0.1270 -0.3058
18845W        W36369  14.234  12.632   1.165  0.0847 -0.1929 -0.1302
18846W        W36370   8.117   3.643  13.148  0.3290 -0.1298 -0.1256
18847W        W36371   3.690   0.761  11.650 -0.3950  0.0847 -0.3038
18848W        W36372  17.921  13.918   1.222 -0.2028 -0.0500  0.2343
18849W        W36373   9.483   2.880   1.967 -0.2356 -0.2277  0.1303
18850W        W36374  16.569   0.812   4.918 -0.0754 -0.3224  0.0391
18851W        W36375  14.769  13.578  10.512 -0.1921  0.1435 -0.3255
18852W        W36376   5.681   3.553   4.605 -0.2492  0.0269 -0.0474
18853W        W36377   2.542   6.498   2.989  0.2946  0.1901  0.1095
18854W        W36378   6.183  15.314  11.860 -0.1781 -0.0316  0.0635
18855W        W36379  13.145  16.688   0.717  0.1087  0.2524 -0.1466
18856W        W36380   6.459   8.670   0.575 -0.1854 -0.1849 -0.0950
18857W        W36381  15.604  12.679   2.602 -0.0153  0.0851  0.0692
18858W        W36382   7.877  15.636  14.206 -0.2411  0.0809  0.0916
18859W        W36383  17.582   4.535   3.254  0.1270  0.0621  0.0217
18860W        W36384   3.492  13.396  11.425 -0.0345  0.1964  0.0963
18861W        W36385  10.923   9.559  15.756  0.4658 -0.0783 -0.2608
18862W        W36386   7.434  10.822  12.107 -0.0898 -0.1300 -0.4332
18863W        W36387   8.820  10.458  14.668 -0.1341  0.2361  0.2775
18864W        W36388   8.751  14.852  11.448 -0.0283 -0.1191 -0.2868
18865W        W36389  10.317   3.107  11.641 -0.1616  0.2836  0.1657
18866W        W36390  12.768  17.060  12.465 -0.1230 -0.1361  0.2118
18867W        W36391   1.061   8.851   4.239 -0.0474  0.2848 -0.0317
18868W        W36392   0.981  14.165  13.912  0.1043  0.2612  0.0269
18869W        W36393   0.399  15.685   0.279  0.0102 -0.2867 -0.2864
18870W        W36394  12.758   2.538  13.715  0.1231 -0.1136  0.1473
18871W        W36395   9.786   9.704  15.204 -0.1965 -0.4238  0.2208
18872W        W36396  11.906  15.041   3.801  0.1215 -0.2180 -0.0387
18873W        W36397  12.963  15.384  12.156  0.1523  0.1416  0.0088
18874W        W36398  10.836   4.821  15.313 -0.1047 -0.0286  0.0410
18875W        W36399   9.453  12.931   4.347 -0.2314  0.2168  0.0325
18876W        W36400   2.522   9.420  15.132 -0.0450 -0.1780  0.0262
18877W        W36401   9.745   3.187  13.880  0.0553  0.2003 -0.1787
18878W        W36402   8.387  18.177   3.987 -0.0777 -0.0235  0.1764
18879W        W36403  16.130   7.419   0.204  0.0787  0.1143  0.0185
18880W        W36404   8.285   7.816  14.952  0.0047  0.1113  0.1559
18881W        W36405   9.936   5.057  11.608  0.0396 -0.0955 -0.1878
18882W        W36406   7.957   7.709   0.596  0.3665 -0.1522  0.4026
18883W        W36407  11.168   7.295  15.310  0.2420  0.0163 -0.0819
18884W        W36408   0.566  12.901   4.486  0.3250 -0.1945  0.1149
18885W        W36409  11.055   3.302  15.143  0.4551 -0.1488  0.0740
18886W        W36410   3.780  12.443  10.753  0.1317  0.0113  0.0986
18887W        W36411  16.635   5.401  14.243  0.0840  0.2148  0.1984
18888W        W36412   1.894  14.198   4.506 -0.0286 -0.1286  0.0183
18889W        W36413   8.188   7.416  12.732  0.0913  0.1682 -0.0437
18890W        W36414   4.644  14.501  15.921  0.1769 -0.0979 -0.1427
18891W        W36415   9.673  17.937   4.048  0.0389  0.1751  0.1110
18892W        W36416  14.029   7.143  12.904  0.1076 -0.0533  0.1635
18893W        W36417   4.929  16.095   4.224 -0.1844 -0.1182  0.2526
18894W        W36418  13.957   4.815   2.226  0.0169 -0.0214 -0.0572
18895W        W36419   3.825  11.747  11.943  0.0627  0.0212 -0.0165
18896W        W36420   7.152   0.485   0.135  0.3415  0.1499  0.0543
18897W        W36421  18.038  15.610  11.938  0.0990  0.0359  0.1611
18898W        W36422  15.950  14.398   0.495  0.1248  0.1434 -0.1762
18899W        W36423  10.346   7.741   4.923  0.2656  0.0534  0.0426
18900W        W36424  12.471  14.232   0.897 -0.1278  0.2041  0.2011
18901W        W36425   1.644   3.056  14.900 -0.1505  0.1705  0.2859
18902W        W36426   4.001  18.161  15.489 -0.0026 -0.0894 -0.0185
18903W        W36427  16.212   9.621  11.514  0.0953  0.0027  0.1196
18904W        W36428  14.951   4.305   4.719  0.1744 -0.0913 -0.0488
18905W        W36429  11.711   3.953   2.108 -0.0124 -0.0247 -0.0592
18906W        W36430  10.924   5.178  11.515 -0.0589  0.0411 -0.0898
18907W        W36431   7.793   3.706   3.240 -0.0792  0.1344  0.4343
18908W        W36432   1.091   9.850   1.128  0.1723 -0.0129  0.0916
18909W        W36433   3.636   0.596  13.715  0.1669 -0.3265 -0.0552
18910W        W36434  16.053   8.193  11.763  0.1136  0.4990 -0.0102
18911W        W36435  15.705   9.824   2.468 -0.0619 -0.1064 -0.2915
18912W        W36436  12.621  10.938  13.165 -0.0406 -0.1101  0.2947
18913W        W36437   1.208  13.832   3.434 -0.0812 -0.1622  0.0374
18914W        W36438  17.838  12.417   4.967  0.1520  0.2056 -0.2160
18915W        W36439   7.695   2.802   2.718  0.1200  0.0108  0.0093
18916W        W36440  13.266   8.585  15.565  0.0007 -0.1586  0.1268
18917W        W36441   1.855   2.637  15.020  0.2769  0.2600  0.4982
18918W        W36442  16.019   8.664  11.862  0.1347 -0.0222 -0.3028
18919W        W36443   1.722   5.727   4.842  0.0623  0.3316 -0.1357
18920W        W36444  12.637  11.083   0.549  0.0320 -0.3450  0.0924
18921W        W36445  11.860  12.759  13.554 -0.0359 -0.0266  0.0175
18922W        W36446   3.194   0.559  13.402 -0.2162 -0.1906 -0.0507
18923W        W36447   2.377  13.365   0.035  0.1193 -0.2757 -0.2506
18924W        W36448  16.603  11.581   1.835 -0.1915  0.0028 -0.1578
18925W        W36449   4.867  14.513   0.660  0.1248  0.1757  0.0209
18926W        W36450   6.965   3.544  15.328 -0.0563 -0.0630 -0.1374
18927W        W36451  12.271  16.303   2.270 -0.1974  0.0521  0.0390
18928W        W36452   5.599   6.186  15.178 -0.0652 -0.1176  0.2172
18929W        W36453  16.192  14.942   0.163 -0.1270 -0.0693  0.0290
18930W        W36454   5.888   4.857  13.369  0.0327  0.0363  0.1034
18931W        W36455  10.739   5.285  11.962  0.1518 -0.2327 -0.1416
18932W        W36456  14.312  16.065   3.639 -0.0347  0.0186  0.0276
18933W        W36457   7.859  16.689   0.421  0.0032 -0.1587  0.1858
18934W        W36458  11.804   4.417   4.781 -0.2272  0.1433  0.0924
18935W        W36459  11.235  11.317   6.092 -0.0414  0.3159 -0.0976
18936W        W36460   3.937   1.786   3.415  0.3040 -0.2637  0.0917
18937W        W36461   1.081   8.251  12.849 -0.1592  0.0515 -0.0551
18938W        W36462   1.029  16.838   4.791  0.1772  0.1420  0.2473
18939W        W36463   5.384  11.387   2.035 -0.0595  0.0162  0.3256
18940W        W36464  12.090   2.091   1.236 -0.0001  0.3302  0.0313
18941W        W36465  17.857   5.493   3.524 -0.0256  0.0038  0.0360
18942W        W36466   1.099   7.151   0.403  0.0643  0.5544 -0.1216
18943W        W36467  11.164  17.448  14.031  0.1330 -0.0437 -0.2139
18944W        W36468  15.273  17.554  15.577 -0.0991  0.2009 -0.1692
18945W        W36469   0.069   2.608   0.209 -0.0501  0.1696  0.1686
18946W        W36470   6.389   5.637   2.425  0.1001 -0.1724  0.1762
18947W        W36471  12.554  15.391  11.414  0.1134  0.0104 -0.2630
18948W        W36472   4.988   5.254   4.528  0.0932 -0.0429  0.1029
18949W        W36473  14.118   4.861   2.777  0.2449  0.1656  0.0948
18950W        W36474  14.985   3.682  14.708 -0.1916  0.0869 -0.0374
18951W        W36475   7.465  16.083   5.229  0.1094 -0.4080  0.1181
18952W        W36476   9.095   2.901   1.200 -0.2527  0.2033 -0.2267
18953W        W36477  12.290  18.007  15.309 -0.1955 -0.0607  0.1256
18954W        W36478   9.187   3.081  15.224 -0.2732 -0.1486 -0.1002
18955W        W36479   8.175   1.185  13.384  0.0464 -0.1443  0.1121
18956W        W36480  13.705   9.521   3.299  0.0961 -0.2940 -0.0644
18957W        W36481   9.051   2.945   2.330  0.0303 -0.0466  0.1340
18958W        W36482   6.534   2.564  11.270  0.0850  0.2107 -0.0052
18959W        W36483   8.430   7.699   3.318  0.1275  0.1285  0.2109
18960W        W36484   8.064  16.877  15.616 -0.0989 -0.0180 -0.1636
18961W        W36485   7.707   5.911  15.522  0.1511  0.0705 -0.0656
18962W        W36486  13.833   6.112   0.930  0.1198 -0.0627 -0.2104
18963W        W36487  12.356   2.589  15.695  0.0976 -0.0702 -0.1134
18964W        W36488   2.723   5.706  11.657 -0.3710 -0.2053 -0.0703
18965W        W36489  11.255  16.348  11.168  0.1456  0.1014 -0.2044
18966W        W36490  10.197  12.143  10.291 -0.1051 -0.0319  0.0546
18967W        W36491   2.278  15.319  16.011  0.2379  0.1020  0.3288
18968W        W36492   9.308   5.751   2.762  0.1516  0.1955 -0.1487
18969W        W36493   9.839  17.782  14.971  0.2244  0.0580  0.1884
18970W        W36494  14.801   3.514  12.384  0.2681 -0.0879 -0.0510
18971W        W36495  15.961  15.459   3.664  0.0421 -0.0239  0.0284
18972W        W36496   8.082  15.472  11.005  0.1103 -0.0904 -0.1629
18973W        W36497  14.079   0.191  15.441  0.2401  0.2940  0.1497
18974W        W36498  14.744   8.337   2.112  0.0128  0.0784 -0.3595
18975W        W36499   8.574  10.288  13.531 -0.1590 -0.0621  0.2421
18976W        W36500   9.417   5.863  14.081 -0.1351  0.2158  0.2637
18977W        W36501  10.370  17.596  15.318 -0.3566  0.2381  0.2629
18978W        W36502   4.784  14.349  14.159 -0.1879 -0.0602  0.3231
18979W        W36503  11.448  10.598  11.208  0.2509 -0.1522 -0.3026
18980W        W36504  11.300  16.835   5.446 -0.0761 -0.2208  0.0723
18981W        W36505   0.389  11.060   3.241  0.0970 -0.3638 -0.0439
18982W        W36506   4.456   8.038  10.975  0.3352  0.0296 -0.0930
18983W        W36507  10.265   1.006   4.026  0.1409 -0.2200  0.1501
18984W        W36508   5.998   1.796   0.815  0.2772  0.2355  0.2416
18985W        W36509   9.606   0.386  13.362 -0.2955 -0.0115 -0.3980
18986W        W36510  10.972   8.970  12.262 -0.1183 -0.1464 -0.1106
18987W        W36511  14.034  15.258   0.202  0.2028  0.0898  0.1229
18988W        W36512   2.227  13.869  14.135 -0.0547  0.1271 -0.0554
18989W        W36513  11.450   9.921   3.930 -0.3397 -0.0457  0.0411
18990W        W36514   3.817  17.409   1.400  0.3973 -0.2414  0.0479
18991W        W36515  12.902   1.527   4.845  0.1040  0.0831  0.0652
18992W        W36516   7.135   3.925   2.345  0.4921  0.4008 -0.1801
18993W        W36517   9.874   5.102  10.916 -0.1044  0.2046  0.0692
18994W        W36518   5.769   0.657   3.202  0.4684 -0.5735 -0.2018
18995W        W36519   3.855   5.113  11.580 -0.1754  0.1742  0.0225
18996W        W36520   0.241  14.002   1.407 -0.1364  0.1268 -0.3175
18997W        W36521   3.258   1.427  14.451 -0.2044 -0.0052  0.2550
18998W        W36522   6.298   6.505  12.931 -0.2200 -0.0852 -0.2691
18999W        W36523   2.123  14.775   4.369  0.4522 -0.0316 -0.0317
19000W        W36524   0.429   5.954  10.812  0.1690 -0.1838  0.1658
19001W        W36525   1.539  17.998   3.208 -0.4896  0.3477 -0.3258
19002W        W36526   6.955   8.862  16.036 -0.1594  0.0313  0.2144
19003W        W36527  11.613   1.068   3.001  0.3168  0.2057  0.0456
19004W        W36528  10.063   6.304   4.091  0.4091  0.0634 -0.1692
19005W        W36529  16.886   7.957   4.179  0.0818  0.1693  0.1401
19006W        W36530   5.788  15.945  10.855  0.4707 -0.1118  0.0748
19007W        W36531  16.969   3.830  14.847  0.1487 -0.0688  0.0915
19008W        W36532  16.154  11.590  15.339 -0.0622  0.2347 -0.0171
19009W        W36533   7.409   6.759  12.414 -0.0026 -0.0633  0.2860
19010W        W36534   3.915  17.798  13.704 -0.1935  0.3374 -0.2747
19011W        W36535  10.450   2.255  15.012 -0.3233 -0.0497  0.0711
19012W        W36536  10.195   8.377  15.534  0.0280  0.0348 -0.0017
19013W        W36537  10.733   9.150   0.430 -0.3063  0.2996  0.0774
19014W        W36538  18.038  10.294   1.592 -0.0168  0.3092 -0.2019
19015W        W36539   0.304  10.146  14.010 -0.2056  0.0204 -0.3051
19016W        W36540  15.913  13.842   3.803  0.0850  0.1717 -0.1614
19017W        W36541   1.499   4.422  14.716 -0.0027 -0.0807 -0.0714
19018W        W36542  15.142  10.745   3.625  0.1017  0.1717  0.2200
19019W        W36543  11.624   4.119  14.805 -0.0268 -0.0313  0.2125
19020W        W36544   2.708  16.543   0.372  0.1401  0.0567  0.0917
19021W        W36545   9.873   3.001  13.335 -0.2293  0.3902  0.2379
19022W        W36546   1.388  12.902  11.830  0.0064  0.1437 -0.0765
19023W        W36547   2.288  14.765   3.370  0.0722  0.3616  0.0818
19024W        W36548   2.684  14.622  15.467 -0.1022  0.0151 -0.0209
19025W        W36549  14.318   3.345  15.277  0.0662  0.3570 -0.0464
19026W        W36550  16.944  11.825   2.459  0.0973 -0.1597  0.2583
19027W        W36551  11.881   6.448   1.427 -0.0650 -0.2168 -0.3578
19028W        W36552  11.892   7.352  15.524 -0.1825 -0.0423  0.0394
19029W        W36553  12.307   6.025  15.477  0.0112 -0.0212 -0.1194
19030W        W36554   5.950   0.660   1.777  0.1149  0.0661 -0.2034
19031W        W36555  10.563  14.997   3.304  0.1365 -0.0350  0.2726
19032W        W36556  16.258   1.860  15.374 -0.1451  0.1178  0.2970
19033W        W36557  15.964   0.296   4.225 -0.0755  0.3561  0.1931
19034W        W36558   6.448  11.920  12.719  0.1058 -0.3575  0.1178
19035W        W36559   9.955   7.996   5.747  0.0931  0.2054 -0.2832
19036W        W36560   9.277  11.399   3.357  0.1369 -0.0513  0.1991
19037W        W36561   4.408   3.943   2.446 -0.2454 -0.0896 -0.2501
19038W        W36562  11.591  10.439   4.013  0.0554  0.1341 -0.0091
19039W        W36563   2.377  12.563  14.939  0.2406  0.1023  0.1105
19040W        W36564  14.484  16.193  13.719 -0.1638 -0.3692 -0.1308
19041W        W36565   3.244   4.816  13.235 -0.0652  0.2570  0.1464
19042W        W36566   6.321  12.912  13.404 -0.3043  0.0196 -0.0655
19043W        W36567  14.170  13.887   0.570 -0.0796  0.2037  0.2280
19044W        W36568   8.686   6.892   1.650 -0.0598 -0.0356 -0.1005
19045W        W36569  11.879   8.736  13.253 -0.3225 -0.2382  0.2181
19046W        W36570   8.058   7.940  13.283 -0.0134 -0.0873 -0.0033
19047W        W36571   0.280  13.615  15.685 -0.0755  0.1285  0.0725
19048W        W36572  15.929   8.732  16.032 -0.0077  0.1108 -0.0906
19049W        W36573  15.762   3.231  12.825 -0.0412 -0.0122  0.1689
19050W        W36574   7.691   8.140  14.187  0.0846 -0.1832 -0.4798
19051W        W36575  12.005   0.330   1.756 -0.1596 -0.1223 -0.1014
19052W        W36576  15.235   5.628  11.479 -0.2891 -0.0023  0.0440
19053W        W36577   1.673   9.645   0.635 -0.4522  0.3607 -0.1605
19054W        W36578   5.004  10.772  15.672 -0.2710 -0.2875  0.1249
19055W        W36579  17.461  16.996  14.225 -0.2189  0.1709 -0.3864
19056W        W36580   6.395   3.732   1.989 -0.1149 -0.1315 -0.2699
19057W        W36581   5.723  14.520  11.853 -0.1550 -0.0547  0.0246
19058W        W36582   5.787  11.078  12.979 -0.0317 -0.2254 -0.2235
19059W        W36583  15.443  12.882   3.236 -0.0117 -0.0658 -0.1755
19060W        W36584   5.265   8.163   4.672 -0.2963 -0.2135  0.2459
19061W        W36585  17.253   1.206   2.615  0.0229  0.0866  0.1136
19062W        W36586   2.104   2.889   1.863 -0.0579 -0.0505  0.3922
19063W        W36587  10.376   7.093   2.350 -0.0448 -0.1153 -0.2066
19064W        W36588  12.075  17.885  11.117 -0.1955  0.0089 -0.0299
19065W        W36589   4.784   4.043  15.135 -0.2833 -0.0581  0.2240
19066W        W36590   2.672  16.152  13.685 -0.1161  0.2267 -0.1150
19067W        W36591  14.454  10.426  16.025 -0.0082 -0.1632 -0.1426
19068W        W36592   5.890  13.120  11.094 -0.1708 -0.0043  0.1429
19069W        W36593   1.049   4.603  13.947  0.2045  0.4614 -0.0585
19070W        W36594  10.289  11.708  13.234  0.1696  0.1981  0.0635
19071W        W36595  14.956  15.076   1.837 -0.0508  0.2006  0.3288
19072W        W36596   1.422   7.585   3.924  0.2154 -0.0776  0.0659
19073W        W36597   7.555  14.136   0.984  0.0952 -0.1330 -0.3659
19074W        W36598   8.127   3.868  15.294 -0.0051  0.1725 -0.2052
19075W        W36599  18.180   0.235   1.167 -0.1096 -0.0479 -0.1281
19076W        W36600  12.073   4.390   0.755 -0.1289 -0.1023  0.1445
19077W        W36601  16.176   1.583   0.689  0.1273 -0.1564 -0.0727
19078W        W36602  17.122   2.469  14.662 -0.3653  0.3186 -0.2883
19079W        W36603  17.426  13.982  12.392 -0.1269 -0.2061  0.0299
19080W        W36604   5.593  12.007   4.651 -0.1884  0.0180 -0.0719
19081W        W36605   2.770   6.781  15.421 -0.2481  0.2235  0.1306
19082W        W36606  14.206  15.837   0.982 -0.1119 -0.1068  0.0327
19083W        W36607  10.414   0.224  11.506  0.4703 -0.0085 -0.1164
19084W        W36608  13.583   0.776  12.604 -0.0502  0.4099  0.0755
19085W        W36609  17.670   7.942   4.634 -0.0668 -0.2131  0.4607
19086W        W36610   5.197  10.071   3.817  0.0836  0.0309  0.1576
19087W        W36611  14.694  14.076   2.549 -0.0378  0.1020 -0.1614
19088W        W36612   2.053   7.274  12.190 -0.1877  0.0632  0.0820
19089W        W36613   6.497  13.712   0.149  0.0456  0.3398 -0.1868
19090W        W36614   3.977   2.933   1.233  0.0606  0.1553 -0.0790
19091W        W36615   8.403   1.509  12.456  0.1457  0.0743 -0.3091
19092W        W36616   0.841  10.112   6.260  0.0376  0.0219 -0.3477
19093W        W36617  13.176  13.352  11.633  0.1817 -0.3499  0.0722
19094W        W36618  10.243   2.739   3.898  0.0779  0.0213 -0.1585
19095W        W36619   6.797   0.844   1.991  0.6464  0.0774 -0.0630
19096W        W36620   4.632   6.475  12.202  0.2011 -0.4541 -0.0095
19097W        W36621   2.145   5.175  13.963  0.2010 -0.0342 -0.2940
19098W        W36622   2.009  16.881  12.144  0.4671 -0.0778  0.0908
19099W        W36623  14.382   7.259   4.786 -0.0595 -0.1911 -0.0861
19100W        W36624   3.381   3.307  11.641 -0.0249  0.1543  0.0626
19101W        W36625  14.306   2.675   0.301  0.1455 -0.2655  0.0695
19102W        W36626   5.933   3.465   3.794 -0.0900 -0.0975 -0.1086
19103W        W36627   2.423   6.084   2.272 -0.0065 -0.1349  0.1245
19104W        W36628   5.867   9.595  11.291 -0.0200  0.4274  0.1064
19105W        W36629   8.898   8.034   3.220  0.0204 -0.0670  0.1121
19106W        W36630  16.235   9.126  13.785 -0.2261 -0.6185  0.3034
19107W        W36631   7.433   9.618   3.256  0.1329  0.0864  0.0039
19108W        W36632  11.005   7.222  14.867 -0.2009 -0.1085  0.0236
19109W        W36633   8.614   4.725   1.375  0.1226 -0.0947  0.0433
19110W        W36634  17.531   2.776  13.110 -0.1770  0.1071 -0.0857
19111W        W36635   0.956   2.084  12.573  0.4349  0.1287 -0.0542
19112W        W36636   4.400  13.175   4.240 -0.2587  0.0774 -0.1286
19113W        W36637   7.759   5.829   3.937  0.0540  0.0658  0.0053
19114W        W36638  13.869  16.722   5.007 -0.0899  0.2547 -0.1853
19115W        W36639   1.209  14.712  13.775 -0.1914  0.2898  0.0711
19116W        W36640   6.421   5.784  14.977  0.0712 -0.0784  0.1065
19117W        W36641   4.492   0.913  11.076  0.1384 -0.0995 -0.0932
19118W        W36642   9.309   2.580  13.664  0.1853  0.1694  0.2903
19119W        W36643  12.074  17.191   1.696  0.0151 -0.1024  0.0276
19120W        W36644  10.897  10.464   2.628  0.0976 -0.2482  0.2144
19121W        W36645   6.728   7.090  15.343  0.0595  0.1194 -0.0585
19122W        W36646  17.275   5.767   0.427  0.2986 -0.1764 -0.2096
19123W        W36647   4.275   0.775   0.872  0.2686  0.1840 -0.1355
19124W        W36648   7.375  17.085  15.934 -0.0189  0.1747 -0.1994
19125W        W36649   2.360  15.496  11.098 -0.0156  0.0197  0.2929
19126W        W36650  13.099  16.103  16.086 -0.0255  0.0261  0.1920
19127W        W36651  13.181   9.503   0.697 -0.2300  0.0371 -0.2026
19128W        W36652  12.867   5.834   5.197 -0.0914  0.0273 -0.2571
19129W        W36653   1.510   4.976   1.682  0.1921  0.2078 -0.2776
19130W        W36654  12.717  11.589  14.504 -0.1636 -0.0637 -0.0987
19131W        W36655   1.435   9.026  13.767  0.1637 -0.0623 -0.1587
19132W        W36656   6.539  14.038  15.438  0.1021  0.3489  0.1346
19133W        W36657  11.846   4.858  11.223 -0.2903  0.0637 -0.0853
19134W        W36658   6.392  11.766  13.997  0.1740 -0.0492 -0.1237
19135W        W36659  17.006  16.557  14.235  0.0659 -0.2091  0.0797
19136W        W36660  10.754  11.459   3.537  0.1265  0.1590 -0.1405
19137W        W36661  16.715  13.938   2.213 -0.2524  0.0082  0.0432
19138W        W36662  16.594  13.316  15.313  0.1878  0.4092  0.1708
19139W        W36663   7.382   4.854  12.664 -0.4192  0.1618 -0.2879
19140W        W36664  14.654   9.162   0.378 -0.2734  0.3503  0.0969
19141W        W36665  11.223   8.566  13.586  0.0881 -0.0326  0.1874
19142W        W36666   6.130   5.113   4.964 -0.2378  0.1674 -0.0413
19143W        W36667   5.135   5.103  15.895 -0.1495  0.3006  0.3728
19144W        W36668  12.319   2.473   2.555  0.1218  0.0707  0.1206
19145W        W36669   0.937  10.419  11.088 -0.1361 -0.0910  0.2406
19146W        W36670   1.719   1.575  15.465  0.1817  0.2174 -0.5629
19147W        W36671   5.678   3.826   4.123 -0.1894  0.2230  0.0241
19148W        W36672  17.492   0.463   0.141  0.3252  0.0020  0.4777
19149W        W36673   5.982   9.029   3.873 -0.3563 -0.0544  0.0623
19150W        W36674   5.420   8.984  12.976 -0.3734  0.1587  0.5871
19151W        W36675  16.133  10.237  10.830  0.1412  0.1183 -0.0268
19152W        W36676  14.055  17.708   0.848  0.0735 -0.3544 -0.2471
19153W        W36677   4.757   6.364   0.991  0.3108 -0.0131 -0.1554
19154W        W36678  13.797  16.600   3.713 -0.0563 -0.0723  0.2381
19155W        W36679   9.330  15.099  14.560 -0.0133  0.1062 -0.1945
19156W        W36680   4.105   3.433  13.047 -0.1834 -0.0988  0.1609
19157W        W36681   3.673   6.587  13.073  0.0462 -0.0994 -0.0614
19158W        W36682   5.018  14.285   0.215  0.0117 -0.1370 -0.2609
19159W        W36683  16.402   4.775  13.117  0.0060 -0.3746  0.0055
19160W        W36684   3.522  14.778   4.132 -0.1478 -0.0001  0.1475
19161W        W36685   2.102   4.788  14.879  0.0712 -0.0006 -0.3724
19162W        W36686   2.971   8.662  15.351 -0.0920  0.0433  0.1226
19163W        W36687   5.233   9.591   3.476  0.0131 -0.1540  0.0532
19164W        W36688  17.686  14.223   2.298  0.1506 -0.0896  0.0201
19165W        W36689   6.406  17.595  10.998 -0.0553 -0.0787  0.1256
19166W        W36690  15.329   0.950   2.793 -0.0548 -0.0492 -0.3739
19167W        W36691   0.363   0.979  12.154 -0.0618  0.2471 -0.0290
19168W        W36692   8.180  12.605   1.945  0.0393 -0.1081 -0.0080
19169W        W36693  13.515  18.157  12.350  0.1509  0.0203 -0.0158
19170W        W36694  17.880   3.925  15.866  0.2028 -0.1677 -0.1027
19171W        W36695   4.716  10.027  16.047 -0.0600  0.1672  0.2262
19172W        W36696   1.687  14.172  11.516 -0.4432 -0.0001 -0.1021
19173W        W36697  14.152   2.556  15.914  0.1916  0.0664  0.0437
19174W        W36698   4.512   2.777  12.442  0.2688 -0.2404  0.2638
19175W        W36699  12.496   4.434   2.739  0.2550 -0.0609  0.0198
19176W        W36700  10.385   9.656   0.872  0.0924 -0.2440 -0.1128
19177W        W36701   4.882  14.568  10.711 -0.1110 -0.0054 -0.1023
19178W        W36702   6.665  15.174   0.967  0.4779 -0.1197  0.4023
19179W        W36703   3.231   4.967   2.276  0.0123  0.3979 -0.1622
19180W        W36704   6.901   4.324  13.705 -0.3515 -0.2072  0.1347
19181W        W36705  10.663   8.004   3.496  0.0267 -0.0409  0.0825
19182W        W36706  14.424   0.984  13.918 -0.1316  0.2269  0.3219
19183W        W36707  17.938  10.578  14.422 -0.2912  0.0143  0.1326
19184W        W36708  17.291  12.261   3.638 -0.3555 -0.1116  0.1507
19185W        W36709  16.535  14.801  15.197  0.0346 -0.1803 -0.0964
19186W        W36710  14.804  14.432   3.630 -0.0042 -0.0479  0.0670
19187W        W36711   1.105   0.481   3.887  0.2325  0.0478 -0.1164
19188W        W36712  12.878   6.562  14.815 -0.1676 -0.2457 -0.2556
19189W        W36713  16.884   1.696  14.215  0.1823 -0.2332  0.2560
19190W        W36714   4.381  10.300   4.303 -0.0031  0.0758 -0.4288
19191W        W36715  12.511  11.373   5.434  0.2016  0.0355 -0.3321
19192W        W36716   6.423  17.642  12.525  0.1280 -0.4014  0.2177
19193W        W36717   9.816   4.145   3.387 -0.0101 -0.0040 -0.2563
19194W        W36718  12.869   1.160   1.274  0.0035 -0.1119 -0.3332
19195W        W36719   2.991  16.272  14.033  0.0042  0.1313  0.3668
19196W        W36720   4.327  15.209  15.054  0.3139 -0.1346  0.1177
19197W        W36721  12.699   0.204   3.376  0.0163  0.0554  0.0374
19198W        W36722  12.966   0.093   1.514  0.3178 -0.0485  0.2161
19199W        W36723   4.836   6.988  13.521 -0.1340  0.0762 -0.0064
19200W        W36724   1.376  13.488  12.923  0.0517 -0.0649 -0.5305
19201W        W36725   1.335   7.414  13.113  0.1872 -0.0301  0.3214
19202W        W36726   1.024   6.171  14.409  0.0119 -0.2490  0.1883
19203W        W36727  16.908  16.910   1.912  0.2496  0.1748  0.1845
19204W        W36728   4.447  12.592   1.911 -0.0556  0.2715  0.2218
19205W        W36729   5.784   4.088  14.930 -0.6405  0.2243 -0.1733
19206W        W36730  14.983   1.281   1.498 -0.2145  0.1893  0.0556
19207W        W36731   4.292  15.150  12.565  0.0455 -0.0562  0.5197
19208W        W36732  13.978  10.839  11.257 -0.0053 -0.0723  0.1101
19209W        W36733  14.900  10.077  12.679 -0.3125  0.0896  0.1356
19210W        W36734   0.336   4.503  13.377  0.0225  0.0756 -0.0143
19211W        W36735   5.952   2.374  13.129 -0.1078 -0.0333  0.0986
19212W        W36736  14.230   8.916  12.681  0.0300 -0.0746 -0.2046
19213W        W36737  13.179   8.055   1.090  0.4525  0.1945  0.0041
19214W        W36738   0.425   9.573  15.560  0.1007  0.2100  0.1746
19215W        W36739   3.924   5.939  11.895  0.0214  0.2774 -0.1247
19216W        W36740   4.342   3.350   3.980  0.0246 -0.1313  0.1714
19217W        W36741   8.969  16.766  12.819 -0.3615  0.1279 -0.0811
19218W        W36742   5.748   6.277   1.178  0.0860 -0.0856 -0.1170
19219W        W36743  10.017  17.261   4.141  0.2689 -0.2126  0.2959
19220W        W36744   6.696  14.911  12.982  0.1772 -0.2277 -0.0328
19221W        W36745  13.526   4.405   4.545  0.2068  0.1130  0.1101
19222W        W36746  11.712  18.056  14.422 -0.2138  0.1136  0.3840
19223W        W36747  13.821  17.999   3.692 -0.1003  0.0363 -0.0087
19224W        W36748   7.933   3.693  11.749  0.0200  0.2059 -0.0762
19225W        W36749  12.167   0.795   2.588  0.1900  0.0580  0.3538
19226W        W36750  11.505   4.912   1.837 -0.3052 -0.0223 -0.2810
19227W        W36751   1.325   2.145  12.939  0.0546 -0.2020  0.2513
19228W        W36752  12.954   2.613   1.887  0.2922 -0.0295  0.2819
19229W        W36753   9.228  12.409  13.652  0.1492 -0.0032  0.0308
19230W        W36754  13.743   4.086   4.165 -0.2027 -0.0703 -0.0525
19231W        W36755  12.133   7.203   3.264  0.0899  0.1426  0.1711
19232W        W36756   3.990  10.000  14.891  0.0852  0.1470  0.0601
19233W        W36757   6.905  16.004   5.079  0.1954 -0.2692 -0.2568
19234W        W36758  10.639   5.434  15.929 -0.1734 -0.0125  0.3253
19235W        W36759   9.907  13.495   4.538 -0.1065  0.0577 -0.1235
19236W        W36760  12.314   7.037  14.521 -0.0259 -0.1194 -0.0439
19237W        W36761   5.631  15.410  15.740  0.2111  0.0336  0.2612
19238W        W36762   0.877  16.399   4.299 -0.2427 -0.0919 -0.0656
19239W        W36763   3.181  12.632   0.810 -0.1990  0.1668 -0.0831
19240W        W36764   6.475  13.236   1.690  0.0964  0.0757 -0.1018
19241W        W36765   2.649   3.790   2.995 -0.2301 -0.3409 -0.1452
19242W        W36766   8.639  10.270  11.368 -0.0147 -0.1170 -0.0044
19243W        W36767  14.114   1.588   1.133  0.0453  0.1434  0.2262
19244W        W36768   8.175   3.338   0.373  0.1346  0.0403 -0.3051
19245W        W36769   1.813   8.369  13.136  0.3180 -0.2462  0.1006
19246W        W36770   5.452   8.693  14.327  0.0993 -0.0055  0.1779
19247W        W36771   5.967  12.259  13.271  0.0368  0.0730  0.2697
19248W        W36772  16.912   8.799  14.851 -0.2225 -0.1788 -0.0821
19249W        W36773   4.906   8.763   1.257  0.0718 -0.1728 -0.2048
19250W        W36774  13.495   5.742  14.490  0.2748  0.3312 -0.0354
19251W        W36775   7.388  17.281  11.710 -0.0985  0.2756 -0.1991
19252W        W36776   5.890  15.751  13.397  0.2170 -0.1703 -0.1449
19253W        W36777  17.323  16.424   1.939  0.0879 -0.0548  0.0042
19254W        W36778  10.436   4.507   2.853  0.1518 -0.0730 -0.1167
19255W        W36779   4.841  18.024  13.614  0.1566  0.1986 -0.2167
19256W        W36780   9.830   6.786   1.581 -0.0899  0.2622  0.2110
19257W        W36781  10.081  14.462  15.037 -0.0970  0.3060  0.1131
19258W        W36782   0.700   9.209   4.228 -0.0403  0.0088  0.1124
19259W        W36783   3.390   1.355  13.471 -0.0607  0.1516  0.0789
19260W        W36784  12.210   5.181  15.026 -0.3028  0.0374  0.2235
19261W        W36785  10.198  15.755  15.583 -0.0060  0.2169 -0.1089
19262W        W36786   4.546  10.824   4.307 -0.0527  0.0620  0.3499
19263W        W36787   6.099  12.860  10.456 -0.0457  0.0147  0.2652
19264W        W36788  14.853  10.320   0.893  0.1379 -0.1543 -0.1166
19265W        W36789   8.700  13.679   3.601 -0.1717  0.0200 -0.0145
19266W        W36790   7.467   2.271   0.529 -0.0787  0.2018  0.1293
19267W        W36791  13.500  14.041  15.984  0.0590  0.2520  0.0524
19268W        W36792   3.550   4.216  11.086  0.1593  0.1206  0.0942
19269W        W36793   7.661  11.279   4.837 -0.0440  0.0128 -0.0695
19270W        W36794  13.861   5.284   3.471  0.3955  0.0603  0.0464
19271W        W36795  12.966   4.286   2.852 -0.1658  0.0775  0.1776
19272W        W36796   6.092  10.134   4.745  0.0700 -0.1124  0.4574
19273W        W36797   3.748   8.167   3.352 -0.2678 -0.2650  0.1187
19274W        W36798  12.455  14.934  11.557  0.0189  0.1420  0.0974
19275W        W36799   8.026   6.093   4.778  0.0707 -0.1800 -0.0935
19276W        W36800  10.019  16.143  11.768 -0.2459  0.2863 -0.0450
19277W        W36801  13.769  11.519   0.335 -0.0536 -0.0494  0.2328
19278W        W36802   0.334   9.728   5.285  0.2095  0.1749 -0.0783
19279W        W36803   4.253  14.186  13.512  0.0702  0.2523 -0.0310
19280W        W36804   2.359  16.124  12.928  0.2321 -0.1030  0.0173
19281W        W36805   2.140  13.165   4.301 -0.2470  0.0870  0.6985
19282W        W36806   8.710  16.091  12.413 -0.0538 -0.1187 -0.1013
19283W        W36807   0.256  17.356  14.971  0.0630  0.1817  0.4060
19284W        W36808   9.856  13.627   2.945 -0.1178  0.2336 -0.2352
19285W        W36809   6.392   1.543   0.640  0.1651  0.1411 -0.0227
19286W        W36810  10.676   8.973   3.771 -0.1591 -0.0999  0.1071
19287W        W36811   6.572  12.831  11.110  0.0953  0.0828 -0.0875
19288W        W36812  10.546  16.080  15.805 -0.0089  0.0006  0.1811
19289W        W36813  11.582  10.347  13.231  0.1298 -0.0725 -0.0112
19290W        W36814   4.847  16.340   4.678 -0.0471  0.0529 -0.0661
19291W        W36815   3.923  17.749  14.686 -0.1563  0.1938 -0.0833
19292W        W36816  10.204  14.893   0.284 -0.1606 -0.2882  0.1974
19293W        W36817  13.247   4.643   4.950  0.0896  0.1700  0.0682
19294W        W36818  11.353  11.339  14.302  0.0139  0.1315 -0.1784
19295W        W36819  11.030   5.958   3.999  0.2127  0.1607 -0.2270
19296W        W36820  17.982   0.948   4.355  0.0147 -0.0097  0.2606
19297W        W36821   2.591  11.042  14.687 -0.1585 -0.0367  0.1340
19298W        W36822  17.128  17.567   0.684  0.1374  0.3841 -0.4211
19299W        W36823   8.859   5.692   3.667 -0.0227 -0.2556  0.0908
19300W        W36824   8.706   3.091   4.008  0.2292 -0.1595  0.1212
19301W        W36825   0.392   6.771   2.125 -0.1808  0.0295  0.0801
19302W        W36826  14.232   2.588   0.800  0.0473 -0.0890 -0.1964
19303W        W36827   9.657  13.152   1.136 -0.1744  0.0362 -0.0618
19304W        W36828   4.437   2.265   2.746 -0.0722  0.0906  0.0715
19305W        W36829   1.538  14.120  11.967 -0.0931  0.0372 -0.3910
19306W        W36830   5.708   4.559   2.283  0.1740 -0.0987 -0.3339
19307W        W36831  16.116   3.634  15.456  0.0428  0.1647  0.3128
19308W        W36832  16.159   8.835  10.980 -0.0087 -0.1977  0.0913
19309W        W36833   9.924   6.880  12.305  0.1060  0.0024 -0.2652
19310W        W36834  14.738   8.612   4.569 -0.0642  0.2405  0.1335
19311W        W36835   1.413   5.095   2.143 -0.0495 -0.0823  0.1577
19312W        W36836   8.242  10.999   2.815  0.1174  0.0441 -0.0132
19313W        W36837  11.957  13.394   4.241  0.0605  0.2594  0.2705
19314W        W36838   6.062  11.923  11.815 -0.2656  0.1255 -0.0906
19315W        W36839   8.410   0.296  12.803 -0.0184 -0.1512 -0.0398
19316W        W36840  17.027   5.077  14.008 -0.2337 -0.1811  0.0312
19317W        W36841   1.782  11.504  14.041 -0.0343 -0.1246  0.3334
19318W        W36842   6.677   2.689   2.549  0.0844 -0.4706  0.1991
19319W        W36843  10.251  11.302  11.297  0.1286 -0.1313  0.0025
19320W        W36844  17.218   5.885   3.869  0.2447  0.0732  0.2630
19321W        W36845   6.900   2.798   3.089 -0.1685 -0.1990 -0.2921
19322W        W36846   8.961   0.563  13.924 -0.0439 -0.0322  0.2919
19323W        W36847  15.807   7.888   4.482  0.1642  0.1983  0.2967
19324W        W36848   5.675  16.543  15.211  0.3299 -0.0310  0.0473
19325W        W36849   8.632   4.391  13.312  0.1146 -0.2399 -0.0217
19326W        W36850   8.429  13.682   4.180 -0.0078  0.1930  0.0233
19327W        W36851   3.545   3.813  13.685 -0.2009 -0.0447  0.3233
19328W        W36852  14.391   5.043  14.615  0.2276  0.1696  0.1549
19329W        W36853  17.183  16.085   3.350 -0.1103  0.0758 -0.5046
19330W        W36854   1.465   4.551  13.702  0.1227  0.0904  0.1155
19331W        W36855   3.028   2.558   0.985 -0.3919 -0.1442 -0.0807
19332W        W36856  11.149   8.862   3.467 -0.2801  0.0072 -0.0300
19333W        W36857  12.577   3.069   3.745  0.2129 -0.2327 -0.0041
19334W        W36858   3.145   5.308   3.682 -0.1564  0.2166 -0.1307
19335W        W36859  12.597  12.128  15.937 -0.0779  0.0514  0.1558
19336W        W36860   8.428   8.734   3.570 -0.0781 -0.0355 -0.3317
19337W        W36861  11.332  10.130   1.340  0.2086  0.3554  0.1662
19338W        W36862  14.671  13.038  15.669 -0.3093  0.0424 -0.2632
19339W        W36863  14.100  16.462  12.497  0.0512  0.1431  0.2215
19340W        W36864   7.762  17.887  12.241  0.0017 -0.1707 -0.1761
19341W        W36865   5.266  15.327  12.015 -0.0105 -0.0523 -0.0703
19342W        W36866  15.022   6.830  14.442 -0.1093 -0.0665  0.3164
19343W        W36867   1.256   9.761   4.757  0.1357 -0.0997  0.1402
19344W        W36868  11.705   1.128  13.720 -0.3024 -0.2711 -0.1117
19345W        W36869   1.613   6.589   4.639 -0.0033 -0.2368  0.1911
19346W        W36870  10.799   6.710  12.327 -0.1672 -0.0129  0.2089
19347W        W36871  17.481  13.805  13.779 -0.1898 -0.1416  0.0047
19348W        W36872   3.801   7.391  12.630 -0.2291 -0.1675 -0.0221
19349W        W36873  15.730  10.763   2.778  0.2077 -0.1196 -0.0535
19350W        W36874  15.199   5.885   1.169  0.0262  0.0382  0.0916
19351W        W36875   4.748  10.191  12.147  0.3858 -0.0027 -0.0318
19352W        W36876  13.548  15.226  14.876  0.2719  0.2597  0.0850
19353W        W36877   3.787   4.216   4.821 -0.0344  0.0544  0.1356
19354W        W36878   4.094  13.898   1.453 -0.0808  0.0291  0.2139
19355W        W36879  13.159  13.224   2.194 -0.1619  0.1382 -0.0966
19356W        W36880  14.843   6.583  14.938  0.0067  0.1780 -0.0673
19357W        W36881   6.017  16.579  13.976 -0.0298 -0.1145  0.0634
19358W        W36882   4.324   2.948   2.667 -0.3449 -0.1511 -0.1519
19359W        W36883   2.424   5.662   0.748 -0.2299  0.2120  0.0716
19360W        W36884  10.867   7.997  14.908 -0.1694  0.1074 -0.2181
19361W        W36885  12.835   5.397   3.151 -0.3668 -0.2135 -0.0641
19362W        W36886   9.362   9.461   2.314 -0.0707 -0.1132 -0.1618
19363W        W36887   3.062  12.123   2.480  0.0290  0.0861  0.0217
19364W        W36888   7.370   1.346  15.182  0.0309 -0.0900  0.0904
19365W        W36889   9.121   8.944   4.488  0.0147 -0.2476  0.1294
19366W        W36890   8.838   9.130   0.084 -0.1084  0.1446  0.4149
19367W        W36891   2.263  17.108  13.706 -0.4026  0.2946  0.1086
19368W        W36892   3.674   6.642   0.241 -0.1262 -0.0354 -0.2623
19369W        W36893  10.482   3.285  15.473  0.2822 -0.1103 -0.0976
19370W        W36894   5.719   5.978   2.012 -0.1245 -0.0483  0.0283
19371W        W36895  11.485   5.356   3.204  0.1004  0.1497  0.1472
19372W        W36896   5.859   0.471  16.092  0.0230  0.1274 -0.1664
19373W        W36897   9.240  11.232  11.157  0.2083  0.4196  0.1809
19374W        W36898   3.708   7.394  13.183 -0.0005 -0.0490  0.0750
19375W        W36899   5.814   6.995  12.283 -0.5483  0.4134  0.1431
19376W        W36900   1.596  14.644   1.078 -0.2640 -0.4615 -0.0696
19377W        W36901  11.426  14.267  11.811 -0.1962  0.1187  0.2969
19378W        W36902  10.852  12.758  16.023 -0.2818 -0.5005 -0.3861
19379W        W36903   8.378  13.456   6.081  0.1261  0.1343  0.1345
19380W        W36904   7.033   9.445   1.057 -0.1777 -0.0297 -0.0457
19381W        W36905  16.838  12.411   3.539 -0.1303 -0.1000 -0.0298
19382W        W36906   8.024  17.888   2.741 -0.1475  0.0323  0.0407
19383W        W36907   2.071   8.280  12.414 -0.0861 -0.3859  0.2534
19384W        W36908   0.628   1.007  14.707 -0.2999  0.0989 -0.1274
19385W        W36909   1.559   3.668  14.020 -0.1911 -0.0754 -0.0440
19386W        W36910   5.411   4.957   3.897  0.2297  0.2209  0.3850
19387W        W36911   1.298   2.078  12.208 -0.0456  0.0337  0.1880
19388W        W36912   4.798   4.715   2.317  0.2762  0.0334 -0.0645
19389W        W36913   3.915  12.229   4.208  0.1800  0.1731  0.3336
19390W        W36914   3.740   8.134  13.551 -0.1960  0.0451 -0.2744
19391W        W36915  16.148   1.311   0.263  0.2710 -0.1338  0.1556
19392W        W36916   8.403   3.835  11.971 -0.0765 -0.0763  0.0464
19393W        W36917   9.554  15.368   2.045 -0.2451  0.0798  0.0129
19394W        W36918   8.574   1.171   5.470  0.0831 -0.5221 -0.0892
19395W        W36919   3.441  15.916   1.020 -0.2148  0.5546  0.2651
19396W        W36920   7.181  14.366   1.983  0.0161 -0.1185 -0.2725
19397W        W36921  14.811   9.308  15.813 -0.2294 -0.3494 -0.2265
19398W        W36922   0.001   6.028   4.427  0.0937 -0.2884  0.0033
19399W        W36923   2.806  14.196  11.878 -0.0989 -0.0911  0.1596
19400W        W36924  16.917  11.795   3.607  0.2550 -0.0540  0.0177
19401W        W36925   7.186   2.841   2.633 -0.1095  0.0729  0.0159
19402W        W36926   3.831  15.260  10.196  0.0669 -0.2413 -0.0579
19403W        W36927   4.914   7.970   4.324 -0.0224 -0.0710 -0.3526
19404W        W36928   3.001  10.215   3.110  0.2002  0.2049  0.0884
19405W        W36929  14.195   8.970  13.576  0.0133 -0.1634 -0.2332
19406W        W36930  10.677   0.786  10.990 -0.0040 -0.1347 -0.0706
19407W        W36931   0.864  15.546  12.688 -0.0440 -0.1117 -0.0468
19408W        W36932  12.808  17.489   0.657  0.1307  0.1833  0.1107
19409W        W36933   5.527   0.615   5.313  0.1564  0.2893 -0.0680
19410W        W36934  14.613  13.347  11.865  0.1871  0.1185  0.1219
19411W        W36935  15.536  12.770  12.783  0.1161 -0.2689 -0.0755
19412W        W36936  14.020  12.850  15.199 -0.2508  0.0365 -0.2947
19413W        W36937  17.329   1.973  14.794  0.0700  0.1169  0.0096
19414W        W36938  17.971  16.641  13.555  0.0298 -0.1093 -0.0083
19415W        W36939  18.094   3.909  12.953 -0.0718 -0.1895  0.0628
19416W        W36940   2.379  16.604  10.896 -0.0284 -0.1223 -0.1049
19417W        W36941   3.039  16.893   0.067 -0.0657 -0.1193  0.1911
19418W        W36942   1.659   4.140   2.702  0.1895  0.0573  0.4281
19419W        W36943  12.112  10.196  13.404  0.1494  0.1202 -0.1752
19420W        W36944   2.180  14.094  14.595 -0.2354 -0.0007  0.0249
19421W        W36945   3.121   1.035  13.863 -0.3424 -0.2774 -0.1499
19422W        W36946  14.512   0.190   2.917 -0.0834 -0.4963  0.5422
19423W        W36947  10.148   3.111   1.570 -0.3429  0.3036 -0.2519
19424W        W36948   0.541   4.928  13.385 -0.0688  0.0563 -0.1504
19425W        W36949  14.321  14.385   4.345  0.1752 -0.0244 -0.1710
19426W        W36950   8.338   3.283  14.655 -0.0291  0.1644  0.1360
19427W        W36951  10.310  12.830   5.133 -0.1144 -0.1265 -0.0501
19428W        W36952   6.640  14.933  15.165 -0.0134 -0.1219 -0.1646
19429W        W36953   0.387   1.798  10.694 -0.4283  0.2809  0.0811
19430W        W36954  16.651   7.329  15.379 -0.0950 -0.3672  0.1755
19431W        W36955   8.559   6.626   0.398  0.0655 -0.2548  0.1176
19432W        W36956   5.562  13.709  14.526  0.0186  0.2030  0.3030
19433W        W36957  14.895   1.358  15.156  0.0141  0.2630 -0.0901
19434W        W36958   8.147  16.842   3.621 -0.1631  0.0827  0.1407
19435W        W36959   9.531  14.282  15.685  0.0718  0.1580  0.1282
19436W        W36960   8.396   2.105   2.220  0.1742 -0.0679 -0.0334
19437W        W36961   8.369   6.607   3.118  0.2092 -0.0684 -0.0831
19438W        W36962   6.025   9.261  13.336  0.3483 -0.0036 -0.1982
19439W        W36963   8.132   3.969   1.130 -0.0152 -0.3294 -0.2028
19440W        W36964  18.082   4.929  14.478  0.1576 -0.2213  0.2149
19441W        W36965   3.572  10.012  15.267  0.1515 -0.0766 -0.2358
19442W        W36966   0.368   0.421   3.954 -0.2423 -0.3152  0.2116
19443W        W36967   9.718   3.910  15.194  0.1409 -0.0807 -0.0076
19444W        W36968  17.119  17.667   4.878 -0.0229 -0.3565 -0.0404
19445W        W36969   6.915  15.840  11.813 -0.1786 -0.0143 -0.1944
19446W        W36970  11.002   4.955   0.583  0.0297  0.2990 -0.0275
19447W        W36971  10.464  13.522  13.326  0.0766 -0.1171  0.1936
19448W        W36972   6.366   9.677  11.328  0.0058  0.4466 -0.2035
19449W        W36973   2.768  11.940   5.894 -0.0787  0.1440 -0.1134
19450W        W36974   8.395  10.440  12.676 -0.0384 -0.1076  0.0661
19451W        W36975  17.789  16.501   2.026  0.2184 -0.0283  0.1068
19452W        W36976   5.524   0.597  11.774 -0.0064  0.4373 -0.0882
19453W        W36977   2.603  13.292   2.356  0.1919 -0.1676  0.0716
19454W        W36978   4.602  14.885   3.277 -0.1242  0.1932 -0.0085
19455W        W36979   0.066   8.953   0.967  0.2134  0.2897  0.0570
19456W        W36980   3.867  13.181   2.185  0.2464 -0.1245  0.1909
19457W        W36981   3.136   4.141   1.103 -0.1640 -0.0068  0.1490
19458W        W36982   5.860   1.038   3.638  0.0424 -0.0242  0.2015
19459W        W36983   5.804  17.684   3.587  0.1106 -0.0660 -0.0238
19460W        W36984  16.970  12.686   1.187 -0.0670 -0.2431 -0.1289
19461W        W36985  11.611   3.954   0.110 -0.2096 -0.3721  0.1507
19462W        W36986   8.930  14.850   3.217 -0.0518  0.3457  0.1135
19463W        W36987   1.895  12.552   4.830 -0.4025  0.2941  0.0765
19464W        W36988  18.009   2.234  15.540 -0.1445  0.0966  0.1201
19465W        W36989  13.032  10.564  13.035  0.1150 -0.1385 -0.0067
19466W        W36990  11.514  15.694   4.743 -0.0763  0.2108  0.0022
19467W        W36991   3.704   0.226   1.283 -0.1822 -0.0473 -0.0043
19468W        W36992   6.344  13.193  14.858  0.1180  0.1583 -0.0651
19469W        W36993   3.151   6.150   0.662 -0.1584  0.0700  0.1328
19470W        W36994   6.315  16.656   3.340  0.0952  0.2033  0.0354
19471W        W36995  17.938  10.587   4.362  0.0376 -0.3350  0.1106
19472W        W36996  10.337   4.752  13.364 -0.2073 -0.1559 -0.3063
19473W        W36997   7.423  10.948  11.627  0.4032  0.0387 -0.0732
19474W        W36998  17.599   1.228  13.299  0.0613 -0.0812 -0.0801
19475W        W36999   1.491  11.390  13.584 -0.0927  0.2101  0.1869
19476W        W37000   5.905   3.575  13.775 -0.2213  0.1656 -0.1210
19477W        W37001  14.139  10.731  13.895 -0.0028  0.0180 -0.4062
19478W        W37002  17.241  12.036   4.490  0.0747  0.2698 -0.0150
19479W        W37003   9.552  16.165  11.634  0.2744  0.1070  0.2165
19480W        W37004   6.932   3.134  12.504  0.0286  0.1383  0.1103
19481W        W37005   0.747   9.854   0.481  0.0893  0.1616  0.3028
19482W        W37006   4.205   2.624  13.999  0.2634 -0.1097  0.2759
19483W        W37007  14.494  17.616   3.045  0.0335  0.0752 -0.1385
19484W        W37008   4.651  10.350   2.323 -0.3368 -0.4008 -0.2584
19485W        W37009   9.201  13.488   2.404  0.0598 -0.2835 -0.1542
19486W        W37010  17.787  12.157   3.571 -0.1496  0.2027  0.3477
19487W        W37011   2.971   6.901  13.407 -0.1019  0.0577 -0.1911
19488W        W37012  17.305  14.856  14.494  0.1689  0.2714  0.0745
19489W        W37013   0.785  10.687  15.969 -0.1255 -0.2016  0.0631
19490W        W37014  13.713  13.666  15.720 -0.2353  0.0878 -0.0365
19491W        W37015  12.801   2.127   1.766 -0.2881 -0.0639  0.1917
19492W        W37016   8.389  12.150  15.441 -0.1008 -0.0435  0.0910
19493W        W37017  10.107  16.416   4.650 -0.1666 -0.4094 -0.0391
19494W        W37018  14.102   4.183  15.132 -0.1025 -0.3352 -0.2160
19495W        W37019   0.166  16.510   0.676 -0.1726 -0.1882 -0.1885
19496W        W37020  10.154   9.917  12.938  0.2586  0.0510  0.1016
19497W        W37021  17.547   6.362   1.528  0.4167 -0.1903 -0.0593
19498W        W37022   6.611   1.244   4.709 -0.3791  0.1602  0.1749
19499W        W37023  15.837  17.288  15.571  0.1421  0.2844 -0.1666
19500W        W37024  17.687   9.625  11.178  0.1665 -0.0032 -0.1092
19501W        W37025  15.557  18.105  10.982 -0.0186  0.1300  0.0018
19502W        W37026  10.188  14.017   0.176 -0.2481 -0.0802 -0.1312
19503W        W37027   0.415  16.731   4.252 -0.0329  0.0489  0.0131
19504W        W37028  15.108  17.810   3.045 -0.1170  0.1548 -0.1044
19505W        W37029   4.722   6.877  11.808 -0.0792 -0.2394 -0.0916
19506W        W37030   7.730   2.077   1.188  0.0947 -0.2275  0.1725
19507W        W37031  14.684  15.603  12.376 -0.2460 -0.1589 -0.1390
19508W        W37032  17.860   6.491   4.948 -0.1425 -0.0204  0.2934
19509W        W37033  11.793  16.980  13.898 -0.4341  0.2566 -0.2354
19510W        W37034   1.689  12.406   1.870  0.0581 -0.2884  0.0415
19511W        W37035  10.715   7.299   0.051  0.2137 -0.0157  0.2521
19512W        W37036  16.840  11.063  12.392  0.3643  0.1345  0.0962
19513W        W37037  17.143   3.049   0.481  0.1491  0.2342 -0.0319
19514W        W37038  13.353  16.265  15.307 -0.2914  0.1305 -0.1505
19515W        W37039  15.587   3.151   1.491  0.2532 -0.0147 -0.3470
19516W        W37040   4.323  12.676   0.103  0.2069  0.0947 -0.0362
19517W        W37041   4.563   6.448  15.062  0.0763  0.1305  0.2830
19518W        W37042   5.391   1.408   0.244 -0.1818  0.3450  0.1496
19519W        W37043  11.580   5.028  14.062 -0.1665  0.0719  0.3010
19520W        W37044  16.056   2.524   2.831  0.1269  0.1308 -0.2001
19521W        W37045  13.332   2.909  12.036 -0.0324 -0.3540 -0.1812
19522W        W37046   7.044   7.467   1.524  0.1545  0.1269 -0.0508
19523W        W37047   7.766  17.019   4.099  0.2060 -0.0057  0.1114
19524W        W37048   9.562  17.812  13.294  0.1809  0.1949  0.2351
19525W        W37049   2.488   8.851  11.230  0.3257 -0.1997 -0.1444
19526W        W37050   5.799   5.728   0.460 -0.0812 -0.0488  0.1497
19527W        W37051   1.402   1.972   2.884 -0.2887  0.2312  0.2231
19528W        W37052   9.080  12.690  13.262  0.0268 -0.0526  0.2912
19529W        W37053   6.484  13.987   2.475  0.1984 -0.2522 -0.3009
19530W        W37054  10.094  13.376   5.308 -0.0397  0.1252 -0.0031
19531W        W37055  10.911   9.280   4.826  0.2830  0.1407  0.3007
19532W        W37056  11.141  13.474  12.727  0.4334 -0.0942  0.3499
19533W        W37057  12.894   7.931  16.067  0.0334 -0.2583  0.0095
19534W        W37058   9.703   2.279   4.648 -0.0658 -0.0828  0.1609
19535W        W37059  11.838   9.556   0.516 -0.2454 -0.2434  0.2243
19536W        W37060  12.305  15.289   3.586 -0.1318 -0.2004  0.3551
19537W        W37061   9.925   6.286  13.126  0.1285 -0.0602  0.2540
19538W        W37062   9.921  10.459   4.719 -0.0999  0.1862 -0.2611
19539W        W37063  17.705  14.556  14.371 -0.0255  0.2136 -0.0118
19540W        W37064  16.375  16.699  12.402 -0.1299  0.3302 -0.0435
19541W        W37065  12.619   3.462   3.370  0.1196  0.1310  0.0382
19542W        W37066   9.167   0.885  12.439  0.0366 -0.0571  0.0323
19543W        W37067  12.226   4.390  14.005 -0.1531 -0.2562 -0.0174
19544W        W37068  10.761  14.960  15.163 -0.0574  0.3632 -0.0497
19545W        W37069   6.663   7.821  16.054  0.0438  0.0611 -0.0845
19546W        W37070   2.127   3.588  13.325 -0.1941  0.3859 -0.1766
19547W        W37071   8.927  17.054   0.578 -0.0855  0.0312 -0.0611
19548W        W37072  14.595   6.257  13.825  0.1970  0.0368 -0.1012
19549W        W37073  10.172   9.118  14.832 -0.5326  0.3578 -0.2011
19550W        W37074   7.823  14.342   0.657 -0.1726 -0.0118  0.1453
19551W        W37075  17.682  17.907   2.290  0.3248  0.0910 -0.1025
19552W        W37076   1.204   2.587  13.844 -0.1129 -0.0931  0.3331
19553W        W37077  11.262  13.396  13.854  0.1477  0.0116  0.1457
19554W        W37078   3.466  14.691   2.333  0.1202 -0.2181 -0.0179
19555W        W37079   9.660  15.703   4.257 -0.1057 -0.1650  0.3680
19556W        W37080   8.532  12.097   1.355 -0.1382  0.1787  0.0114
19557W        W37081   7.657  16.791  13.422  0.0629 -0.0660 -0.0194
19558W        W37082   7.873  11.177  13.556  0.0729  0.1186 -0.1555
19559W        W37083  15.604  13.072   1.811 -0.0768 -0.0035  0.2169
19560W        W37084   3.627  11.192  14.589  0.0340  0.0606 -0.1417
19561W        W37085  13.242   2.206   2.011 -0.1709 -0.3212  0.1419
19562W        W37086  17.428   1.923  13.137 -0.0689  0.3449  0.2363
19563W        W37087   6.173   2.882  13.306  0.0145  0.1181  0.0563
19564W        W37088  10.345   7.969   4.474  0.1749  0.1686  0.2711
19565W        W37089   6.918  18.066  13.359 -0.0762 -0.0508 -0.1358
19566W        W37090  16.875   3.454   1.278  0.1374 -0.1439 -0.0389
19567W        W37091   5.106   8.510   3.295  0.1886 -0.2746  0.4302
19568W        W37092  11.223  13.386   2.195 -0.4129 -0.0544  0.0427
19569W        W37093   0.440   9.917  11.587  0.0993 -0.2143 -0.0221
19570W        W37094   4.181   4.884   2.401 -0.0925  0.1466  0.0762
19571W        W37095   5.635   5.128   4.815 -0.1739  0.0406 -0.3283
19572W        W37096  13.519   2.039   0.719 -0.0734  0.3031 -0.1030
19573W        W37097  17.371   6.341   2.758 -0.3298  0.1913 -0.0575
19574W        W37098   2.704   9.535   4.945  0.2264 -0.3638 -0.2247
19575W        W37099   6.518   2.259   4.806 -0.0982  0.2668  0.0899
19576W        W37100   9.843  16.326  13.955 -0.0171  0.1206  0.4156
19577W        W37101  17.973   9.212  12.783  0.1550 -0.1438  0.1829
19578W        W37102   8.795   2.151   3.527  0.0199 -0.1115 -0.3140
19579W        W37103   5.198  11.151   4.959  0.0790 -0.2594  0.2910
19580W        W37104  15.046   6.198   3.419  0.5213  0.0412  0.2115
19581W        W37105  14.457   6.508   5.465  0.1129  0.0170  0.1036
19582W        W37106  10.170  10.707   5.138 -0.0400  0.2643 -0.2533
19583W        W37107  11.039   8.316   4.261  0.1931  0.0800 -0.2100
19584W        W37108   4.320  11.052  15.312  0.1249  0.0861 -0.3632
19585W        W37109  14.527  11.946  14.183  0.1267 -0.0032 -0.2345
19586W        W37110  13.207   9.793   1.353 -0.4059  0.1187 -0.1966
19587W        W37111  18.168  10.103   4.241  0.1963 -0.0987 -0.0976
19588W        W37112  13.347   7.352  14.847 -0.3394  0.0010 -0.0722
19589W        W37113  15.747   6.022   2.043 -0.0580 -0.2406 -0.1771
19590W        W37114   6.802   9.672  11.873 -0.1627 -0.1125 -0.3234
19591W        W37115   2.633   5.414  15.254  0.2259 -0.3232  0.0306
19592W        W37116  10.828   7.849  14.348  0.1328 -0.1696 -0.0056
19593W        W37117  18.013   3.072   5.051  0.1465  0.0402 -0.2874
19594W        W37118   9.964   1.385   3.285  0.2375 -0.3668 -0.1058
19595W        W37119  10.855   7.075   4.636 -0.2187 -0.1529  0.3716
19596W        W37120   3.022   9.389  14.711  0.0724  0.0123  0.0108
19597W        W37121  15.985  16.430  11.554  0.0317 -0.0155  0.0058
19598W        W37122  16.592  18.146  15.232  0.1290  0.0275  0.0112
19599W        W37123   0.863  15.559  10.498  0.1371 -0.2134  0.2925
19600W        W37124  17.020   3.945   0.359 -0.0608 -0.0995 -0.3977
19601W        W37125   0.849  15.944   1.256 -0.0141  0.0742 -0.4780
19602W        W37126   5.981   5.141  14.291 -0.1356  0.1521  0.3100
19603W        W37127  16.053  14.788   1.137  0.0093 -0.3587  0.0215
19604W        W37128   2.887  18.019  11.464  0.2174  0.2472  0.0033
19605W        W37129   3.860  11.278  13.697  0.1640 -0.0001 -0.2570
19606W        W37130   8.026  12.935   2.667  0.1940 -0.1102 -0.1598
19607W        W37131   2.417  13.675  14.850  0.3095  0.0318  0.0294
19608W        W37132   0.868  17.025  13.160  0.1888  0.0106  0.1630
19609W        W37133  13.070   0.246  14.815 -0.2977 -0.3471  0.0806
19610W        W37134  14.628   6.121  15.161  0.1985  0.0640  0.0781
19611W        W37135   3.506   2.774   3.539 -0.2459  0.0935 -0.0509
19612W        W37136   2.487  12.664  11.636  0.1508  0.0057  0.2032
19613W        W37137   9.108   6.621  12.642  0.0289  0.0778  0.0214
19614W        W37138   9.454   4.147   3.017  0.1994  0.2367  0.1099
19615W        W37139  12.468  17.332  12.133 -0.0668 -0.1272  0.1667
19616W        W37140   2.093   1.180  11.245 -0.1575 -0.0291  0.0030
19617W        W37141   1.013  15.912   3.661 -0.1211 -0.1756 -0.0445
19618W        W37142   3.873   1.202  13.132 -0.2808 -0.1082 -0.1403
19619W        W37143  12.122  12.324   5.209 -0.0259 -0.1800 -0.4353
19620W        W37144   2.017   4.624  11.329  0.0148 -0.3756  0.0340
19621W        W37145  12.059   2.848   2.032  0.2184  0.1789 -0.0308
19622W        W37146  17.349   8.647  12.220  0.0601 -0.0332 -0.1008
19623W        W37147  17.726   1.664   1.049  0.2186  0.0060 -0.1407
19624W        W37148  13.070  10.565   1.513 -0.0619  0.4612  0.0080
19625W        W37149   1.408  12.830   1.582 -0.0118 -0.0878 -0.0815
19626W        W37150   1.994  13.700   2.334  0.0812  0.2521  0.0287
19627W        W37151  12.100   3.840  12.916 -0.3735  0.0430  0.3370
19628W        W37152  10.862   1.575  13.171  0.0474  0.0134 -0.0489
19629W        W37153   5.345  10.146  14.912 -0.0837  0.0570  0.5887
19630W        W37154   5.506  12.145  12.605  0.2140  0.0163  0.1434
19631W        W37155  12.253   8.432  15.527 -0.0677 -0.0973 -0.0844
19632W        W37156  14.083  17.627   2.670 -0.0487 -0.1348  0.1277
19633W        W37157   5.102   6.168   4.251  0.0149  0.1412  0.1431
19634W        W37158   2.127   7.761  14.860  0.4303 -0.3308 -0.1059
19635W        W37159  11.280   1.530  14.096 -0.4351  0.0618 -0.2912
19636W        W37160  16.288   4.163  11.324  0.1220  0.3684 -0.0153
19637W        W37161   3.841  15.551   0.970 -0.5600  0.0931  0.1109
19638W        W37162   5.341   8.616   1.486  0.0362  0.0084 -0.3710
19639W        W37163   6.503   2.500   2.981 -0.3049 -0.0582 -0.0718
19640W        W37164   0.148   3.615  13.679 -0.0682 -0.1040 -0.0961
19641W        W37165   1.464  15.102   5.841  0.0347  0.2033 -0.1507
19642W        W37166   8.695   9.995   0.610 -0.0882 -0.3410  0.1355
19643W        W37167   8.136  16.751  11.626  0.0096  0.0488  0.0410
19644W        W37168  15.130   8.442  14.640  0.2274  0.2797 -0.2415
19645W        W37169  16.354  16.080   4.549 -0.1348 -0.0181  0.3133
19646W        W37170   9.869  13.688  11.332  0.3014  0.1453  0.2666
19647W        W37171   6.221  17.290  11.425 -0.0873 -0.2530  0.0344
19648W        W37172  10.581   3.303  13.746 -0.0788 -0.0824 -0.0783
19649W        W37173  11.039   2.510  15.148 -0.0532 -0.1422  0.4812
19650W        W37174  12.491  18.172   0.658  0.0250  0.1624 -0.1822
19651W        W37175   7.158   9.368   3.670 -0.0170  0.0160  0.0031
19652W        W37176   1.074  11.911   2.482  0.0598 -0.0274  0.2024
19653W        W37177   7.012  15.408  12.395 -0.0752 -0.1002 -0.0072
19654W        W37178  16.715   9.963   4.799 -0.1837  0.0719  0.3721
19655W        W37179   6.595  13.541  12.269 -0.0063  0.2602  0.1302
19656W        W37180  15.992   3.386  14.126 -0.0559  0.3660  0.1799
19657W        W37181  15.757  15.746   1.126  0.0002  0.0796 -0.2819
19658W        W37182   6.813  10.991  14.521 -0.0655  0.1882 -0.3000
19659W        W37183   5.723  14.295  11.383  0.1039 -0.0063  0.1782
19660W        W37184   1.374  11.998   2.892 -0.2096 -0.0098 -0.0766
19661W        W37185  14.491   1.819  15.055  0.1723  0.1005 -0.2036
19662W        W37186   0.836   0.905   4.007 -0.0656  0.1040 -0.1311
19663W        W37187  15.367  12.364   2.302  0.4285  0.1935 -0.1629
19664W        W37188   3.910  18.111   0.392 -0.0565 -0.0775  0.2786
19665W        W37189   5.760   8.088   4.725  0.2938  0.2311  0.1504
19666W        W37190  15.172  11.692   3.185 -0.1398 -0.1387 -0.0258
19667W        W37191   3.059   2.073   1.057  0.0099 -0.2327 -0.3278
19668W        W37192   4.784   7.495   0.809 -0.0650 -0.0570 -0.2571
19669W        W37193  12.100  11.980  11.718 -0.0726  0.0102  0.0404
19670W        W37194  12.922  16.321  14.501 -0.0041  0.2404  0.2204
19671W        W37195   4.635   9.900   2.512  0.3817  0.1283 -0.0399
19672W        W37196  12.294  10.730  14.725 -0.1572 -0.0437 -0.0336
19673W        W37197  13.148   0.744  14.826 -0.2018  0.2175 -0.2309
19674W        W37198   8.775  15.852  12.914 -0.0733 -0.0388  0.1678
19675W        W37199  15.747   0.715   3.563  0.0231 -0.1966 -0.1044
19676W        W37200  14.893   9.829   5.220  0.3492  0.0215  0.1005
19677W        W37201  12.466   7.347   4.997  0.1735 -0.0502  0.1737
19678W        W37202  13.418   7.757   2.256  0.0706 -0.1319 -0.2477
19679W        W37203   9.695   0.149  14.144 -0.7735 -0.2649  0.1048
19680W        W37204  10.941  10.510  13.756 -0.0508  0.3401  0.2086
19681W        W37205   3.259  12.281   0.098  0.2518  0.1880  0.0651
19682W        W37206  10.394  18.145   1.634 -0.0876 -0.1959 -0.0250
19683W        W37207  16.413  14.014  12.104 -0.0835  0.2335  0.1414
19684W        W37208   3.095  14.975   3.989  0.1941 -0.2714 -0.3095
19685W        W37209  13.834   6.459  15.233  0.0146 -0.1790 -0.2391
19686W        W37210   2.741   7.041   3.143  0.1210  0.0371 -0.3473
19687W        W37211   8.822   9.420   2.078  0.3603  0.3517  0.0660
19688W        W37212  10.716  12.246  15.130 -0.0600  0.2685 -0.2948
19689W        W37213   6.374   3.807  14.498 -0.0367 -0.0569 -0.1411
19690W        W37214   2.685   2.135  15.105  0.0203  0.0366 -0.0064
19691W        W37215  17.288   2.720   4.125 -0.3422 -0.1880 -0.0979
19692W        W37216  15.498   6.177   4.179 -0.0584  0.0091  0.3510
19693W        W37217   2.612   5.592   3.437  0.1292 -0.0372 -0.3578
19694W        W37218  17.242   8.212  13.726  0.2473  0.0992 -0.0225
19695W        W37219   5.816   5.558   3.622  0.4618  0.1451 -0.3833
19696W        W37220   5.832  17.835  13.211 -0.0176 -0.0954  0.1446
19697W        W37221  15.578   4.920  14.826  0.0231 -0.0131  0.1226
19698W        W37222  12.024  17.499   0.260  0.0342  0.2689  0.0874
19699W        W37223   2.425  15.170   4.534  0.3450 -0.0023 -0.3465
19700W        W37224  17.137   5.955   3.398 -0.1895  0.1403 -0.1634
19701W        W37225   0.998  11.110  14.635 -0.2083  0.2016 -0.2042
19702W        W37226  13.327   2.515   5.695 -0.0359 -0.1366 -0.1610
19703W        W37227   8.114   7.941   4.207  0.0117  0.1573  0.0802
19704W        W37228  16.433  11.401   4.085  0.2298  0.2774 -0.0402
19705W        W37229   4.851   5.340   1.766 -0.1748 -0.1838 -0.2195
19706W        W37230   6.196   7.427  13.081  0.2701  0.1497 -0.0149
19707W        W37231   3.235  15.100  12.137 -0.0168  0.0974  0.0128
19708W        W37232   5.546   6.998  12.935  0.0813  0.3632 -0.1570
19709W        W37233   5.171   1.137  15.397 -0.1175  0.3345 -0.0473
19710W        W37234   6.289   1.286   2.528  0.1526 -0.0862  0.0003
19711W        W37235   7.807  11.731  12.103  0.0695  0.0006  0.0049
19712W        W37236   3.789   8.408  13.103 -0.0369 -0.1422  0.2416
19713W        W37237   7.251   8.483   3.679  0.2066  0.1409  0.0332
19714W        W37238  12.579   8.688  12.585 -0.0662  0.0713  0.4288
19715W        W37239   5.713  16.092  15.399  0.1393 -0.0235  0.1122
19716W        W37240   2.417   3.520  15.086 -0.3516 -0.0405 -0.0704
19717W        W37241  17.446   8.600   2.675 -0.4680  0.3090  0.2789
19718W        W37242  17.760   2.295  13.433 -0.0958  0.2191 -0.2284
19719W        W37243  13.024  12.607  15.912 -0.2063  0.0049 -0.0678
19720W        W37244   5.792   1.793  15.844 -0.2796 -0.2308 -0.2328
19721W        W37245  17.242   7.677   2.807  0.1225 -0.0031 -0.1237
19722W        W37246  17.231  11.740   2.021  0.0967  0.3662  0.0278
19723W        W37247   9.930  15.485  10.380  0.0398 -0.1589  0.1575
19724W        W37248   1.063   5.623   3.919 -0.0165 -0.0532 -0.3655
19725W        W37249  12.832   3.645   3.860 -0.2107 -0.2191 -0.0353
19726W        W37250  11.909   2.343   2.028 -0.4004  0.3338  0.0735
19727W        W37251   2.790  12.442  15.181  0.3292 -0.2154  0.0121
19728W        W37252   7.688  15.538  15.298 -0.0980 -0.4135 -0.2569
19729W        W37253   8.305  16.407   3.322 -0.0674  0.2428  0.2733
19730W        W37254  10.610  13.733  12.871 -0.3092  0.0973 -0.0743
19731W        W37255  12.086   9.280  15.542  0.4410 -0.0859  0.5628
19732W        W37256   8.318  14.167  11.191 -0.1091  0.1339 -0.1172
19733W        W37257   7.292  16.611  11.186 -0.0044 -0.2126 -0.1136
19734W        W37258  15.757   6.319  12.062  0.0965 -0.1828 -0.2530
19735W        W37259   4.941   8.018  14.678  0.1738 -0.3602 -0.0050
19736W        W37260   3.351   3.542  12.165 -0.2153  0.1180 -0.3362
19737W        W37261   4.750  13.859  14.349  0.1674 -0.0806  0.5107
19738W        W37262  10.818   7.042  10.159 -0.0853 -0.1065 -0.3430
19739W        W37263   5.495   2.338   3.831  0.2197 -0.1100  0.0510
19740W        W37264  17.838   3.007  14.953  0.0416  0.0403 -0.1118
19741W        W37265  12.188  17.111  16.029  0.1040  0.1758  0.1949
19742W        W37266   5.615  16.487   3.904  0.0738 -0.2151 -0.1239
19743W        W37267  14.442  15.040  14.355 -0.0452 -0.1590  0.1836
19744W        W37268  16.041   2.103   3.979  0.0565 -0.1523 -0.0431
19745W        W37269   2.854  17.753  11.050 -0.0352  0.3339 -0.3792
19746W        W37270  14.619  15.924   2.240 -0.1372  0.1752  0.2376
19747W        W37271   0.038  14.485   2.788 -0.2458 -0.2856  0.0775
19748W        W37272   6.134  11.142  15.179 -0.1023 -0.0983  0.0108
19749W        W37273  14.170  15.294  11.682  0.3288 -0.0770 -0.1722
19750W        W37274  17.316  14.785   2.832  0.2165 -0.0420  0.2451
19751W        W37275  14.258  16.913   0.583 -0.0563 -0.2413 -0.2357
19752W        W37276   4.993   0.297  13.759 -0.2574 -0.0591  0.2968
19753W        W37277   3.521   0.557   1.695  0.0257  0.1833 -0.1127
19754W        W37278   5.961   1.042  12.614  0.0308  0.0029  0.0920
19755W        W37279  13.714  11.342  12.330 -0.3578  0.1473 -0.1696
19756W        W37280   0.271   4.809  14.190 -0.1519  0.0709  0.2126
19757W        W37281  10.554   7.331  13.598 -0.0045  0.1429  0.1612
19758W        W37282   7.223   9.994  15.543 -0.0362 -0.1230 -0.0917
19759W        W37283  16.357   7.016   0.574  0.2157  0.2018 -0.1770
19760W        W37284   0.320   2.138   4.375  0.3152  0.0343 -0.0147
19761W        W37285   0.904   0.147  11.436  0.1455  0.1296  0.1434
19762W        W37286  16.539  14.224  13.826  0.0454  0.2282 -0.1228
19763W        W37287   1.304  15.056  12.136  0.0612 -0.0789 -0.2914
19764W        W37288   6.360  11.078  13.149 -0.0031 -0.0174 -0.2023
19765W        W37289   2.106   3.904   3.632  0.0762  0.3123 -0.0910
19766W        W37290   2.505  13.526   4.120  0.0763 -0.1328 -0.2700
19767W        W37291  10.060   6.162   5.690 -0.1037  0.2072 -0.0384
19768W        W37292  12.257   0.663  12.414  0.2555  0.1992  0.1199
19769W        W37293   8.366  15.091   1.882  0.1281 -0.0099 -0.1270
19770W        W37294  10.553  11.255  13.361 -0.0262 -0.0060  0.1658
19771W        W37295   4.193  10.502   2.825 -0.0381 -0.1315 -0.2778
19772W        W37296   4.783   4.038   0.845  0.2187 -0.0639  0.5213
19773W        W37297   8.745  14.900  13.865  0.4928 -0.1718  0.0900
19774W        W37298   2.153   2.552   0.834 -0.0536 -0.1556 -0.0278
19775W        W37299   7.681  10.687   4.584  0.2526 -0.1201  0.1962
19776W        W37300   6.803   7.285   4.775 -0.2144 -0.0156 -0.2791
19777W        W37301   9.402  13.572  15.784 -0.0336 -0.1822 -0.1577
19778W        W37302   1.680   0.285   5.531  0.3002 -0.1521 -0.1119
19779W        W37303   6.392   4.017   4.326 -0.0658 -0.2255 -0.0146
19780W        W37304   0.107  18.184  15.797 -0.0137  0.2042 -0.0145
19781W        W37305   7.741  15.459  15.967 -0.3410  0.1870  0.1307
19782W        W37306   4.944  16.359  14.795 -0.0145  0.0182 -0.1751
19783W        W37307   3.013   6.668  14.899 -0.2424  0.3077 -0.2260
19784W        W37308   7.900   5.517  10.514 -0.1675  0.0395  0.3467
19785W        W37309   1.985  11.100   0.518  0.1258  0.0603  0.0126
19786W        W37310   6.123  10.570  14.022  0.4593 -0.3054  0.0527
19787W        W37311   3.898   7.202  11.873  0.0165  0.0534  0.1863
19788W        W37312  17.454  18.113  12.815  0.2833  0.0798  0.0941
19789W        W37313  11.304  10.602   3.648  0.2627 -0.1052  0.0391
19790W        W37314   6.086  10.115  15.611  0.0461 -0.1171  0.2339
19791W        W37315   1.984   3.039   3.300  0.1520  0.2102  0.1892
19792W        W37316   9.172   4.940   2.291  0.1999  0.5843 -0.1824
19793W        W37317  15.684  11.582  12.146  0.4372  0.0209 -0.2677
19794W        W37318   6.868  10.666  15.114 -0.3487 -0.2061 -0.1369
19795W        W37319  16.415  12.773   2.898  0.0097 -0.0584  0.3329
19796W        W37320   1.828  16.121   5.120  0.4307 -0.0417  0.0264
19797W        W37321   9.023   9.125  12.289 -0.0093 -0.1730 -0.2095
19798W        W37322   1.236   9.860  14.328 -0.0596 -0.1478  0.0498
19799W        W37323   2.964  13.853   2.985 -0.0115  0.0080  0.4126
19800W        W37324   6.609  16.375   3.787  0.2315  0.3467 -0.3045
19801W        W37325   2.815  16.929   4.628 -0.1695  0.1662  0.1376
19802W        W37326   8.319   9.147   0.009 -0.1561  0.0490 -0.1462
19803W        W37327  17.900   5.746  13.846  0.3077 -0.0312  0.0609
19804W        W37328   9.539  17.616   0.247  0.0929  0.1241  0.0857
19805W        W37329  16.935   5.043   0.170 -0.0448  0.0766  0.0552
19806W        W37330  13.128  11.385   1.485  0.0738  0.0148 -0.3521
19807W        W37331   5.982  14.278   0.816 -0.1058  0.3925 -0.1155
19808W        W37332  15.719  16.435   0.782 -0.0633 -0.1153 -0.1274
19809W        W37333  14.601   8.567   0.641 -0.1106 -0.0405 -0.0169
19810W        W37334  13.855   8.538   2.529  0.2497  0.2672 -0.0959
19811W        W37335   0.504   0.694   2.107 -0.1472  0.3367  0.0017
19812W        W37336  14.275   5.837  13.926 -0.0255 -0.2490  0.1138
19813W        W37337  12.486  13.374  11.249  0.1688  0.1711  0.1100
19814W        W37338   1.452  16.721   2.123  0.0070  0.0563 -0.1884
19815W        W37339   1.636  16.352  15.225  0.1250  0.1328 -0.3654
19816W        W37340  10.954   2.301   4.217  0.0079  0.1783  0.3355
19817W        W37341  10.505  17.526  16.023 -0.3348  0.0606 -0.0380
19818W        W37342   9.613  10.648  15.939 -0.0296 -0.1751 -0.0326
19819W        W37343   2.930   1.629   1.199 -0.1401  0.1132 -0.1423
19820W        W37344  11.910   6.658  13.155 -0.2298  0.0404  0.2443
19821W        W37345   8.747   4.044  11.627  0.4302 -0.4162 -0.2544
19822W        W37346   0.932  14.552   1.808  0.2316 -0.3110  0.0884
19823W        W37347   0.658   5.569   4.664  0.0448  0.1686  0.0237
19824W        W37348   3.382  10.112  13.824 -0.0683  0.2992 -0.2815
19825W        W37349  13.407  14.692  12.053  0.0608 -0.0908 -0.3598
19826W        W37350   9.606  10.517  15.026  0.1711  0.0237 -0.2475
19827W        W37351  15.872   5.489   2.340 -0.0911  0.4093 -0.1429
19828W        W37352   7.886  12.411  11.608 -0.0520  0.1463 -0.2354
19829W        W37353   5.921  14.627   1.907  0.2085 -0.0873  0.1384
19830W        W37354  14.142  18.186  13.928  0.3302  0.0706  0.1849
19831W        W37355   3.285   8.092  14.047  0.0669  0.2307 -0.0260
19832W        W37356   5.616   9.703  12.737 -0.2832  0.0488 -0.3719
19833W        W37357   3.135   3.864  15.278 -0.1826  0.0041 -0.1996
19834W        W37358   6.428  10.835  15.389 -0.2443  0.1299 -0.0364
19835W        W37359  10.138  17.203  12.590  0.1599 -0.0943 -0.0111
19836W        W37360   6.526   5.965  13.866 -0.0512 -0.3459  0.2737
19837W        W37361   8.992   0.262  12.350 -0.2253 -0.1830 -0.0701
19838W        W37362  10.463   0.089  13.396  0.0801 -0.0933  0.2495
19839W        W37363   6.793   6.302   2.671 -0.0421  0.0141 -0.1977
19840W        W37364   9.611   5.259   0.717 -0.2607  0.0881 -0.1176
19841W        W37365   3.553   8.555  15.623  0.0733 -0.0844  0.4734
19842W        W37366  12.235   9.864   4.360 -0.1482 -0.0465  0.0720
19843W        W37367   5.562  10.880  12.161 -0.0694 -0.1939 -0.0784
19844W        W37368  12.345   2.192  14.301  0.4917  0.0661  0.2231
19845W        W37369  13.015   2.781   4.408 -0.2716 -0.0812 -0.0569
19846W        W37370   5.856  16.724   3.498 -0.0803  0.0283  0.0627
19847W        W37371  15.216  14.600  11.980 -0.1750  0.0223  0.3481
19848W        W37372   0.003   8.894   3.823  0.3251 -0.1612  0.0248
19849W        W37373   1.538   9.219  12.509  0.1472 -0.2347  0.0895
19850W        W37374   2.303  13.152  14.779  0.2388  0.0187  0.2582
19851W        W37375   2.251   3.468  14.572 -0.0887 -0.1122  0.0270
19852W        W37376   0.943   5.247   2.263 -0.1370  0.2467  0.0991
19853W        W37377   9.048  13.777  11.610  0.1241  0.0855 -0.3508
19854W        W37378   7.779  13.931  13.349 -0.0554 -0.0396 -0.2543
19855W        W37379  10.888  11.569   1.695 -0.3186  0.1018  0.2170
19856W        W37380  15.900   4.023  12.210  0.0818  0.0380 -0.1425
19857W        W37381   1.371   4.824   3.657 -0.3307 -0.0488  0.0338
19858W        W37382   0.795  16.730  12.148  0.1642 -0.4360  0.3555
19859W        W37383  14.368  15.477   2.667 -0.3862  0.3112 -0.1123
19860W        W37384  15.318   3.589  10.983  0.1760 -0.0682 -0.2325
19861W        W37385  11.908  14.694   0.445 -0.0345  0.0394 -0.1262
19862W        W37386   4.876  12.327  13.441 -0.0755  0.0117  0.3609
19863W        W37387  14.011   7.804   2.254  0.0030  0.0210  0.2250
19864W        W37388   2.253  16.823   3.386  0.0080  0.1875 -0.1422
19865W        W37389   1.805  15.595   3.658  0.2824 -0.0701  0.2241
19866W        W37390   5.558  16.557   1.730  0.0232  0.0757 -0.0466
19867W        W37391   0.840  10.961  15.510  0.1837 -0.2289  0.0519
19868W        W37392   0.097   0.552  13.718 -0.0632 -0.1499  0.0733
19869W        W37393  17.121   1.574   1.478  0.2203  0.0520 -0.1528
19870W        W37394  10.765   5.280  15.486  0.2245 -0.2125  0.1169
19871W        W37395  10.554  14.924   3.847 -0.2046  0.4519 -0.0047
19872W        W37396   2.900  15.055   1.087  0.0822 -0.0486 -0.2135
19873W        W37397  15.766   3.649  12.645  0.3306  0.0273  0.1712
19874W        W37398  10.723   9.197  11.284 -0.1617 -0.1709 -0.0120
19875W        W37399   4.578  16.742   2.407 -0.0808 -0.2216 -0.2135
19876W        W37400  12.387  13.743  12.716 -0.2679  0.0711 -0.0425
19877W        W37401   1.458   3.496  11.253  0.0579  0.0309 -0.1626
19878W        W37402  14.406   7.584  12.939 -0.0347  0.0476 -0.0110
19879W        W37403   9.902   4.131   0.071 -0.0529  0.1391  0.0409
19880W        W37404  13.898  13.664   3.922  0.3132 -0.0681  0.0810
19881W        W37405   7.553  11.578   4.416  0.1764  0.1203  0.2109
19882W        W37406   9.111  15.640  11.319 -0.0166 -0.0259  0.1782
19883W        W37407   7.152  14.929  10.943  0.1679 -0.0834  0.1283
19884W        W37408  13.380   0.332   5.814 -0.0556  0.2128  0.3837
19885W        W37409   0.114   4.345   4.749  0.4111  0.1334  0.0737
19886W        W37410  15.472  12.675   4.348  0.0752 -0.1975  0.2963
19887W        W37411   8.906  11.736   3.260  0.0529 -0.1414 -0.4258
19888W        W37412  14.628  10.525   2.304  0.1520  0.0853  0.1768
19889W        W37413   2.178   9.668  11.726 -0.2436 -0.0005 -0.1371
19890W        W37414  12.476   7.708   0.133 -0.0310 -0.1705 -0.2316
19891W        W37415  12.053  17.708   1.815 -0.2130  0.0029  0.1839
19892W        W37416  14.014   4.380   2.696 -0.1430  0.1383  0.2314
19893W        W37417   9.801   5.978  13.754  0.2439 -0.0976  0.0501
19894W        W37418   9.201   0.059  13.258  0.0080  0.1490  0.0924
19895W        W37419  15.652   2.270   2.576 -0.0312  0.2816 -0.1015
19896W        W37420   1.136  10.465  10.623 -0.0178  0.0567 -0.1469
19897W        W37421   2.151  11.329   3.437  0.0503  0.0032  0.1833
19898W        W37422  16.938  12.787  13.673  0.2957 -0.1456  0.4378
19899W        W37423  12.000   0.866  14.060  0.1784  0.0076  0.4604
19900W        W37424   1.667   3.030  12.109 -0.0777 -0.2100  0.1275
19901W        W37425   6.488  13.668  15.007 -0.0794 -0.3927 -0.0859
19902W        W37426   9.090   4.682  15.980  0.0530  0.0940  0.1300
19903W        W37427   5.756   1.521  14.553  0.0166  0.0794 -0.2166
19904W        W37428  17.293  10.579   1.196  0.2435  0.1264  0.0700
19905W        W37429   0.266   5.459   1.141  0.0805 -0.0179 -0.1404
19906W        W37430  17.012   1.954   2.095 -0.0057 -0.0159 -0.2091
19907W        W37431   3.917   3.739   2.599 -0.2365 -0.0506  0.1425
19908W        W37432   3.862  17.989  11.295 -0.0957  0.3780 -0.2755
19909W        W37433  10.755   4.137  15.919 -0.3392  0.1654  0.0687
19910W        W37434  13.210  12.528  15.474  0.0223 -0.2245  0.0910
19911W        W37435   1.891  17.573   1.224  0.1234 -0.1158 -0.2763
19912W        W37436  13.096   7.512  10.907  0.0201  0.4495  0.2039
19913W        W37437   0.618  18.174   4.955  0.1276 -0.3680  0.0059
19914W        W37438   4.685   5.075  14.967 -0.2224  0.0252 -0.0646
19915W        W37439   5.117   3.548  10.900 -0.4165  0.2674 -0.0883
19916W        W37440   4.135   4.072   5.135  0.1042  0.1834  0.2501
19917W        W37441   0.728  13.869   4.638 -0.0087  0.0513 -0.0724
19918W        W37442  16.338  17.157   0.151  0.1849 -0.1505  0.1106
19919W        W37443   4.837  12.081  12.716  0.0139 -0.0252 -0.0048
19920W        W37444   5.594   2.729  14.793 -0.3683  0.0517  0.0829
19921W        W37445   6.052   3.816   2.887  0.1718  0.1165  0.1697
19922W        W37446  14.693   5.232  14.287 -0.3244  0.1347 -0.1324
19923W        W37447  16.795  16.144  15.632 -0.3667 -0.2032 -0.1329
19924W        W37448  10.774   7.287   2.946 -0.0488  0.3767 -0.1444
19925W        W37449   6.975  14.592  11.234 -0.1182 -0.0385 -0.0618
19926W        W37450  10.269   5.960  14.741  0.0170 -0.0070 -0.1046
19927W        W37451   9.791  12.022   0.174  0.1966 -0.1143  0.0322
19928W        W37452  10.872  16.167   0.191 -0.0665  0.5405  0.0250
19929W        W37453  14.152   6.696  10.655  0.0420  0.0762 -0.0183
19930W        W37454   1.964   7.589   3.902  0.1157  0.2008  0.0438
19931W        W37455   7.576  12.232   2.962  0.5018 -0.0075 -0.2102
19932W        W37456   2.825   2.588   0.446  0.1326 -0.0413  0.1534
19933W        W37457   8.311  13.669   2.299 -0.1164  0.1410 -0.1750
19934W        W37458   7.291  15.324   3.410 -0.0802 -0.1654 -0.2061
19935W        W37459   9.821   8.355   0.609 -0.3993  0.2712  0.2816
19936W        W37460  12.253   2.702  14.309  0.1537  0.7320  0.1313
19937W        W37461  10.663  15.602   2.806  0.0894  0.2889  0.1846
19938W        W37462   7.245  12.067   2.049 -0.1756  0.0711 -0.0403
19939W        W37463   9.507   5.128  11.290  0.0910 -0.0877 -0.0980
19940W        W37464  13.904   3.080  15.666 -0.2459  0.1192  0.2397
19941W        W37465   1.982  12.704   3.027  0.3475 -0.0151  0.1940
19942W        W37466   5.930   5.445  13.807 -0.1938  0.0916 -0.0737
19943W        W37467   2.132   3.140  15.229 -0.1228 -0.0718 -0.0619
19944W        W37468  14.362   2.892  13.115 -0.1932  0.1781 -0.2983
19945W        W37469   9.998   9.582  11.992 -0.0238 -0.1708 -0.2431
19946W        W37470   4.146   6.843  11.498 -0.0092 -0.1377  0.0757
19947W        W37471  17.213   2.343  13.113  0.0570 -0.1139  0.0358
19948W        W37472   5.505  11.334  15.273 -0.1036 -0.1522 -0.0968
19949W        W37473  10.872   3.129   4.559 -0.1751 -0.0719 -0.1477
19950W        W37474   2.264  15.011   2.364 -0.3765 -0.1433  0.0818
19951W        W37475  16.516   5.599  15.730  0.0801 -0.0790  0.0777
19952W        W37476   0.070   3.384  12.748  0.1739  0.4366  0.1540
19953W        W37477  15.195  11.025  14.096  0.0386  0.0600 -0.1507
19954W        W37478   2.563   1.541   0.636  0.2711  0.1503 -0.0679
19955W        W37479   6.330  12.644  12.382 -0.3431  0.1490 -0.1033
19956W        W37480   8.077  18.179  15.082 -0.0347  0.1041  0.1949
19957W        W37481   9.103  16.833   1.950  0.1779  0.0713  0.0618
19958W        W37482   6.962   9.487  14.285 -0.0407 -0.1642 -0.1685
19959W        W37483  17.661   0.247   2.953 -0.2065 -0.1287  0.2043
19960W        W37484   6.747   8.184  15.320  0.1530 -0.0667  0.0692
19961W        W37485  10.799   3.954   0.574 -0.0295  0.2455  0.3176
19962W        W37486   0.541   4.746   4.133  0.0671 -0.1161  0.0853
19963W        W37487   3.228  10.831   1.783  0.3592  0.4145  0.0559
19964W        W37488  15.177   1.809  12.310  0.0032 -0.1108 -0.1041
19965W        W37489  17.317   0.926   0.864  0.0582  0.1149 -0.2046
19966W        W37490   0.872   0.684  14.363  0.3294  0.0017 -0.0659
19967W        W37491   9.171  17.011  11.524 -0.1838 -0.0557 -0.0734
19968W        W37492   2.897  14.828   3.558  0.0935 -0.2178 -0.2024
19969W        W37493   0.307  11.664  11.403 -0.2372  0.2218  0.1421
19970W        W37494   2.129  15.415   5.229 -0.0303 -0.3014 -0.0045
19971W        W37495   3.769   3.001  13.942  0.1882  0.0679 -0.0412
19972W        W37496  16.716  11.726  14.811  0.0690 -0.2168  0.0461
19973W        W37497   6.598   6.976   2.143 -0.1473 -0.1767 -0.3456
19974W        W37498  17.526   7.261   5.473  0.1218  0.2009  0.1541
19975W        W37499   6.748   4.062  15.775  0.2612 -0.1014  0.0157
19976W        W37500   0.876   7.448  13.256  0.1016 -0.0926 -0.0100
19977W        W37501  12.642  14.617   4.483 -0.1411  0.1515 -0.2938
19978W        W37502   4.298  18.104   1.950  0.2600  0.1369 -0.0953
19979W        W37503   7.472  14.068  14.614  0.2137 -0.0323  0.0073
19980W        W37504  17.833   4.716   2.820 -0.0607 -0.2607  0.0154
19981W        W37505  14.950   5.973  12.564 -0.2728  0.1183  0.3568
19982W        W37506  13.255   8.091  14.522  0.1821  0.2236 -0.1312
19983W        W37507   1.927  17.953  15.043 -0.0281 -0.0532  0.3714
19984W        W37508  10.750  13.951  12.351 -0.0951 -0.1701  0.0978
19985W        W37509  13.946   7.088  12.399  0.0434 -0.1171 -0.2639
19986W        W37510  18.011   4.937  12.083 -0.0716 -0.2694 -0.0668
19987W        W37511  12.565   9.764  15.851 -0.0880 -0.0803  0.0220
19988W        W37512   0.403  15.105  12.746  0.0479 -0.3456  0.0705
19989W        W37513  11.249  11.927   2.477  0.0287 -0.1409 -0.1301
19990W        W37514  15.943   8.082   2.847 -0.0769  0.2308 -0.1399
19991W        W37515  12.572  16.185  11.487 -0.0771  0.0595 -0.1172
19992W        W37516   3.732  12.988  11.643 -0.0535 -0.2019 -0.0260
19993W        W37517   9.929   5.204   3.265  0.0385 -0.1613 -0.1444
19994W        W37518   7.984  16.490  12.628 -0.0252 -0.1460  0.0709
19995W        W37519   8.083   2.537   1.158 -0.1487 -0.0506  0.3554
19996W        W37520  10.584  10.460  16.017  0.0802 -0.1218 -0.2523
19997W        W37521   9.500   0.482  12.487  0.1382 -0.1348 -0.1107
19998W        W37522  13.743  15.644   1.438  0.2271  0.2346  0.2360
19999W        W37523   7.018   3.202  15.794  0.0363 -0.1804  0.0239
20000W        W37524  15.072  13.587   3.139  0.0261 -0.1882  0.0725
20001W        W37525  10.740   4.494   0.773  0.1536 -0.3677  0.2366
20002W        W37526  16.455   8.595  15.717 -0.1018 -0.2772  0.1833
20003W        W37527   0.678  10.401  12.303 -0.2260  0.0897 -0.3866
20004W        W37528  12.046   7.944   0.262 -0.0541  0.0246  0.0175
20005W        W37529   3.332  11.938   1.450  0.2331  0.1992  0.0024
20006W        W37530  17.545   7.847  15.249 -0.2846 -0.1211  0.1490
20007W        W37531  16.844  14.587  12.382 -0.2677  0.1251  0.0166
20008W        W37532  17.584   8.751  11.267  0.2557  0.0557 -0.2702
20009W        W37533  13.028   0.668   2.626 -0.0874 -0.0041  0.2082
20010W        W37534   6.171   7.513  15.402  0.0772 -0.1289  0.0820
20011W        W37535   4.459  15.916  15.543 -0.2022 -0.3358  0.0217
20012W        W37536  17.780  17.966   4.190 -0.0285 -0.1733  0.0127
20013W        W37537   0.884   1.526  12.724 -0.0714 -0.0852 -0.0439
20014W        W37538   4.808   5.854  13.377  0.2162  0.0658  0.0209
20015W        W37539   9.613  16.612  14.400  0.1055 -0.3439 -0.2581
20016W        W37540   6.136  15.416   1.496  0.1151  0.1168 -0.0115
20017W        W37541  13.478  13.959   3.896  0.2536  0.0356  0.1552
20018W        W37542   0.594  17.872   3.573  0.2706  0.4975  0.0284
20019W        W37543   5.211  12.067  10.315  0.0651  0.1303  0.4126
20020W        W37544  13.055  14.656   3.505  0.1158  0.1989 -0.1342
20021W        W37545   3.821   3.414  11.837 -0.2855 -0.2078  0.1363
20022W        W37546   4.107  12.726  11.160 -0.2069 -0.1753 -0.0879
20023W        W37547  16.207   8.448   2.438  0.0327  0.0931  0.3865
20024W        W37548   0.328   2.713  14.127 -0.3711 -0.1174  0.3577
20025W        W37549  17.349  17.485  13.125  0.0375  0.1832 -0.0760
20026W        W37550  13.643  13.178  11.491 -0.0332  0.1489  0.0432
20027W        W37551  16.206  15.006  11.587 -0.1909  0.2729 -0.0135
20028W        W37552   4.803   3.889   4.546  0.1813 -0.0910  0.2435
20029W        W37553  16.205  15.311   2.720 -0.1568 -0.0361  0.0097
20030W        W37554   4.495   7.572   0.271  0.0247  0.1854  0.2658
20031W        W37555   9.230   1.322   4.469  0.1100 -0.0695 -0.1072
20032W        W37556  17.797   5.164   1.396 -0.0953  0.0924  0.0294
20033W        W37557  14.077   7.590  12.119  0.3950  0.0933 -0.2031
20034W        W37558   8.413  10.528  12.180  0.1190  0.0259 -0.1188
20035W        W37559   9.215   5.895  15.312 -0.1497 -0.0065 -0.0076
20036W        W37560  11.160  14.532  15.058  0.1108  0.0292  0.0594
20037W        W37561   2.708   0.542  11.203  0.0265 -0.3339 -0.1044
20038W        W37562  13.158  14.946  12.516 -0.2429 -0.2171 -0.4586
20039W        W37563  17.881  15.732  15.496  0.0735 -0.1541  0.1142
20040W        W37564  13.469   9.954  13.716 -0.5577  0.2820 -0.1199
20041W        W37565   9.211  13.213   0.553 -0.0183  0.1378  0.4726
20042W        W37566   3.790  16.726  14.545 -0.0960 -0.0029  0.0326
20043W        W37567  12.873   6.181  13.616  0.1177 -0.0299  0.0994
20044W        W37568  12.761   8.469  15.749 -0.4767 -0.2857  0.0156
20045W        W37569   6.960  17.223   2.168 -0.1497 -0.0309 -0.2274
20046W        W37570  14.384   8.628   2.773  0.0695 -0.5524  0.0331
20047W        W37571   7.854   0.142   1.580 -0.1276  0.1536 -0.3504
20048W        W37572   5.866   8.813  14.724  0.1200 -0.2065 -0.0629
20049W        W37573  15.555   0.363  15.529 -0.0759  0.0520 -0.0333
20050W        W37574  13.859   2.811  14.431 -0.1229  0.1804 -0.2775
20051W        W37575   4.454   1.894  11.955  0.3088  0.0419  0.1891
20052W        W37576  13.733   1.884   5.302  0.2529 -0.3826  0.2033
20053W        W37577  18.023   8.041   2.776 -0.1418  0.0998 -0.0381
20054W        W37578   6.599  16.992   4.629 -0.2698 -0.2708  0.0466
20055W        W37579  10.800  11.648   4.559 -0.0296  0.2492  0.0687
20056W        W37580   6.385  10.278   4.320 -0.3058  0.1176 -0.1985
20057W        W37581   7.544   3.668   2.338 -0.0173  0.1125 -0.2215
20058W        W37582  11.243   5.431   4.319  0.1638  0.1242 -0.2525
20059W        W37583   4.856  12.659  11.431 -0.0735 -0.1217  0.0762
20060W        W37584  10.987  17.923   4.301  0.0343  0.2486 -0.1820
20061W        W37585  15.907   1.022   4.267  0.2007 -0.0142 -0.1917
20062W        W37586   0.087  11.827   1.757 -0.0382 -0.0303  0.0578
20063W        W37587   4.654   7.662   3.993  0.1466  0.1053 -0.0085
20064W        W37588  12.550  13.367  13.230  0.1695  0.1835 -0.0791
20065W        W37589   9.619   3.181   1.583  0.0590 -0.1517  0.1137
20066W        W37590   7.015  12.734  15.777 -0.0010 -0.1528  0.0022
20067W        W37591  16.227   5.779   0.919  0.0745 -0.0407  0.1611
20068W        W37592  10.683   0.235   4.449  0.1736 -0.2478 -0.2445
20069W        W37593   0.075   5.598  14.212 -0.2215  0.2129  0.0439
20070W        W37594   1.928  17.971  11.867 -0.0667  0.2778 -0.0479
20071W        W37595  14.879   5.664   1.448 -0.1249  0.1005 -0.0137
20072W        W37596   7.832   5.185   3.018 -0.1446 -0.1013  0.0277
20073W        W37597  16.595  11.452  12.848  0.3842  0.1002 -0.1201
20074W        W37598   3.255   3.312   1.151  0.2540 -0.0502  0.2430
20075W        W37599   9.292  15.397  16.078  0.0131  0.2512  0.0910
20076W        W37600   1.202  16.150   0.179 -0.0775  0.0363  0.1541
20077W        W37601   5.760   5.801  13.519 -0.0211  0.2379 -0.1616
20078W        W37602   8.192  18.051  13.043  0.0729 -0.0615 -0.1838
20079W        W37603  16.677   9.273   0.218 -0.0772  0.0943  0.0213
20080W        W37604  13.232   5.733   2.419  0.1482 -0.4142 -0.1409
20081W        W37605   7.192   2.148  12.940  0.0451  0.1310  0.1230
20082W        W37606   8.072  11.974   2.983 -0.0391 -0.3478  0.1679
20083W        W37607  11.351  10.807  14.459 -0.1771 -0.2844 -0.0949
20084W        W37608   9.326  12.278   1.473  0.4152 -0.0307 -0.1504
20085W        W37609   5.044   6.146   3.744  0.0507  0.2490 -0.2516
20086W        W37610  17.589   0.437  11.729  0.2256 -0.0064 -0.0346
20087W        W37611   8.575  16.968   4.442  0.1565 -0.0182  0.3253
20088W        W37612  16.984   0.827   2.896  0.1742  0.2867 -0.1390
20089W        W37613   9.792  15.891  13.081 -0.0963  0.1273  0.1050
20090W        W37614   1.960  12.250   2.248 -0.3776  0.1838 -0.0460
20091W        W37615  17.596  16.812  12.087 -0.3044  0.0594 -0.1154
20092W        W37616  15.688   7.393   1.696 -0.0352 -0.2939 -0.2416
20093W        W37617   3.422   8.406  14.738 -0.0425 -0.1364  0.0074
20094W        W37618  15.329   6.069  11.720 -0.0711 -0.0296 -0.1955
20095W        W37619  11.965  11.819   3.088 -0.0124 -0.1523 -0.4545
20096W        W37620   0.210   0.343  11.969 -0.3289 -0.2795 -0.3940
20097W        W37621  17.751   0.067   0.970  0.1325 -0.1931  0.2166
20098W        W37622   9.806   8.755  14.840 -0.5121  0.1403 -0.2444
20099W        W37623   1.659   9.801  11.671  0.0418 -0.1381 -0.0381
20100W        W37624  12.341   6.048  16.036 -0.2030 -0.6449 -0.0096
20101W        W37625  14.492  12.976   5.503 -0.2229 -0.0985 -0.0379
20102W        W37626  13.123   4.488   1.600 -0.0445  0.0874  0.5137
20103W        W37627   8.993   3.572  12.921 -0.0219 -0.3235  0.0627
20104W        W37628  16.479  17.649  15.099 -0.2087  0.5500  0.4119
20105W        W37629   8.768  12.396  15.779  0.1890 -0.0575  0.2108
20106W        W37630   6.555   0.874   2.857  0.1762  0.1004 -0.1360
20107W        W37631   0.827   6.893   4.245 -0.0412  0.2437  0.0684
20108W        W37632   8.255  14.267   3.071  0.4121 -0.2768  0.1536
20109W        W37633  11.802  18.001  15.080 -0.1055  0.2351 -0.1073
20110W        W37634  13.962  16.194   0.503  0.1650  0.0825 -0.0917
20111W        W37635   0.264  10.883   4.693  0.2829  0.0830  0.4369
20112W        W37636   1.237   2.761   1.743 -0.0179  0.1942  0.4471
20113W        W37637   1.302  16.708   4.387 -0.0788 -0.0746  0.1594
20114W        W37638   1.566  17.721   4.221  0.0709 -0.1901 -0.2047
20115W        W37639  11.749  11.442   0.234 -0.1136  0.2047  0.2653
20116W        W37640   4.983  10.476  11.336  0.1106 -0.0023 -0.1817
20117W        W37641   4.726   5.231  12.796  0.2052 -0.4242 -0.2047
20118W        W37642   0.168  11.151   0.176  0.0616 -0.0402 -0.0666
20119W        W37643  17.110   0.905   3.797  0.0706 -0.3351  0.0022
20120W        W37644  10.876   0.053   2.781 -0.2028  0.2838 -0.1481
20121W        W37645   5.563   2.291  11.372  0.2409  0.2603 -0.3737
20122W        W37646  16.281   8.006   0.538 -0.0354  0.1500  0.1788
20123W        W37647   2.566   1.099  10.950  0.0702  0.0397  0.1000
20124W        W37648  15.419   3.559   1.828 -0.2648  0.2404  0.1030
20125W        W37649   1.224   5.778  14.151 -0.0528 -0.0658 -0.1903
20126W        W37650  12.075  16.024  10.770  0.0402 -0.0466 -0.2250
20127W        W37651   0.750  16.667   3.117 -0.0959 -0.2291 -0.0123
20128W        W37652  16.825   6.022  12.251 -0.1750 -0.3143  0.1385
20129W        W37653   6.231   8.327   3.457  0.0140  0.0872  0.1327
20130W        W37654   2.118   6.904   4.167 -0.2762 -0.1665 -0.4806
20131W        W37655   1.601   5.693  13.331 -0.0695  0.3717  0.1012
20132W        W37656  17.765  12.748   1.057  0.2421 -0.0299 -0.0064
20133W        W37657   8.694   5.583  11.608  0.1333  0.1969  0.0736
20134W        W37658   5.375  12.726   2.236 -0.0757 -0.0553  0.0839
20135W        W37659  13.809   7.186   0.348  0.1500 -0.0903 -0.1004
20136W        W37660   3.676   0.276  15.696 -0.0404  0.3832  0.0067
20137W        W37661  14.418   9.044   2.971 -0.2064  0.2993 -0.0502
20138W        W37662  15.086  14.600   1.676 -0.2764 -0.1870 -0.1391
20139W        W37663  11.541  14.783   0.855 -0.2158 -0.1206 -0.0085
20140W        W37664   5.038   4.798  12.662  0.1745  0.2485 -0.1145
20141W        W37665   3.675   6.122  14.833 -0.1145 -0.1421  0.1983
20142W        W37666   4.066   6.135   1.723 -0.2683 -0.1068 -0.1553
20143W        W37667  14.538  17.607   3.935  0.2663  0.2220  0.0184
20144W        W37668  14.597   7.642   0.241 -0.0992  0.1985  0.1052
20145W        W37669  13.673   4.007  13.022  0.0369  0.1440 -0.1380
20146W        W37670  16.386   0.474  11.415  0.1610 -0.0189 -0.2520
20147W        W37671  14.963   8.706   1.812  0.2477 -0.1046  0.3408
20148W        W37672  15.670   4.212   0.238  0.3285 -0.2477 -0.0044
20149W        W37673   7.228  14.402   2.769 -0.0262 -0.1507  0.1526
20150W        W37674   4.810  15.554   4.234 -0.0649 -0.3359 -0.1517
20151W        W37675   2.905   0.332   0.815  0.2532  0.1825  0.1055
20152W        W37676   3.403   1.880   2.440 -0.0086  0.3346 -0.2191
20153W        W37677   7.520   0.127   3.965  0.1238  0.1249  0.0281
20154W        W37678  11.499   2.961   4.427  0.1422 -0.0496 -0.2923
20155W        W37679  17.986   6.494   1.877  0.2417  0.3405 -0.0801
20156W        W37680   4.947   8.801   0.250  0.4246  0.1167  0.3204
20157W        W37681   2.907  13.304  14.514 -0.0398  0.1614  0.0746
20158W        W37682   8.646  13.081  13.895  0.2914 -0.0386  0.3019
20159W        W37683   4.694  16.769   4.950  0.1286 -0.3028  0.3781
20160W        W37684   9.454   2.973  14.256  0.0003  0.4140 -0.0364
20161W        W37685   2.655   7.576  10.941 -0.0003 -0.0724  0.2682
20162W        W37686   4.367   5.455  14.938 -0.1005 -0.0136  0.0708
20163W        W37687   0.577   0.520  11.662  0.3575  0.0482  0.2229
20164W        W37688  11.232   5.388  16.084 -0.1387 -0.2418 -0.1141
20165W        W37689   2.011  13.065  12.567 -0.0979  0.0654 -0.1271
20166W        W37690   7.543  14.708   1.862  0.3062  0.0571  0.0586
20167W        W37691  15.894   4.367   0.645 -0.0561 -0.1631 -0.0725
20168W        W37692   1.604  13.436   3.189 -0.1083 -0.2467  0.0991
20169W        W37693  11.115   1.772   2.234  0.1490 -0.1288 -0.1085
20170W        W37694  11.757  13.789   4.516  0.0060  0.0563 -0.0617
20171W        W37695   5.415  16.833   2.164 -0.1776  0.1191 -0.2242
20172W        W37696  16.387   7.708  13.052  0.3761  0.2854 -0.3718
20173W        W37697  16.658   6.790  12.813 -0.3282 -0.1127 -0.1486
20174W        W37698  12.685  13.815  11.412  0.1587  0.0606 -0.2023
20175W        W37699   3.725  13.258   4.988  0.2349 -0.5235  0.4006
20176W        W37700  15.192   9.728  12.380 -0.0729 -0.0340 -0.2047
20177W        W37701  14.973  18.056  11.188 -0.1190  0.3263 -0.2877
20178W        W37702   8.129   8.458  13.019  0.0947  0.2318 -0.1339
20179W        W37703   0.441   2.699  15.085  0.2219  0.2565  0.2566
20180W        W37704   9.636   3.364  15.111 -0.0100 -0.1073  0.1706
20181W        W37705   2.230   5.044   2.394 -0.0480 -0.0942  0.0583
20182W        W37706   1.768   2.846  12.548  0.0897 -0.2830  0.1329
20183W        W37707  10.088   6.658   2.161 -0.0360 -0.3303  0.0112
20184W        W37708  12.219   6.031   4.755  0.4496  0.0891 -0.2969
20185W        W37709   4.672   6.555  12.752 -0.0816 -0.0642 -0.1367
20186W        W37710  10.529  12.596  15.632 -0.2321 -0.1033 -0.0745
20187W        W37711   2.950  15.518   1.223 -0.2386  0.1344  0.1702
20188W        W37712  11.136   0.489   3.030  0.4035 -0.0260 -0.1361
20189W        W37713   1.860  14.962  14.311  0.0874 -0.1960  0.0342
20190W        W37714  15.655  10.869  12.693 -0.1410 -0.0469  0.2138
20191W        W37715   0.454   2.238   0.290  0.0201  0.0507  0.1762
20192W        W37716   6.073   7.058  13.644  0.1918  0.0005  0.1233
20193W        W37717   8.772  12.781  11.642  0.0143 -0.1554 -0.0384
20194W        W37718   2.192   0.132  12.122  0.1260  0.1086 -0.2660
20195W        W37719   9.837  16.349   0.250  0.0064  0.0449  0.0787
20196W        W37720  10.838  17.856  12.150  0.1671  0.2231  0.1687
20197W        W37721  13.079   0.908   3.164  0.1192 -0.0109 -0.0629
20198W        W37722   7.819  12.237  14.361 -0.1632  0.0945  0.2981
20199W        W37723  10.573  13.505   0.262 -0.0332 -0.0096  0.0908
20200W        W37724   4.638  13.609  11.465  0.2509  0.0669 -0.0898
20201W        W37725   8.084   3.953   1.780  0.2975  0.0743  0.2207
20202W        W37726   3.772   0.873  15.222  0.0724 -0.0277 -0.0774
20203W        W37727  11.902   3.646  14.257 -0.1428  0.0588 -0.0910
20204W        W37728  10.805   2.906  12.102 -0.2444  0.1815  0.0386
20205W        W37729   1.538  12.533   3.189 -0.1074 -0.3501 -0.0884
20206W        W37730   5.426   6.614  14.426 -0.1949  0.0973  0.1399
20207W        W37731  12.507  11.050  15.593  0.2563  0.1448 -0.1864
20208W        W37732  11.647   7.242   0.552 -0.1620 -0.1085 -0.1079
20209W        W37733  14.298   7.400   3.900 -0.2361  0.0187  0.1067
20210W        W37734  15.146   0.984   0.508 -0.1800  0.1744 -0.0913
20211W        W37735   0.822   9.017  10.659  0.0485 -0.1279  0.1420
20212W        W37736   0.216  11.016   2.766 -0.2654 -0.1680  0.3412
20213W        W37737  10.171   8.076  13.566 -0.3402  0.0029  0.1232
20214W        W37738   6.759  15.670  10.323 -0.2466  0.2021  0.0026
20215W        W37739   3.404  13.624   2.043  0.0516  0.1952 -0.2479
20216W        W37740   2.390  11.195  13.766  0.2584 -0.3577 -0.1465
20217W        W37741   3.752  10.860  11.845 -0.3441 -0.1925  0.0657
20218W        W37742   0.591   1.340   4.210  0.1954 -0.3474 -0.0873
20219W        W37743   3.231  14.541   3.781 -0.0710  0.1865 -0.0683
20220W        W37744   8.144  11.059   1.813  0.1316  0.1067  0.1263
20221W        W37745   8.928   8.785  13.404 -0.0074  0.1520  0.1705
20222W        W37746  11.603   5.377  15.730 -0.3199 -0.4143  0.3594
20223W        W37747   0.893  10.015  11.412 -0.1544 -0.1175 -0.0228
20224W        W37748   7.515   8.746  13.258  0.1516  0.0797 -0.0087
20225W        W37749   6.129   5.395  15.150 -0.2867 -0.0511 -0.1857
20226W        W37750  12.781   3.194   1.202  0.1821 -0.0673  0.1062
20227W        W37751   0.010   9.239  14.502  0.0937  0.0146 -0.0883
20228W        W37752   1.529   1.013   2.732 -0.1302  0.0007 -0.0472
20229W        W37753  11.328  16.910  14.123 -0.1689  0.0934  0.1266
20230W        W37754   3.034  13.372   4.109  0.1531  0.4940 -0.1965
20231W        W37755  10.092  14.888   2.547  0.0630 -0.1883  0.0259
20232W        W37756   6.675  11.709   4.136 -0.0830 -0.0443 -0.1833
20233W        W37757   0.253   7.477  15.897 -0.1926  0.0378 -0.0819
20234W        W37758   9.573  16.435   0.941  0.1748 -0.0883  0.1084
20235W        W37759   1.449   2.282   5.337  0.3922 -0.0566 -0.0672
20236W        W37760  11.615  11.625   6.319 -0.0117  0.0002 -0.1867
20237W        W37761  14.353   0.609  14.277 -0.0473  0.2733 -0.1719
20238W        W37762  12.722   0.414  12.457 -0.1698  0.1767  0.0212
20239W        W37763   2.959  17.372   1.050 -0.0573  0.0717  0.1336
20240W        W37764   6.020   1.549  13.537  0.1345 -0.0429  0.0517
20241W        W37765   6.152   1.551   0.223  0.3241 -0.0979  0.1184
20242W        W37766   3.905   4.748   0.785  0.1853 -0.2191 -0.1817
20243W        W37767   9.740   2.674   3.964 -0.1354 -0.2334 -0.0926
20244W        W37768   6.243  12.572   2.814 -0.2501  0.0537  0.3393
20245W        W37769  17.542   9.156  15.884  0.0328  0.0975 -0.3469
20246W        W37770   8.849  10.906  11.930 -0.0129  0.1162  0.0517
20247W        W37771   7.745   1.033   1.743 -0.1409 -0.2133 -0.3449
20248W        W37772  10.663  11.428   2.481 -0.1057  0.1785  0.1951
20249W        W37773  17.887  11.405   0.979 -0.0085  0.4091  0.1104
20250W        W37774   6.064  15.647  10.105  0.0544  0.0513 -0.0848
20251W        W37775   8.773  16.168  10.868 -0.0250 -0.1081 -0.0555
20252W        W37776   2.737  16.013   4.193  0.2436 -0.2829 -0.1471
20253W        W37777   9.788  14.284  14.728  0.0649  0.1915  0.2044
20254W        W37778   7.169  15.044   3.894  0.0947 -0.2365  0.1484
20255W        W37779  11.849  11.386   3.268  0.3790 -0.2848  0.0270
20256W        W37780  11.260  16.607  12.443  0.0711 -0.0094 -0.0143
20257W        W37781   8.291   5.490  15.150  0.0391  0.1412 -0.1841
20258W        W37782  16.378   6.926   3.959  0.1733 -0.0399  0.1088
20259W        W37783   8.041  17.790  14.658  0.3225 -0.0682  0.1495
20260W        W37784   8.550  16.222   2.107 -0.0009 -0.1085 -0.0993
20261W        W37785  15.985   5.004  13.116  0.3260 -0.0117  0.1356
20262W        W37786   7.539  12.842  14.650 -0.1248 -0.0863  0.1664
20263W        W37787  13.876  17.489   3.383 -0.2111 -0.2309 -0.0995
20264W        W37788  15.271   8.613   4.017 -0.1226  0.1051  0.1987
20265W        W37789   7.896   5.235   1.702 -0.1585 -0.0184  0.0671
20266W        W37790   6.752  12.688  10.027 -0.3621 -0.0918 -0.0617
20267W        W37791   4.127   4.707   3.454 -0.3043  0.3377 -0.0278
20268W        W37792  18.076  10.443  12.069  0.1528  0.3539 -0.0078
20269W        W37793   2.967   6.749   2.814 -0.3405  0.2166  0.3387
20270W        W37794  11.048   2.122   0.220 -0.0199 -0.3860  0.1452
20271W        W37795  11.159   1.528  13.591  0.1503  0.2735 -0.1009
20272W        W37796   8.660  16.129  10.369 -0.2492  0.2062 -0.1134
20273W        W37797   0.422   3.638  11.896 -0.3387  0.0841 -0.0257
20274W        W37798   7.299  11.628  12.041  0.2717  0.4622 -0.0242
20275W        W37799  11.211  14.410   0.774  0.0872 -0.0512 -0.3525
20276W        W37800   5.781   4.935   2.649  0.1179  0.2290 -0.1731
20277W        W37801  12.421   7.920  13.506 -0.1327  0.2048  0.1531
20278W        W37802   1.167  13.900  11.718 -0.2020  0.2512  0.2012
20279W        W37803   5.411  18.079  11.049  0.1582  0.0388  0.2964
20280W        W37804   1.617  14.688  15.245  0.3089 -0.2460  0.1397
20281W        W37805   7.815   4.352  15.786  0.0104  0.0521 -0.2683
20282W        W37806   3.568  16.531   1.979 -0.0341 -0.0556 -0.5396
20283W        W37807  11.481   8.452   5.056 -0.3709 -0.1473 -0.1274
20284W        W37808   7.600  14.606   0.235  0.0638  0.0943 -0.1282
20285W        W37809  13.291   1.108  14.531  0.0151  0.0857 -0.2583
20286W        W37810  12.693   4.833  13.030 -0.1316 -0.2142  0.0805
20287W        W37811   8.218   1.181   1.282 -0.2242 -0.0000  0.3316
20288W        W37812   1.475  12.963   2.437 -0.0832 -0.0638 -0.1480
20289W        W37813   5.630  16.783  14.214  0.3354  0.3250 -0.0327
20290W        W37814   7.305  14.180  11.192  0.0919  0.2428  0.1244
20291W        W37815  10.533  17.615  11.210  0.1525  0.1173  0.2682
20292W        W37816  15.584  12.107  12.116  0.2855 -0.0973  0.1886
20293W        W37817   5.555   6.855  15.634  0.1630 -0.0310  0.0183
20294W        W37818   0.302   0.402  15.926 -0.1007  0.2922 -0.0236
20295W        W37819  16.850   4.171   2.562 -0.2305 -0.1421 -0.0300
20296W        W37820  17.731  13.765   4.756 -0.0922  0.1817  0.0284
20297W        W37821  14.556   9.884   1.906  0.0787 -0.0402  0.0963
20298W        W37822  15.228  10.194   1.503  0.0135 -0.1500 -0.3924
20299W        W37823  16.645   3.278  12.525  0.2218 -0.3864 -0.1385
20300W        W37824  11.114   0.502  13.740 -0.3187  0.0578 -0.2146
20301W        W37825   3.278  15.429   0.890 -0.1359 -0.0275  0.2347
20302W        W37826  13.700   9.789   0.552 -0.2399  0.0239 -0.0032
20303W        W37827   4.194  15.050  14.571  0.1115  0.0292  0.1397
20304W        W37828  17.815  16.631  15.356 -0.2722  0.1043  0.2624
20305W        W37829   5.082   2.719   2.517 -0.1059 -0.3125  0.1140
20306W        W37830   8.750   0.115  14.238 -0.1372  0.0131 -0.2168
20307W        W37831  17.103   8.021  16.028 -0.3216  0.3066  0.0149
20308W        W37832  16.149   2.427  14.620 -0.1185 -0.2259 -0.0880
20309W        W37833  15.261  10.902   0.200 -0.1429  0.0245 -0.0987
20310W        W37834   0.757   3.528   4.000 -0.3458  0.2642 -0.0593
20311W        W37835  11.970   6.093  13.863 -0.1029 -0.1603 -0.1532
20312W        W37836   0.928   6.845  12.438  0.1163 -0.0618 -0.2668
20313W        W37837   7.533   0.527  13.835 -0.1913 -0.0063  0.0154
20314W        W37838   2.971   0.438   2.548  0.1254 -0.0693  0.0321
20315W        W37839   5.598  14.106  12.165  0.0767 -0.0914  0.0671
20316W        W37840  14.871  11.743  15.772 -0.2116 -0.3715  0.1656
20317W        W37841   6.779   1.454  14.364 -0.1383  0.0502 -0.1300
20318W        W37842  16.328  18.187  15.649 -0.2739 -0.2096  0.0252
20319W        W37843  11.673   3.046   1.126 -0.1665  0.0232 -0.0317
20320W        W37844   0.835   4.343  11.801  0.0460  0.3633  0.0283
20321W        W37845   1.170  15.674  13.463  0.3132 -0.0193  0.0959
20322W        W37846   4.960  13.174  11.054 -0.1346  0.1718 -0.1560
20323W        W37847   7.869  11.794   4.843 -0.2033  0.2666  0.1242
20324W        W37848   3.963   4.851  14.297 -0.4693 -0.0849  0.2059
20325W        W37849  10.881   4.937   4.953  0.0732 -0.2258  0.4524
20326W        W37850   6.706   3.285  14.055  0.0284  0.1186  0.1682
20327W        W37851   2.312   9.150   0.409  0.2059 -0.0187 -0.0926
20328W        W37852  11.177  17.091   1.151  0.0917  0.1415  0.0865
20329W        W37853  17.667  16.303  12.363 -0.2958  0.2122 -0.1559
20330W        W37854  13.633   4.246  11.572  0.2375  0.2502  0.0174
20331W        W37855  14.056   8.851  11.546  0.2762 -0.0244  0.0959
20332W        W37856  12.280   0.164  12.449  0.0507  0.0944  0.2815
20333W        W37857   9.523   1.457  13.538 -0.1675  0.3228  0.0664
20334W        W37858   6.261   9.696  14.156  0.1293  0.0399  0.1739
20335W        W37859  17.695   3.943  13.453 -0.0280 -0.2307 -0.3456
20336W        W37860  14.378   1.203  10.563 -0.1286 -0.3605  0.0825
20337W        W37861   5.142  16.417  14.311 -0.1180  0.0413 -0.0975
20338W        W37862   4.367   1.703  13.812 -0.2675  0.1740  0.0010
20339W        W37863   3.962  15.747   3.024  0.0260 -0.1916 -0.0637
20340W        W37864   9.035  10.659   1.662 -0.0877  0.2018 -0.0239
20341W        W37865   3.647   2.692   4.585 -0.2268 -0.1346 -0.2680
20342W        W37866   5.281   3.595   0.981 -0.0988  0.0939 -0.0320
20343W        W37867  15.812  10.383  12.549  0.1055 -0.2067  0.0000
20344W        W37868  10.119  15.109   3.058  0.1449  0.1328  0.1258
20345W        W37869  13.184  15.334  12.823  0.4528 -0.1226 -0.3483
20346W        W37870  13.092   1.835  13.174 -0.1550  0.4023 -0.1059
20347W        W37871  17.943   3.348   2.586 -0.3591  0.3114  0.5996
20348W        W37872   1.487  13.148   1.141  0.0846 -0.5049 -0.1718
20349W        W37873   6.823  10.558  11.149  0.1042  0.2522 -0.1454
20350W        W37874  16.698   4.777  14.376  0.0133 -0.1271 -0.0227
20351W        W37875  13.513   7.893   4.541 -0.1635 -0.0366  0.0261
20352W        W37876   3.801  16.163   2.807  0.0727 -0.0721  0.3450
20353W        W37877   8.153  17.166  14.279 -0.0064 -0.1635 -0.5519
20354W        W37878  16.708   7.517   4.694 -0.0116  0.0145  0.0712
20355W        W37879  17.514   6.945   1.168 -0.0251  0.0396  0.0934
20356W        W37880  16.083  11.324  12.033  0.0162 -0.0024  0.1268
20357W        W37881   9.240   6.692  14.269 -0.0349 -0.0140  0.1108
20358W        W37882  16.763   3.753  12.409  0.0354 -0.0036 -0.0064
20359W        W37883   8.773  15.904   2.929 -0.1545 -0.0024 -0.2956
20360W        W37884  13.279  13.948   4.960 -0.1152  0.0227  0.1000
20361W        W37885  17.611  17.810   1.208 -0.0745 -0.2568  0.0924
20362W        W37886   8.350   5.242  10.857  0.2591 -0.1747 -0.0500
20363W        W37887  13.532   1.275  13.668 -0.0699 -0.0547  0.0544
20364W        W37888  13.534  12.471  14.569 -0.1555  0.1735 -0.1055
20365W        W37889  11.719  11.942  15.250 -0.1369  0.1057 -0.0065
20366W        W37890  16.194  11.441   0.722  0.1068 -0.0074 -0.3438
20367W        W37891   8.099  12.000  15.052  0.0570  0.0073  0.0514
20368W        W37892   0.466   9.467  10.350  0.1555  0.0679  0.1889
20369W        W37893  10.140   6.896  13.751  0.2098 -0.0006 -0.2757
20370W        W37894  10.359  18.016  10.894 -0.0832 -0.1312  0.1101
20371W        W37895  16.348   6.798  14.851  0.0656  0.3225  0.0360
20372W        W37896   2.228  10.388  12.237  0.0789  0.1871  0.0627
20373W        W37897  14.172  11.768  12.255  0.0810 -0.1417  0.1725
20374W        W37898   3.222   3.530   4.580  0.0117  0.0669 -0.1079
20375W        W37899   5.802   0.421  14.479  0.2087 -0.3392  0.1322
20376W        W37900   1.567  12.795  13.316 -0.1642 -0.1296  0.1034
20377W        W37901   9.619  13.412  11.694  0.2576 -0.1477  0.2292
20378W        W37902  12.591  13.453  11.748 -0.2350  0.2690 -0.0295
20379W        W37903  14.890  17.659  15.834 -0.2047 -0.1651  0.0031
20380W        W37904  12.103  11.933  13.959  0.0017  0.1770 -0.1803
20381W        W37905   9.224   3.798  13.470 -0.4239 -0.0192  0.0079
20382W        W37906   2.587   8.494   1.781 -0.2215 -0.0518  0.0440
20383W        W37907   9.004   4.379   1.526 -0.1638  0.0027 -0.1756
20384W        W37908  18.098   0.347   0.650 -0.0327  0.1189 -0.1188
20385W        W37909   4.984   6.786  14.256 -0.1557  0.1245 -0.0711
20386W        W37910  15.917   8.687  15.522  0.0821  0.3221  0.0482
20387W        W37911  13.113   9.605  10.626  0.0759 -0.1517  0.1344
20388W        W37912  13.740   8.935   1.105  0.0798  0.1889 -0.1924
20389W        W37913  13.070   7.186  11.807 -0.2148 -0.3218 -0.1172
20390W        W37914   1.601   9.041  12.014  0.2639 -0.2636 -0.3730
20391W        W37915  16.018   0.302   1.957 -0.4325  0.1587  0.2278
20392W        W37916   1.875  14.480  15.716  0.0030 -0.2563 -0.2110
20393W        W37917  10.116   5.282  12.094 -0.0531  0.2671  0.1997
20394W        W37918  17.165   9.529  11.364 -0.2210  0.0308 -0.2219
20395W        W37919   8.620  17.392   0.792 -0.3362 -0.1223 -0.2662
20396W        W37920  11.914  10.617   0.427  0.1153 -0.1697  0.1119
20397W        W37921   5.020   4.489  13.577  0.0596  0.0122  0.1678
20398W        W37922  10.721  17.535  13.040 -0.0018 -0.0888  0.3420
20399W        W37923  10.971  14.110  14.843 -0.1418 -0.0322  0.1359
20400W        W37924   2.117  10.131  13.726  0.0077  0.0249  0.1720
20401W        W37925   8.714  13.923   5.044  0.0374 -0.0055  0.1555
20402W        W37926   0.664  14.396  16.057  0.1174 -0.0590 -0.0509
20403W        W37927  14.485   8.865  10.693  0.3666  0.6440 -0.0766
20404W        W37928  10.402  12.348  14.547  0.1557 -0.0589  0.0949
20405W        W37929  13.241  10.796  11.780 -0.1061 -0.1316 -0.1070
20406W        W37930  13.064  14.213   2.455 -0.1025  0.2108  0.1518
20407W        W37931  14.858  15.067   5.439  0.0665 -0.2579  0.1135
20408W        W37932   1.205  17.414   1.800 -0.1536  0.1149  0.1128
20409W        W37933   2.145   5.879   3.617  0.4173  0.1416  0.0540
20410W        W37934   3.278  18.041   1.010 -0.0319  0.0707 -0.2462
20411W        W37935   4.044   4.637  11.673 -0.3967 -0.1382  0.0570
20412W        W37936   2.192  14.856  12.385 -0.0579  0.3548 -0.1702
20413W        W37937   2.025  15.379   2.609 -0.2185 -0.2308  0.0703
20414W        W37938  13.812  11.449  14.960 -0.1241  0.0008  0.0330
20415W        W37939  17.697  11.006   0.547  0.1416 -0.2183 -0.1165
20416W        W37940   5.134  13.938  12.185 -0.0628  0.1216  0.0985
20417W        W37941   0.276  16.899   3.248 -0.0277 -0.3229 -0.1156
20418W        W37942   0.320   8.538   1.630 -0.0050 -0.0312  0.1362
20419W        W37943  11.248   4.959  11.154  0.1062 -0.1953 -0.0968
20420W        W37944  11.073   2.129  14.829 -0.0078 -0.0594 -0.0802
20421W        W37945   1.447   9.172   4.904 -0.2244 -0.2033  0.1946
20422W        W37946  14.606  10.044   3.146  0.0716  0.3286  0.0521
20423W        W37947   4.565   6.243   4.468  0.1952 -0.1890 -0.2088
20424W        W37948   3.896   3.813  13.331 -0.1226  0.0282 -0.4357
20425W        W37949  14.966  11.702   1.677  0.0547  0.4410  0.1027
20426W        W37950   5.026  16.583   2.509 -0.1899  0.0044 -0.3603
20427W        W37951   6.829  13.674   2.664  0.0639 -0.0034  0.1693
20428W        W37952   2.403  10.207   1.014  0.1947 -0.1549 -0.0932
20429W        W37953  16.804   0.296  13.943  0.0319  0.2498  0.2754
20430W        W37954  13.391   5.348   1.157  0.0757  0.0010 -0.1134
20431W        W37955   2.197  15.614  11.851 -0.1704  0.3921  0.0950
20432W        W37956   2.787   2.626  16.054  0.1547  0.0953 -0.0963
20433W        W37957   9.894  17.318   5.619  0.3572 -0.2063  0.0825
20434W        W37958  14.999  17.314  13.160  0.3720  0.1633 -0.1070
20435W        W37959   0.590   3.458   1.410  0.0059  0.0376 -0.3202
20436W        W37960   2.150   3.996  15.011 -0.0608 -0.0233 -0.0454
20437W        W37961  12.421  16.774   1.856  0.0752 -0.1157 -0.2652
20438W        W37962   2.942  10.642  14.717  0.1008  0.0868  0.2224
20439W        W37963   0.688  17.623   4.343 -0.0936 -0.0998 -0.0845
20440W        W37964   6.241   6.324   3.136  0.0766  0.0954  0.0140
20441W        W37965  17.575   4.513  12.310  0.0509  0.0979  0.0413
20442W        W37966  10.183  12.919  15.462 -0.1091 -0.0099 -0.2120
20443W        W37967  14.447   8.856   3.543  0.1956  0.2466  0.0129
20444W        W37968  14.484   1.133  13.341 -0.0293 -0.0133  0.1288
20445W        W37969   9.966   8.329   4.506 -0.1138  0.0244  0.1359
20446W        W37970  10.963  17.479  15.890  0.1471  0.0784 -0.1791
20447W        W37971  10.820  16.502  12.245 -0.0583 -0.1237  0.0430
20448W        W37972   0.750  15.856  15.048  0.2152  0.1791  0.2037
20449W        W37973  14.815   5.436   2.780  0.1900  0.3029  0.0451
20450W        W37974   2.049   4.372   0.236  0.2460  0.1730 -0.0622
20451W        W37975  14.495   6.234  12.545 -0.2798 -0.1026 -0.0374
20452W        W37976  13.335  14.892  13.030  0.2529 -0.1419  0.0820
20453W        W37977   1.435  11.356   5.974  0.0029  0.1362  0.2467
20454W        W37978   2.236   7.652  12.503 -0.5571 -0.2992  0.0120
20455W        W37979  14.730  15.102  13.894 -0.0586 -0.0788 -0.2328
20456W        W37980  10.235   8.561  11.993 -0.0813 -0.0774  0.1035
20457W        W37981   1.988  13.153   1.317  0.2223 -0.1684  0.3212
20458W        W37982  11.031  12.337  13.425  0.0571 -0.0474  0.0663
20459W        W37983   5.943   0.572  15.420 -0.0104  0.3348 -0.0551
20460W        W37984   7.569   1.344  15.664  0.1477 -0.3281 -0.3204
20461W        W37985   1.115   0.879  14.812 -0.2411 -0.3561  0.0686
20462W        W37986   8.377  10.776  14.558 -0.1403 -0.1874 -0.1356
20463W        W37987   2.824   0.162  13.308  0.2173  0.2193  0.2207
20464W        W37988   8.194  14.887   3.722 -0.0770 -0.0806 -0.2090
20465W        W37989   4.363   9.235  11.106  0.1504 -0.4249  0.1482
20466W        W37990   1.635  10.559  11.680 -0.0478  0.2447  0.4442
20467W        W37991   4.524   9.768   4.151  0.0563  0.0164 -0.0582
20468W        W37992  11.025  16.608   1.207 -0.1483  0.1310  0.0082
20469W        W37993  14.892  14.707  14.320 -0.0276 -0.3661  0.0785
20470W        W37994  12.345  12.014   4.428  0.0343  0.0567  0.1690
20471W        W37995   5.982  16.296   1.832 -0.2312  0.1566 -0.1104
20472W        W37996  15.319   5.010  13.449  0.2514  0.0988  0.1384
20473W        W37997   8.703  13.513   3.159 -0.1975  0.3130  0.2994
20474W        W37998   3.312   4.925   4.495 -0.0239 -0.3923 -0.0672
20475W        W37999   0.534   5.683   4.086 -0.1000 -0.1178  0.3268
20476W        W38000  12.106  14.550  12.513  0.1985  0.1439 -0.1810
20477W        W38001  17.281   4.559   2.210  0.1986 -0.0235  0.3758
20478W        W38002   4.409   0.589  15.859 -0.1584 -0.1171 -0.1203
20479W        W38003  14.504  12.693  14.290 -0.2945 -0.2234  0.1843
20480W        W38004  13.091   4.800  13.484 -0.0031  0.0889 -0.0345
20481W        W38005   2.420   0.370   0.947 -0.0200  0.1108  0.0021
20482W        W38006   5.490   7.930  13.061 -0.2735  0.0253  0.0906
20483W        W38007   9.502   2.569   1.025 -0.1575  0.0885 -0.2540
20484W        W38008   9.073  17.407  12.209 -0.1301 -0.3784  0.0337
20485W        W38009  14.553   0.904   5.636  0.2932 -0.3545  0.4296
20486W        W38010   1.763  16.529  10.153 -0.1512 -0.0654 -0.0923
20487W        W38011   9.849  15.723   2.239  0.0780  0.1951 -0.1212
20488W        W38012   2.804   9.409  10.486  0.0935  0.0602 -0.0560
20489W        W38013   2.790  10.319   1.345  0.2597  0.0579  0.0804
20490W        W38014  16.454   5.235  13.298  0.1629  0.0056 -0.0971
20491W        W38015  17.976  16.951  14.016 -0.1363 -0.0183  0.0789
20492W        W38016  14.793   3.340  11.579  0.0119  0.1410  0.0438
20493W        W38017  15.300  17.659   0.544 -0.0044  0.0826 -0.0355
20494W        W38018   7.559  11.675  15.889 -0.4074 -0.2101 -0.0706
20495W        W38019   4.449   8.126  14.655  0.1258 -0.0451  0.0510
20496W        W38020  11.977  15.699   3.592 -0.0825 -0.2495  0.0516
20497W        W38021  18.043   8.170   4.193 -0.3010 -0.4627 -0.1589
20498W        W38022   0.150  17.956  14.029  0.0527 -0.2967  0.0705
20499W        W38023   3.553   5.832   4.173 -0.2322 -0.0411 -0.4029
20500W        W38024   0.054  12.672  15.774 -0.3834  0.0121 -0.2745
20501W        W38025  10.512  14.532   3.368 -0.0061  0.4466  0.1447
20502W        W38026  13.749   0.523   2.017  0.1369 -0.0708 -0.0305
20503W        W38027   5.934   8.359  14.954  0.0109  0.2865  0.3573
20504W        W38028   9.742  17.116   0.269  0.2133  0.1294  0.0276
20505W        W38029   4.343  17.452   2.700 -0.1108  0.0443  0.0216
20506W        W38030  13.062   9.409  13.015 -0.1651 -0.1512 -0.3512
20507W        W38031  10.796   8.501   3.614 -0.2444  0.1245 -0.1370
20508W        W38032   1.417   3.279  11.705  0.0324  0.1256  0.1395
20509W        W38033  13.605   3.728   3.694 -0.0074 -0.1909 -0.1239
20510W        W38034  10.461   6.635   2.673  0.2590  0.3575 -0.0594
20511W        W38035   8.319   3.828  11.504 -0.2857  0.3028  0.0326
20512W        W38036  14.635  16.723  13.660 -0.2028  0.2119  0.0198
20513W        W38037  16.126  15.850   0.698 -0.0423  0.2196 -0.0742
20514W        W38038   7.299   9.679  11.585 -0.0119 -0.0592  0.1733
20515W        W38039   8.995   8.812  11.652 -0.1765  0.2924 -0.2198
20516W        W38040   8.243  13.818   3.754  0.1238 -0.0496 -0.1377
20517W        W38041   9.514   2.657   2.578  0.1499  0.0490  0.0747
20518W        W38042  13.300   7.223   2.431  0.0896 -0.0391 -0.3306
20519W        W38043   5.159   1.017  11.780 -0.0239 -0.0297 -0.2000
20520W        W38044  15.593   8.266   3.779  0.0357 -0.1863  0.5446
20521W        W38045   6.845   2.751  14.132  0.0975 -0.0785 -0.0943
20522W        W38046   6.183  15.777  10.602 -0.1783  0.2334 -0.0489
20523W        W38047   5.501   4.517  13.578 -0.0021 -0.1990 -0.0791
20524W        W38048   2.352  11.604  15.332  0.1880  0.2301 -0.1708
20525W        W38049  16.922   8.726   2.727 -0.1058  0.1047  0.2853
20526W        W38050   4.423   1.773  16.068  0.0661  0.0899  0.0942
20527W        W38051   5.306   5.184   1.758  0.2010  0.2491  0.0719
20528W        W38052   7.511   4.730  10.583  0.3766  0.1634 -0.1596
20529W        W38053   4.668   2.940   4.136 -0.2170  0.2592  0.2592
20530W        W38054  13.225  11.736   5.600 -0.1346 -0.0618 -0.0679
20531W        W38055   9.787   6.392   1.275 -0.1672 -0.1511  0.0254
20532W        W38056  11.320  15.034  14.945 -0.0926 -0.2317  0.0901
20533W        W38057  12.438   3.889   1.805 -0.0205 -0.2383 -0.2425
20534W        W38058   8.909   8.620   0.883 -0.0994 -0.0614  0.1285
20535W        W38059   6.569  12.546  11.520 -0.1130 -0.3534  0.0781
20536W        W38060  15.529  11.244   3.148  0.2191  0.0400 -0.0569
20537W        W38061   3.722   1.761   1.594 -0.1939  0.2147 -0.2270
20538W        W38062   4.329   2.717   0.003  0.1454  0.2144  0.1635
20539W        W38063   2.432   7.662   3.763  0.0465 -0.0206  0.1941
20540W        W38064   4.702   6.967   2.962  0.1843 -0.0023  0.0199
20541W        W38065   0.792   8.353   4.166  0.0929 -0.1136  0.1536
20542W        W38066  11.425   1.395  15.295 -0.0672  0.0518 -0.2722
20543W        W38067   2.478   1.435   3.464  0.0651  0.0781 -0.0856
20544W        W38068   3.294   0.605   4.227  0.0575  0.2459  0.1371
20545W        W38069   5.459   0.150  12.019 -0.0173 -0.1050 -0.1712
20546W        W38070  10.831   4.185   2.776  0.0952 -0.3622  0.1370
20547W        W38071  15.689   5.425  13.366  0.0618  0.3933  0.2778
20548W        W38072  16.440   8.855   0.945  0.1068  0.1372  0.5457
20549W        W38073   2.080  12.366  11.500 -0.0897 -0.1484 -0.0743
20550W        W38074   7.829   9.440   0.591  0.2685  0.0236  0.1864
20551W        W38075  14.285  13.185  15.972 -0.0213  0.0479 -0.1916
20552W        W38076   8.703   5.053   5.248  0.0898  0.1933  0.1275
20553W        W38077   5.210  16.840   3.593  0.1164  0.1399  0.3014
20554W        W38078  12.536   5.813   1.890  0.0544 -0.0175  0.2676
20555W        W38079   6.422   8.066   0.735 -0.1462  0.0094  0.2428
20556W        W38080  15.020  10.929  13.595 -0.0401  0.0638  0.2358
20557W        W38081  15.505   0.446   0.760 -0.0880  0.0263 -0.2148
20558W        W38082   5.619   3.534   3.359 -0.1584  0.1764 -0.1814
20559W        W38083  13.638  12.084   3.142 -0.4466 -0.1017 -0.3471
20560W        W38084   7.027  12.379  15.263 -0.1344  0.0071  0.3084
20561W        W38085   5.555   1.970  14.320  0.0412 -0.2405  0.0625
20562W        W38086   8.254  13.356  13.740 -0.2313 -0.3379  0.0023
20563W        W38087   2.022   3.691   1.102  0.0988 -0.0200  0.3920
20564W        W38088  18.099  16.392   1.541  0.0452 -0.0192  0.3911
20565W        W38089  13.556  16.413   4.060 -0.0795  0.1732  0.1745
20566W        W38090   3.353  13.790   1.221  0.0045 -0.0598  0.0953
20567W        W38091   6.468  16.070  12.686 -0.2623 -0.0081 -0.0179
20568W        W38092  10.640   8.717  11.023  0.0095 -0.0322 -0.0559
20569W        W38093  10.268  10.389  12.662  0.2881 -0.1570 -0.1220
20570W        W38094  13.778  16.215  13.475 -0.0801 -0.0618  0.1348
20571W        W38095  16.620   9.637  11.193  0.3135  0.1980  0.0419
20572W        W38096  16.316  15.166  13.482  0.0058 -0.0996  0.2574
20573W        W38097   6.971   0.542   3.034  0.1850  0.1430 -0.0246
20574W        W38098   8.054  11.907   0.060  0.0263  0.0842 -0.1412
20575W        W38099  16.060  17.002  12.794  0.2699 -0.3430  0.0339
20576W        W38100  10.571   7.488   4.518  0.0741  0.2413 -0.0369
20577W        W38101  11.827   4.488  11.563  0.1640 -0.1470 -0.2076
20578W        W38102  16.215  14.241   4.279 -0.0200  0.0736  0.4337
20579W        W38103   0.098  14.173   0.942 -0.2282  0.1864  0.1007
20580W        W38104   3.703  11.625   3.981 -0.1444  0.4837 -0.1213
20581W        W38105  13.562   4.290   3.387  0.0065  0.2189 -0.0503
20582W        W38106  10.000  12.506   4.878  0.1751 -0.0709  0.0049
20583W        W38107   3.273  15.307   0.345 -0.2380  0.2255  0.1761
20584W        W38108   3.564   9.509  12.214 -0.0417 -0.2636 -0.1266
20585W        W38109   1.291   2.313  13.420 -0.1821  0.4363  0.2017
20586W        W38110   1.948   4.442  14.442 -0.3361 -0.1810  0.0415
20587W        W38111   6.676  14.426  14.050  0.1745  0.0405 -0.1319
20588W        W38112   8.680   8.673   1.354 -0.1981 -0.1371 -0.2008
20589W        W38113  12.521   9.714   2.575 -0.2227 -0.1404 -0.1685
20590W        W38114  14.205   6.837   1.599 -0.0112  0.0282 -0.2758
20591W        W38115  12.023   3.794   4.446 -0.1702  0.0353  0.3692
20592W        W38116   3.980   0.374   0.578  0.0167 -0.2055  0.0995
20593W        W38117   9.906   9.454   2.293  0.0290 -0.2366  0.0024
20594W        W38118  10.610   1.018   2.921  0.4671  0.0103 -0.2616
20595W        W38119   4.933   8.448   4.212  0.1254 -0.0804 -0.3155
20596W        W38120  10.322  13.232   4.337  0.0231 -0.2659  0.0350
20597W        W38121   5.878   4.279  13.243  0.2139 -0.1450 -0.2267
20598W        W38122  15.357   5.981  14.483 -0.1355  0.0108 -0.0067
20599W        W38123  17.222   1.665   0.963  0.0127  0.3567  0.2603
20600W        W38124   7.399   2.560   3.074  0.0863 -0.1880 -0.3696
20601W        W38125   7.887  17.634   2.238 -0.2798  0.2075 -0.0423
20602W        W38126   5.199   7.771   1.843 -0.0471  0.1013 -0.1041
20603W        W38127  10.388   2.397   0.285  0.1644  0.2241  0.3564
20604W        W38128  17.953   1.131   2.891  0.0344  0.2724  0.1345
20605W        W38129   5.295   2.389   1.295  0.1573  0.1764 -0.0938
20606W        W38130   2.114   0.291   0.148 -0.1503  0.1146 -0.1869
20607W        W38131   2.677  16.198  14.432 -0.1473  0.0304  0.0414
20608W        W38132   7.400   3.196  15.270  0.1815 -0.0285  0.1396
20609W        W38133  14.402  11.539   4.872 -0.2713 -0.1510 -0.1108
20610W        W38134   3.618  13.666   0.717  0.0397  0.2464 -0.3103
20611W        W38135   8.223   8.903  14.668  0.0254 -0.0757  0.2325
20612W        W38136  10.309   9.103   5.112 -0.0737 -0.1678 -0.1096
20613W        W38137  14.049   1.082   1.448 -0.1154 -0.0149 -0.2315
20614W        W38138  16.830   8.992  15.838 -0.1982  0.3390  0.1774
20615W        W38139  11.131  13.400   2.991 -0.0724  0.1765  0.1452
20616W        W38140   1.904   5.589   5.937 -0.0171  0.0343  0.1959
20617W        W38141   8.393   2.546  13.348 -0.0745 -0.0438  0.4375
20618W        W38142   6.088   3.442  15.613 -0.2862  0.4272  0.1720
20619W        W38143   1.526   3.544   1.389 -0.2053 -0.4235  0.1033
20620W        W38144   3.018  16.347  11.581 -0.1135  0.1412  0.1103
20621W        W38145  14.946   4.996   5.307 -0.0479 -0.1069 -0.1527
20622W        W38146   6.524   0.470   4.230  0.1959  0.0704 -0.3878
20623W        W38147  13.713  10.927  14.863  0.0193 -0.1790  0.1264
20624W        W38148   0.642  11.341   3.823 -0.0264 -0.0620  0.3069
20625W        W38149  13.201  15.199   3.578  0.0235  0.1386 -0.0180
20626W        W38150  17.518   0.679  12.332  0.1773  0.0625 -0.4444
20627W        W38151  17.390  14.599  11.266  0.0444  0.4960 -0.0569
20628W        W38152   0.523  17.804  15.189  0.0142 -0.0732  0.2662
20629W        W38153  15.287   7.483  13.368 -0.1679 -0.0166  0.1975
20630W        W38154   1.688  17.283  12.320 -0.0517  0.0687 -0.0799
20631W        W38155  17.705   8.056  13.551  0.0082  0.0109 -0.1875
20632W        W38156  16.740   8.263  15.043  0.2342  0.0620  0.0755
20633W        W38157   2.937   5.094   3.265 -0.0293 -0.1813 -0.3527
20634W        W38158  17.544   5.110   3.210 -0.0360  0.0071 -0.0047
20635W        W38159   4.598   4.699   0.428 -0.3373  0.0622  0.2959
20636W        W38160  16.580   1.268  16.061  0.0781 -0.1561 -0.1451
20637W        W38161  17.565   3.217  16.024 -0.0378 -0.1863  0.0346
20638W        W38162   0.211  16.898  13.631  0.0346  0.0959 -0.1495
20639W        W38163  10.385  15.402   2.369  0.0814  0.0833 -0.0126
20640W        W38164   2.389   3.306   4.752 -0.0023  0.2621  0.1986
20641W        W38165   4.366   9.884   0.903 -0.2054  0.1098  0.0583
20642W        W38166   3.464   5.051   1.305  0.0441 -0.0518 -0.1539
20643W        W38167   4.133  10.704   0.476 -0.5035  0.0509 -0.2604
20644W        W38168   3.486  18.008  12.432 -0.4212 -0.0959  0.3666
20645W        W38169  10.281   4.970  12.916 -0.1305 -0.2220  0.2626
20646W        W38170  14.381   1.173   0.037  0.3170 -0.1186  0.1129
20647W        W38171  16.007  13.874   0.866 -0.2010 -0.0401 -0.0225
20648W        W38172  12.617   9.979  14.195 -0.2709  0.1985 -0.0145
20649W        W38173   8.170  14.940   4.729 -0.2370 -0.1935 -0.0343
20650W        W38174   4.513   8.141   0.258  0.5163 -0.0650 -0.1241
20651W        W38175   5.995   4.907   4.571  0.2218  0.0034  0.0530
20652W        W38176   1.136  12.562   2.603  0.0610 -0.1292 -0.0233
20653W        W38177   7.041  13.484   1.733  0.0977 -0.0917 -0.2223
20654W        W38178   6.726   1.181  13.132  0.1699 -0.0695 -0.3692
20655W        W38179   3.395  16.406   3.420  0.1475  0.1903  0.0377
20656W        W38180   0.012  16.290  12.461 -0.1702  0.1525  0.1177
20657W        W38181  15.158  17.876  12.383 -0.0602  0.2200 -0.0058
20658W        W38182   5.598   4.506  14.203 -0.0372 -0.0053  0.2477
20659W        W38183  15.993  15.340   0.956 -0.3845  0.3491 -0.3124
20660W        W38184   5.211   2.874  15.617 -0.0336 -0.1489  0.0743
20661W        W38185  12.250   0.215  14.973 -0.2089  0.0857  0.2441
20662W        W38186   8.236   9.346  14.842  0.1495  0.0635  0.3995
20663W        W38187   9.666   3.612   0.120 -0.0776 -0.0646  0.3717
20664W        W38188  12.665   9.583  12.024 -0.5039 -0.0652 -0.1699
20665W        W38189   2.159  17.683  14.274  0.1406 -0.0163  0.0726
20666W        W38190  12.486   5.261   3.455 -0.0040 -0.0233  0.1292
20667W        W38191  14.652   0.745   2.110  0.0682 -0.2004  0.4579
20668W        W38192   8.287  16.422  11.276 -0.1145  0.5165 -0.2616
20669W        W38193   8.958   3.964  14.222  0.0126  0.3489  0.2072
20670W        W38194  15.264  14.263  14.275  0.1926 -0.0085  0.1726
20671W        W38195  16.732  16.939  14.099 -0.1548 -0.1661  0.0823
20672W        W38196  13.113  17.803   0.966 -0.0300  0.0994 -0.2026
20673W        W38197   6.809   8.992  12.638 -0.1579 -0.1451 -0.1474
20674W        W38198   1.688   0.414   0.350 -0.0980 -0.0080 -0.0551
20675W        W38199   0.270  16.220   0.185 -0.1037 -0.2353 -0.0681
20676W        W38200   4.278  16.244   3.088 -0.0813  0.1119  0.0578
20677W        W38201  10.723  18.083   0.363  0.0183  0.0482  0.0270
20678W        W38202  10.656  13.421   1.686 -0.1350 -0.0526 -0.3014
20679W        W38203   5.278   3.330  15.354  0.1459  0.2406  0.3135
20680W        W38204  16.598  16.953  11.533  0.3564 -0.1046  0.0287
20681W        W38205   4.989  15.522   2.640  0.0136  0.0757 -0.0093
20682W        W38206  12.601  16.602   5.087  0.2161  0.0476 -0.1229
20683W        W38207   5.361  16.369  15.604  0.1749  0.0764 -0.4448
20684W        W38208  11.381  10.465  15.246 -0.1973  0.3212  0.1464
20685W        W38209  11.179   8.088   5.181  0.1586 -0.0626  0.1852
20686W        W38210   0.552   3.963   5.082 -0.1540 -0.0556 -0.2993
20687W        W38211   6.140   6.751  11.216  0.0124  0.1266 -0.1720
20688W        W38212  16.019   0.090  15.299  0.2866  0.3058 -0.2377
20689W        W38213   1.032   7.464   2.874  0.0732  0.2133 -0.0806
20690W        W38214  17.400  15.016   2.340 -0.1242 -0.2876 -0.2389
20691W        W38215   8.615   9.398   0.934 -0.0014  0.1309  0.1478
20692W        W38216   1.722   2.176  11.980 -0.1995  0.4155 -0.1307
20693W        W38217  11.646  17.024   1.428  0.1037  0.0624 -0.1715
20694W        W38218   2.640   0.179   2.908 -0.1073 -0.0820 -0.2766
20695W        W38219   4.988  14.816  12.061  0.2756 -0.0043 -0.0606
20696W        W38220   4.600  11.553  15.602 -0.2440 -0.1541 -0.0490
20697W        W38221  10.954   8.865   2.201  0.1389  0.0674 -0.1545
20698W        W38222  11.222   3.954   4.790 -0.0267 -0.0851 -0.2057
20699W        W38223   6.207   9.258  11.012 -0.2713 -0.1076  0.0135
20700W        W38224  10.810   5.012   2.953  0.0302 -0.1959  0.1203
20701W        W38225  14.615  13.742  12.765  0.0373  0.0757  0.0407
20702W        W38226  17.284  17.901  12.350  0.3808 -0.0118 -0.2559
20703W        W38227   5.194  12.884  15.672  0.4064  0.1274  0.0206
20704W        W38228   0.255  10.305   1.967  0.3274 -0.0291  0.0652
20705W        W38229   4.007   8.426  13.925  0.0303  0.0102 -0.2625
20706W        W38230   0.214  12.048   1.271  0.3487  0.0694  0.2351
20707W        W38231   8.920   9.971  14.676  0.0072  0.0358 -0.0859
20708W        W38232  16.932   1.318   1.898  0.3935  0.0321 -0.0037
20709W        W38233   0.502   4.584   0.667  0.0845  0.3722  0.0333
20710W        W38234  16.461  10.534  12.153  0.3970  0.3428 -0.1067
20711W        W38235   8.802  13.437   6.347 -0.1880  0.1555 -0.2510
20712W        W38236   2.371   4.613   2.514 -0.0471 -0.1208 -0.0470
20713W        W38237  17.630  13.105  11.268  0.0477 -0.2245 -0.0916
20714W        W38238  11.484   0.048  15.407  0.0389 -0.0826  0.2430
20715W        W38239  12.373   2.581  11.407 -0.2724  0.5333 -0.3547
20716W        W38240   2.934  11.319  14.349  0.1916 -0.0274  0.3756
20717W        W38241   9.948   2.303  12.922  0.0088 -0.4298 -0.1044
20718W        W38242   3.938   7.613   0.243 -0.0419 -0.1881  0.0926
20719W        W38243   9.622  12.992  12.980 -0.3422  0.0310  0.1020
20720W        W38244   6.565   0.173  13.510  0.5097 -0.3109  0.1209
20721W        W38245   8.648   1.767  13.885 -0.0487  0.2343  0.1394
20722W        W38246  16.916   6.858  13.264  0.0768  0.0353  0.0215
20723W        W38247  12.234   4.370   4.373  0.4840 -0.1091 -0.1498
20724W        W38248  17.750   3.269   1.105 -0.1969 -0.1598 -0.0198
20725W        W38249   0.066  13.231  11.854  0.1703  0.1470  0.1796
20726W        W38250   8.466   4.406  11.862  0.1981 -0.1191  0.0000
20727W        W38251  12.127  17.006   5.950  0.1827  0.1955 -0.4896
20728W        W38252   1.569  17.023   4.682  0.3237 -0.3423  0.0300
20729W        W38253  11.703  17.856   0.077 -0.1233 -0.0396 -0.2943
20730W        W38254   4.495   5.330   0.890 -0.0889 -0.0195  0.0622
20731W        W38255   5.834   1.764   1.736  0.0376  0.0050  0.0867
20732W        W38256   7.098  12.206   2.693  0.0531 -0.2724 -0.0722
20733W        W38257  16.972   8.438   3.964  0.2776 -0.2101 -0.2284
20734W        W38258   7.000  16.316   2.740  0.4087 -0.4535  0.1710
20735W        W38259   0.798  14.710   1.210 -0.2728 -0.4115  0.1095
20736W        W38260  16.077   5.355  14.216 -0.3693  0.1644  0.1004
20737W        W38261  16.587   9.955  15.469  0.1442  0.0041 -0.1403
20738W        W38262  13.315  13.517   0.729  0.1020 -0.1655  0.2960
20739W        W38263   8.769   0.635  12.634  0.0257 -0.3896  0.2045
20740W        W38264  17.451   0.625  15.322 -0.1879 -0.1857  0.2172
20741W        W38265   8.757  16.326  11.438  0.0296  0.1973 -0.0380
20742W        W38266   2.660  16.570   3.492 -0.0794  0.5865  0.0859
20743W        W38267  10.643  13.158   5.145  0.0376 -0.1049  0.1723
20744W        W38268  14.090   9.826   0.959 -0.3193  0.0381 -0.2003
20745W        W38269  15.345  14.594   0.660  0.1293 -0.0155  0.3084
20746W        W38270  10.116   0.235  14.864 -0.1340  0.1413  0.0388
20747W        W38271  17.351  16.009  14.408  0.0958  0.1925  0.1546
20748W        W38272   9.667   8.403  13.977  0.1840  0.0058  0.3655
20749W        W38273   4.248  15.284   0.927  0.3336 -0.2359  0.0031
20750W        W38274  13.225   0.063   0.026 -0.1558  0.2146  0.3389
20751W        W38275  10.226  14.605  11.649  0.1358 -0.1183  0.0766
20752W        W38276  17.368   5.747   5.264  0.0238 -0.0383 -0.1686
20753W        W38277   3.265   7.085  10.522  0.0177  0.0285  0.1756
20754W        W38278   2.296   2.927  12.348  0.4944 -0.0983 -0.0992
20755W        W38279  12.076   7.948  12.046  0.0357 -0.1843 -0.0460
20756W        W38280  17.236  12.884   4.126  0.0360 -0.2418  0.0159
20757W        W38281   4.574   2.696   2.302 -0.1167 -0.1244  0.2833
20758W        W38282  10.708  16.696   2.568  0.4131 -0.1283  0.0616
20759W        W38283  11.318   4.845   4.335  0.0183  0.1835 -0.3107
20760W        W38284   3.016   9.843  13.533  0.0855  0.1866 -0.1632
20761W        W38285   7.214   9.534  13.844  0.0232 -0.0164  0.1450
20762W        W38286  15.518  16.838   2.363  0.0330 -0.2924 -0.0211
20763W        W38287  17.126   9.206  15.519  0.2876 -0.1218  0.0533
20764W        W38288  10.650   7.036   1.055  0.0966  0.1907 -0.0844
20765W        W38289   3.905  17.603   2.995  0.1175  0.0428 -0.3712
20766W        W38290  13.252   6.284   0.284  0.0595 -0.0934 -0.4227
20767W        W38291   4.409  13.243  15.721 -0.0227  0.2657 -0.1097
20768W        W38292  16.114   7.173   1.858 -0.0183  0.2953  0.3883
20769W        W38293  17.821   6.753  14.921 -0.2862  0.2448  0.2664
20770W        W38294   9.936   7.409   3.097  0.0730  0.0171  0.3682
20771W        W38295   3.273   4.688  15.474  0.2342 -0.2123 -0.3008
20772W        W38296  16.435  13.049   0.641 -0.1049 -0.0847 -0.0512
20773W        W38297   1.259  17.833  13.958  0.0731  0.0586  0.0961
20774W        W38298   2.150   2.392  11.623 -0.2209 -0.1031  0.2038
20775W        W38299  16.830  16.891   3.022  0.1631  0.1709  0.1161
20776W        W38300   0.102   3.217   1.022 -0.2574 -0.3953  0.0501
20777W        W38301   9.945   0.480  11.573  0.0333 -0.0094 -0.1063
20778W        W38302  14.187  13.573  14.596  0.1705  0.0694  0.0942
20779W        W38303   2.795   9.551  15.509  0.2511  0.3258 -0.1755
20780W        W38304  13.401   7.639   4.987  0.2091 -0.2321 -0.1182
20781W        W38305   5.256   9.954   4.860 -0.1491 -0.6561 -0.2127
20782W        W38306  13.336   1.959   3.865  0.2521  0.1465  0.2175
20783W        W38307   9.418   3.326  12.448 -0.0942 -0.2376  0.2269
20784W        W38308   1.498  17.493   2.763  0.1872  0.1175 -0.0063
20785W        W38309   9.224   1.872   3.603 -0.0349  0.1952 -0.1501
20786W        W38310   8.897  18.166  11.378 -0.2306 -0.0063  0.3627
20787W        W38311  13.918  10.120   6.074 -0.0790 -0.0841 -0.0688
20788W        W38312   2.407  13.675  12.351  0.2417 -0.1118  0.1134
20789W        W38313  10.679   3.824   3.107 -0.0970  0.0263 -0.1552
20790W        W38314   9.976   4.798  15.937  0.1997 -0.3272 -0.0525
20791W        W38315  12.805  15.750   1.725 -0.1345 -0.0069 -0.1133
20792W        W38316   9.801  12.277   2.293  0.0900 -0.2179 -0.1368
20793W        W38317   4.287   8.046  11.847 -0.0006  0.1266 -0.2510
20794W        W38318  14.117  13.506  13.663  0.0616  0.3635  0.2001
20795W        W38319  15.802  15.956  11.588 -0.1260  0.2013 -0.2419
20796W        W38320  10.701  16.098   1.953  0.0579 -0.1790  0.2640
20797W        W38321   1.255   8.233   3.512  0.1653  0.0846 -0.0582
20798W        W38322   5.328   1.883   1.574  0.0832 -0.0079  0.0908
20799W        W38323  17.550   6.380   1.041  0.1333  0.2591 -0.0579
20800W        W38324  16.601   7.668  13.906  0.1781  0.0024 -0.1680
20801W        W38325  11.688   4.504  14.491 -0.0263 -0.1043  0.0306
20802W        W38326   2.892  10.541   2.014  0.0297 -0.0176 -0.2615
20803W        W38327  13.583  16.114  11.797  0.0358  0.2235  0.1190
20804W        W38328  13.963   1.089  14.911  0.2598  0.1492  0.1153
20805W        W38329   6.410  16.654   0.891 -0.2535  0.3445 -0.0547
20806W        W38330  13.395   4.999   0.777  0.1098 -0.1201 -0.0278
20807W        W38331  17.715   5.504   1.914 -0.2951 -0.2705 -0.1247
20808W        W38332  12.647   7.919   4.937  0.0428  0.0627 -0.0211
20809W        W38333   6.076  15.450  14.870 -0.1479  0.1045  0.3376
20810W        W38334  15.827  10.025   4.513 -0.1051 -0.0293  0.0841
20811W        W38335  16.879  17.619  13.446  0.3322  0.1617  0.1793
20812W        W38336   5.100   4.347  15.354 -0.2200  0.1621 -0.4030
20813W        W38337   0.834   9.624  12.651  0.0626 -0.1034 -0.0222
20814W        W38338   5.609  11.349  11.235  0.0884  0.0453  0.0647
20815W        W38339   1.381   1.006   4.031 -0.2683 -0.1029  0.1279
20816W        W38340   4.184  13.826   2.757 -0.0702  0.1466 -0.0171
20817W        W38341   8.635  12.866  13.023 -0.1599 -0.5039 -0.0371
20818W        W38342   7.262  16.626   3.446 -0.0022 -0.1597 -0.1389
20819W        W38343  11.935  14.176  15.367 -0.0723  0.0068  0.2727
20820W        W38344   3.745  17.506  14.063 -0.2332 -0.1256  0.0533
20821W        W38345  14.905   4.187  13.948 -0.1854  0.1819  0.4992
20822W        W38346  12.937   9.788   2.785  0.0577 -0.2584  0.0230
20823W        W38347   1.940  11.537  15.914  0.1879  0.0186 -0.0248
20824W        W38348  17.012  13.062   2.261  0.1861  0.0560 -0.0571
20825W        W38349   4.408  13.184   0.132  0.0456  0.1546  0.5588
20826W        W38350   9.611   4.285  13.148 -0.3107  0.2307 -0.1125
20827W        W38351   2.859  11.374  13.492  0.0512 -0.1099  0.3154
20828W        W38352  14.035  14.996  11.318 -0.0437  0.0317  0.4827
20829W        W38353  13.756   1.740  15.608 -0.0963  0.2449 -0.0527
20830W        W38354   4.594  15.805  11.106  0.1364  0.0825  0.0395
20831W        W38355   1.874   2.694   2.927 -0.0010 -0.2098 -0.1418
20832W        W38356   8.452   7.159   4.047 -0.0162 -0.0643 -0.2581
20833W        W38357   7.801   8.525   0.237  0.2057  0.0024 -0.1203
20834W        W38358   5.940   7.364   1.553  0.0498 -0.0725 -0.1357
20835W        W38359   7.037  13.654  14.841  0.0489  0.0900  0.1108
20836W        W38360  10.532   6.013   3.513 -0.0426  0.1662 -0.0731
20837W        W38361   9.777  11.047   4.114  0.1403 -0.1332  0.0451
20838W        W38362   9.308  10.345  14.521  0.0011 -0.2315  0.1119
20839W        W38363   5.902  15.816   1.729 -0.1770 -0.0485 -0.0424
20840W        W38364  14.788   5.171   3.845 -0.0774  0.1871 -0.1821
20841W        W38365  14.026   6.468  13.919  0.0543 -0.0720  0.2812
20842W        W38366  12.490  11.606  15.682 -0.0183  0.3367 -0.0280
20843W        W38367   1.036   5.065   2.796  0.0725  0.0851 -0.0739
20844W        W38368  16.534  17.576   3.619  0.1639 -0.0125  0.4834
20845W        W38369   4.734  15.252  12.070  0.2181  0.0206 -0.0249
20846W        W38370  13.499   7.118   3.062  0.3609  0.0013  0.0626
20847W        W38371   2.648   0.543   2.169  0.0948  0.1186  0.1745
20848W        W38372   3.680  12.785  13.430 -0.2427  0.0459 -0.0459
20849W        W38373   2.863  13.584   0.988  0.0343 -0.0502 -0.0021
20850W        W38374   3.655   5.541  11.743 -0.0066  0.0398  0.2571
20851W        W38375  13.470  16.975   0.288 -0.0765 -0.1386  0.3889
20852W        W38376   0.583  13.210  13.025 -0.2573  0.1102  0.1052
20853W        W38377   1.841   8.828  13.954 -0.4324  0.1318  0.0071
20854W        W38378  10.528   8.394  13.454 -0.0963 -0.0325  0.2509
20855W        W38379  17.153   7.387   4.156  0.0597  0.0597  0.1207
20856W        W38380   5.781   6.103  11.901 -0.0305  0.2886 -0.3915
20857W        W38381   1.554   6.982  12.983  0.1654  0.1609  0.2392
20858W        W38382  16.225   7.745   0.979  0.2365 -0.0518  0.2889
20859W        W38383   4.870  10.177  15.083  0.0495 -0.0590  0.0200
20860W        W38384   0.252   8.497  11.532 -0.2377 -0.4113  0.0852
20861W        W38385   2.106  16.772  13.344 -0.4475  0.0064  0.2909
20862W        W38386   6.358  17.122   0.789 -0.0349  0.1755 -0.1393
20863W        W38387   9.711  11.885  14.009  0.3276 -0.0291  0.0176
20864W        W38388  15.301   4.588  12.730 -0.0441  0.0265 -0.2431
20865W        W38389   4.193   4.035   2.904  0.0818 -0.0055 -0.2241
20866W        W38390   1.029  15.266  14.452  0.2542  0.3249 -0.1095
20867W        W38391   1.188   3.587  10.849 -0.1770 -0.0860  0.0140
20868W        W38392  11.602  14.616  10.976 -0.2083 -0.2682 -0.0813
20869W        W38393  17.794  16.058   1.285  0.0143 -0.1175  0.1364
20870W        W38394  16.473  17.279   1.733 -0.0184  0.0380 -0.0282
20871W        W38395  14.741   8.186   3.521  0.4769  0.0345 -0.3031
20872W        W38396   6.901   8.081   3.888 -0.1351 -0.0153  0.2481
20873W        W38397  11.649   3.408  12.353 -0.3600  0.0363  0.0825
20874W        W38398   8.232  14.242  15.389  0.1845 -0.1611 -0.3658
20875W        W38399   4.737  16.379  15.579 -0.3008 -0.2537 -0.0483
20876W        W38400   2.542   1.825   4.265 -0.1045 -0.0221 -0.2915
20877W        W38401   8.758   4.432  12.851 -0.0832 -0.2163 -0.2677
20878W        W38402   4.471  14.039   3.740 -0.0334  0.1040 -0.2064
20879W        W38403   1.862   5.007   3.878  0.0540 -0.0785 -0.1140
20880W        W38404  18.042   6.139  12.875 -0.0726  0.2279 -0.0966
20881W        W38405   6.205  17.861  14.426  0.2411 -0.0201  0.0192
20882W        W38406   2.115  10.099   0.429 -0.1046 -0.0242 -0.0953
20883W        W38407  16.938  15.640   0.261 -0.0184 -0.2129 -0.0432
20884W        W38408  10.010  12.154  14.280  0.4241 -0.2148  0.0349
20885W        W38409  18.042  10.800  12.456 -0.1384  0.2169  0.0401
20886W        W38410  17.112  13.363   3.499  0.1159  0.0527  0.3298
20887W        W38411   5.796   5.544  10.838 -0.0478 -0.0289  0.0364
20888W        W38412  17.800  13.417   2.886 -0.1961  0.0237 -0.2086
20889W        W38413  12.020  15.367   1.675 -0.0529 -0.3167  0.2203
20890W        W38414   9.906  12.671  15.079  0.0782 -0.1844 -0.0521
20891W        W38415   4.491  16.579   4.414 -0.0029 -0.1187  0.1850
20892W        W38416   5.612  13.376   5.043 -0.0812  0.1215 -0.0566
20893W        W38417  15.149   5.199  12.070  0.0992  0.0467  0.0186
20894W        W38418  17.121   4.331  14.692  0.4455 -0.0122  0.0704
20895W        W38419  15.052   9.435  14.907  0.2912 -0.1745  0.0115
20896W        W38420  11.387   2.235  15.996 -0.0138  0.2185 -0.0663
20897W        W38421   2.922   7.312  12.453 -0.1014 -0.2253 -0.1372
20898W        W38422  12.506  11.314  11.683  0.1615  0.0038 -0.0066
20899W        W38423   3.042  14.512   2.315  0.1828 -0.1664  0.2716
20900W        W38424   3.553  15.373  13.939  0.0790 -0.0222 -0.0933
20901W        W38425   5.841  15.937   0.335 -0.2134 -0.0846 -0.0873
20902W        W38426   0.183   5.508  12.976  0.1525  0.0237  0.1712
20903W        W38427  10.893  14.046   0.545  0.1408  0.2582  0.0381
20904W        W38428   4.190   1.559  11.633 -0.3755  0.3167  0.1233
20905W        W38429  17.987   2.844   3.647  0.2811  0.1646 -0.1441
20906W        W38430  11.617  17.037   2.379  0.3294  0.1675 -0.0426
20907W        W38431  15.482   0.677   1.273  0.0566  0.0619  0.2310
20908W        W38432  13.791   1.148  15.427  0.2067  0.0298 -0.1430
20909W        W38433  16.696   4.250  14.941 -0.1674  0.4215  0.0569
20910W        W38434  14.822   5.593  12.908  0.3094 -0.1141  0.1181
20911W        W38435   9.462   8.824  12.550 -0.1047  0.1451  0.2479
20912W        W38436   8.099  17.029  12.521 -0.2282 -0.1909 -0.2230
20913W        W38437  15.331   9.771   4.725  0.1937  0.0562  0.1601
20914W        W38438  16.747  10.451   3.592 -0.0040 -0.0762  0.0083
20915W        W38439  16.269  12.911   3.894 -0.0358  0.3637 -0.1231
20916W        W38440   9.219  15.776   4.465  0.0366  0.4120  0.1525
20917W        W38441   6.392  14.523  15.312  0.1677  0.2021 -0.1683
20918W        W38442  17.964   3.712  11.961  0.0317 -0.1402  0.1134
20919W        W38443  17.813   6.962   2.930  0.0950 -0.2627  0.0489
20920W        W38444  16.143  14.064   3.216 -0.1271 -0.2679  0.1698
20921W        W38445   8.763   2.202   2.616 -0.2270 -0.1925  0.0343
20922W        W38446  15.459  14.941   1.663  0.1146  0.1906  0.2098
20923W        W38447  14.529   0.018   0.982 -0.2233 -0.0841 -0.1604
20924W        W38448  17.192  16.821   1.550 -0.0959 -0.0233  0.1810
20925W        W38449   9.079   7.515   4.550 -0.0687 -0.2431 -0.0500
20926W        W38450   8.660  16.547   4.772 -0.0300 -0.0734 -0.1051
20927W        W38451   2.566  13.221  12.008  0.1936  0.0865  0.0024
20928W        W38452   6.427  14.688   1.782 -0.4418  0.0709  0.0895
20929W        W38453   6.364  17.680  14.039  0.3872  0.4658  0.0032
20930W        W38454   7.706  10.889  12.703 -0.0961 -0.1267 -0.0450
20931W        W38455  14.655   6.041   4.248 -0.0402 -0.1332 -0.2265
20932W        W38456  12.784   4.158  15.352  0.0441  0.0938 -0.2106
20933W        W38457   5.335  11.981   2.739  0.2177 -0.2255 -0.0477
20934W        W38458  14.658  12.738   0.140  0.2939 -0.2078  0.2291
20935W        W38459   7.981  10.425  14.544  0.2044  0.3427 -0.0335
20936W        W38460  17.593   1.177  14.294  0.3933 -0.3231 -0.1147
20937W        W38461  11.261   1.372  12.981 -0.1936 -0.1866 -0.3666
20938W        W38462  16.863  16.805  15.585 -0.1567  0.2686  0.1499
20939W        W38463   4.413   0.876  13.555 -0.1473  0.0516 -0.0377
20940W        W38464   8.432   9.792   2.914  0.1224  0.0356  0.2605
20941W        W38465   9.114   2.789  14.637  0.0255  0.0750  0.1430
20942W        W38466  12.027   8.068  13.832  0.0174 -0.3096  0.2633
20943W        W38467  14.086   2.155   2.452 -0.1178 -0.2764  0.0590
20944W        W38468  17.577  16.912   1.263 -0.1351  0.0508  0.4223
20945W        W38469  13.655   9.102   3.678 -0.1509  0.0884 -0.0038
20946W        W38470  14.536  12.644  15.363 -0.1365  0.0822  0.2289
20947W        W38471   5.593   0.159   5.577  0.3080 -0.1578 -0.0297
20948W        W38472   3.402   9.721  13.125  0.1109  0.1550  0.1512
20949W        W38473   1.465  12.476  14.695  0.1101  0.2590  0.1846
20950W        W38474   5.168  17.183  12.931  0.1237 -0.2772  0.3445
20951W        W38475   7.592  12.275   1.516  0.1555  0.0361  0.0681
20952W        W38476   8.196   1.284   2.278 -0.0953 -0.2877 -0.0454
20953W        W38477   3.301   8.946   3.607 -0.1096  0.0951 -0.2631
20954W        W38478   8.005  17.864   4.000 -0.4089 -0.0487 -0.0938
20955W        W38479   5.703  10.514   0.386  0.0746 -0.0943  0.1768
20956W        W38480   5.696  10.910   1.385 -0.2977  0.0115  0.0197
20957W        W38481  13.389  17.752  14.163  0.0920 -0.0476 -0.0336
20958W        W38482   6.465   4.903  15.734 -0.0636 -0.0702 -0.1105
20959W        W38483   0.760  13.910  15.614  0.0729 -0.2183 -0.1458
20960W        W38484   5.573   6.279  13.553 -0.0568  0.0717  0.1438
20961W        W38485  10.930   9.380   0.849 -0.0812 -0.2562  0.0070
20962W        W38486  10.937   2.688   0.874  0.0237  0.3827  0.0869
20963W        W38487   2.259  16.923   2.719  0.0900  0.0570 -0.0865
20964W        W38488   0.139   3.886   0.689 -0.0441  0.0873 -0.2772
20965W        W38489   1.582   1.004   1.278 -0.0403 -0.3101 -0.0521
20966W        W38490   0.239   5.716   0.130  0.1010 -0.0738  0.0736
20967W        W38491  15.255   5.717  12.071 -0.2164  0.2713 -0.1453
20968W        W38492   6.031  11.709   3.419 -0.1401  0.1328 -0.2312
20969W        W38493  12.485   5.172   5.016 -0.2074  0.0435 -0.0455
20970W        W38494   5.119   6.346   5.211  0.0782 -0.3936 -0.2042
20971W        W38495  14.561  10.698   0.772 -0.0813 -0.2528  0.0753
20972W        W38496  11.829   0.793   0.461  0.3135 -0.1807  0.0708
20973W        W38497  12.319   9.404   1.525 -0.2178  0.0638  0.0032
20974W        W38498  17.536   4.949   1.750  0.3015 -0.0204 -0.2616
20975W        W38499   4.088  10.382   3.753 -0.2104 -0.1137  0.0549
20976W        W38500  12.334   9.039  15.196 -0.2909  0.0183 -0.2743
20977W        W38501   9.022   5.371  11.886 -0.0796 -0.1166  0.0889
20978W        W38502  12.870   1.133   4.447 -0.1524 -0.2458  0.0325
20979W        W38503   7.371   7.350  12.539 -0.2519  0.0984 -0.0149
20980W        W38504  15.744  10.068   1.563  0.0793 -0.0628 -0.0805
20981W        W38505   4.211   8.502  15.776  0.0263 -0.1252 -0.0486
20982W        W38506   6.132   5.157   3.901  0.1957  0.0120 -0.2459
20983W        W38507  12.624  16.671   4.136 -0.1312 -0.1029  0.0725
20984W        W38508  13.996   9.871   0.103  0.1851 -0.0846 -0.0740
20985W        W38509  17.278   8.876   0.582  0.0317  0.0123 -0.1091
20986W        W38510  15.074  17.527  13.990 -0.2243  0.0381 -0.0735
20987W        W38511   1.901  16.313  15.672 -0.1019 -0.1173 -0.2267
20988W        W38512  11.961  12.346   4.735  0.1083 -0.0488 -0.3323
20989W        W38513  10.237  14.949  12.204 -0.1343  0.1840  0.0742
20990W        W38514   9.323   1.003   2.070 -0.2224  0.0110 -0.1170
20991W        W38515   0.102  14.641  12.212 -0.1887 -0.2747  0.0997
20992W        W38516   1.981   5.818  13.708 -0.0139  0.0805 -0.0062
20993W        W38517  17.309  14.727   4.692 -0.0220 -0.1942  0.1188
20994W        W38518  11.418   6.847  13.430 -0.3803  0.1510 -0.2420
20995W        W38519   1.203   3.126  15.562 -0.1530  0.0291 -0.3282
20996W        W38520   1.507   9.595   1.497  0.0449  0.1635 -0.1990
20997W        W38521  17.649  10.300  14.120  0.0202  0.0115  0.2855
20998W        W38522  12.545  16.631  11.802  0.2636 -0.0171  0.4997
20999W        W38523  14.777  15.248   4.976 -0.0248  0.1267 -0.2963
21000W        W38524   5.204   2.263  11.052 -0.0633  0.0608  0.2392
21001W        W38525  13.131  10.687  12.266  0.2496  0.0708 -0.0033
21002W        W38526   5.249   0.477   3.008  0.1035  0.2035  0.0415
21003W        W38527   5.658   5.246   0.215  0.2453 -0.0028  0.1500
21004W        W38528  17.911   0.232   5.027  0.1361  0.1622  0.3220
21005W        W38529  17.318  14.101  13.314  0.1058 -0.0591 -0.0067
21006W        W38530  16.652   9.361   6.087 -0.1855  0.2652  0.0267
21007W        W38531  17.231  10.429  11.676 -0.0632 -0.2698 -0.1198
21008W        W38532   0.477   2.744   0.541  0.2904 -0.3213 -0.0940
21009W        W38533  12.665   0.193  12.904  0.3506 -0.0181 -0.0939
21010W        W38534  15.944  12.368   5.037  0.0462  0.2317  0.0920
21011W        W38535  13.613  11.919   5.902 -0.1190 -0.1715  0.0436
21012W        W38536  17.725  16.548   3.820 -0.1170 -0.1649  0.1171
21013W        W38537  12.566   9.197   3.550 -0.0258 -0.0482  0.0178
21014W        W38538  17.319  14.439  12.310 -0.0648 -0.0422  0.2745
21015W        W38539  10.409  13.304   3.125 -0.4038 -0.0803  0.0543
21016W        W38540   1.543  12.157  14.270 -0.1680 -0.0577 -0.5001
21017W        W38541   9.722  13.501  12.233  0.4218  0.3745  0.1281
21018W        W38542   5.672  15.422   4.717  0.1416 -0.3188 -0.1695
21019W        W38543  12.073   6.248  14.460 -0.0902  0.0471 -0.2277
21020W        W38544   1.132   1.701  14.460  0.0475  0.1840 -0.0062
21021W        W38545   0.641   9.680   0.948 -0.1941 -0.2718 -0.2491
21022W        W38546  15.043   5.832   2.489 -0.4241 -0.1326  0.1194
21023W        W38547  11.745   3.434   4.656 -0.1926 -0.1959 -0.2415
21024W        W38548   6.019  17.980   0.847  0.0237  0.4482 -0.2220
21025W        W38549   6.956   1.237   1.275  0.0821 -0.1932 -0.1947
21026W        W38550  17.798   0.630   1.156  0.2339 -0.1800  0.3404
21027W        W38551   4.321   7.384   3.727 -0.0931  0.2121  0.0286
21028W        W38552  15.966   0.618   0.962 -0.1562  0.1315 -0.0282
21029W        W38553  14.812   5.586  11.757 -0.1982  0.3318  0.0491
21030W        W38554   6.058   6.905  10.636  0.1518 -0.0362  0.1819
21031W        W38555   7.709   3.238  12.229  0.0023 -0.2678 -0.1377
21032W        W38556   7.331   0.921   1.474  0.2128  0.0435  0.0558
21033W        W38557   8.409   5.720  12.732 -0.1991  0.0950 -0.0650
21034W        W38558  17.304  15.981  11.556  0.1839 -0.1297 -0.2380
21035W        W38559  13.025  16.842   4.979  0.1287 -0.0633 -0.1307
21036W        W38560  14.577  13.884   3.062 -0.1967 -0.0826  0.4232
21037W        W38561   1.029  11.268  15.144  0.1943 -0.2566 -0.1238
21038W        W38562  14.081   2.476   3.961 -0.0257  0.0942  0.0411
21039W        W38563   1.196  17.345   4.844 -0.0313  0.0406 -0.1317
21040W        W38564   3.789   9.381   4.693 -0.0683 -0.2963 -0.2629
21041W        W38565  11.541  16.684  13.079 -0.0728  0.0943 -0.1175
21042W        W38566   2.411   3.412   3.224 -0.1748 -0.0274  0.1067
21043W        W38567  14.278  17.234   5.309 -0.2449  0.1370 -0.2501
21044W        W38568   5.334   2.190  12.435  0.1060  0.1024  0.2910
21045W        W38569  16.719   2.746   1.371 -0.2322  0.0811 -0.0088
21046W        W38570  10.669  10.065  10.984  0.0641 -0.4801 -0.0421
21047W        W38571   3.108  13.802  14.579  0.1565 -0.0183  0.2725
21048W        W38572   2.017   9.802   1.400  0.4463 -0.0144 -0.0741
21049W        W38573  12.646   0.172  15.249 -0.3200 -0.4278  0.1680
21050W        W38574  16.249   3.911  11.842  0.0143 -0.1482 -0.3127
21051W        W38575  11.982   2.927   0.520 -0.1227  0.1006  0.0831
21052W        W38576   4.889  14.924  11.103 -0.1578 -0.0163 -0.3249
21053W        W38577   2.921   0.997  13.315 -0.1700 -0.3774 -0.0113
21054W        W38578   2.807  13.426  11.530 -0.0087  0.0218  0.0701
21055W        W38579   7.885  12.680  12.579  0.0094 -0.2732  0.0291
21056W        W38580   3.919   6.593  15.019  0.0582 -0.5266 -0.0634
21057W        W38581   7.269  12.888  13.239  0.1986  0.0365  0.2836
21058W        W38582   6.280   9.557   1.728  0.0154 -0.4131  0.2022
21059W        W38583  14.740  10.419  11.890 -0.4529 -0.2443 -0.1054
21060W        W38584  16.689  16.854  14.592 -0.0298 -0.0248  0.4959
21061W        W38585   2.892   1.741   1.947 -0.0809 -0.1624 -0.0914
21062W        W38586  15.156  12.488  13.046 -0.3741  0.0343 -0.2080
21063W        W38587  10.692   7.439  12.351 -0.1847 -0.3307  0.0291
21064W        W38588   5.754   5.825   3.244  0.0869  0.0154 -0.1359
21065W        W38589   2.333   5.546   2.158  0.0468 -0.0427 -0.0224
21066W        W38590   8.758  13.312   0.694 -0.4348 -0.2356 -0.1312
21067W        W38591   9.962   3.417  14.285  0.1533  0.1952 -0.1526
21068W        W38592  16.387  16.549  12.913 -0.1617 -0.2105  0.3681
21069W        W38593  18.145   8.972   5.164  0.2499  0.0568  0.3427
21070W        W38594  10.134   7.354  12.097 -0.0666  0.0471 -0.0473
21071W        W38595   8.067   6.860  15.352 -0.1750  0.0368  0.0214
21072W        W38596   7.742   4.769  15.467  0.1397 -0.4126  0.1655
21073W        W38597   6.219   0.709  14.391 -0.4763  0.0277 -0.1901
21074W        W38598  14.567   4.397  15.453  0.1487 -0.1720 -0.0314
21075W        W38599  11.177   1.300  14.507 -0.0793  0.3711 -0.0715
21076W        W38600   0.523   6.579   5.199 -0.2861 -0.3433  0.0435
21077W        W38601   3.278   9.609  15.687  0.1782  0.3654 -0.1727
21078W        W38602  12.403   2.633  13.362 -0.2873 -0.2171  0.0063
21079W        W38603  16.721   7.629   0.182  0.1610  0.2762  0.0845
21080W        W38604  17.260   8.737  15.787 -0.0782 -0.1221 -0.0910
21081W        W38605   6.549   6.714   1.312 -0.1051 -0.1158 -0.0608
21082W        W38606   7.200  14.439  14.058  0.1731  0.0125  0.0604
21083W        W38607   9.666  15.674  15.876 -0.2491  0.2865  0.3056
21084W        W38608   4.998   1.195  11.242  0.0956 -0.0491  0.0120
21085W        W38609   5.548  12.922  14.885  0.0006 -0.3232 -0.0089
21086W        W38610   3.876   7.068   3.793 -0.3507 -0.1322  0.0908
21087W        W38611   3.162   6.568   4.846 -0.1101 -0.2728  0.1584
21088W        W38612   8.747  10.324   1.961 -0.2019  0.0978  0.0829
21089W        W38613   8.403   6.803  13.859 -0.0780  0.0315  0.2129
21090W        W38614  12.202   7.585  14.516  0.2021 -0.0523  0.2098
21091W        W38615   7.396  12.482  16.083  0.3492  0.2091 -0.1749
21092W        W38616   4.746   0.795  13.928 -0.0431 -0.1169  0.2523
21093W        W38617  13.644  15.975   0.200  0.3893  0.0109 -0.0610
21094W        W38618  16.126   3.190   1.288  0.1706  0.3391 -0.0630
21095W        W38619  13.988  13.095   2.000  0.1423  0.0441  0.1851
21096W        W38620   4.256  16.342   2.570 -0.1935 -0.1073 -0.2146
21097W        W38621  17.946  14.684  11.264 -0.2964  0.1054 -0.2705
21098W        W38622   4.155   8.741  11.216 -0.1567 -0.1403  0.0005
21099W        W38623   8.181  15.556   4.265  0.0900  0.0609  0.1754
21100W        W38624   1.199  16.106  15.773 -0.2742 -0.2330  0.0769
21101W        W38625  13.217  11.583   6.068  0.1059 -0.1651 -0.1135
21102W        W38626  13.724  13.922   4.784 -0.1186 -0.0325  0.2476
21103W        W38627   2.349   4.063  13.221 -0.3581 -0.2269 -0.0493
21104W        W38628   0.212   0.780  11.215 -0.2257 -0.4190  0.0818
21105W        W38629  15.864   1.591   3.481  0.0906  0.3267 -0.0782
21106W        W38630   8.935   6.501   1.361  0.1826  0.1001  0.2579
21107W        W38631   5.225   7.047  14.742 -0.0014 -0.0503 -0.4560
21108W        W38632   4.256   2.339  12.554  0.1832  0.3004  0.1897
21109W        W38633  13.490  17.109   4.814  0.0939 -0.5208  0.2042
21110W        W38634  12.489   6.507   3.394 -0.0428  0.1195 -0.4870
21111W        W38635   8.298  13.238   3.484  0.1778  0.1800  0.3064
21112W        W38636  16.656   1.775   2.530 -0.2182  0.0652  0.0622
21113W        W38637  14.560  12.185   2.255  0.1251  0.1152  0.0785
21114W        W38638  16.791   2.300   0.554 -0.1318  0.0255 -0.1389
21115W        W38639   8.506   0.687   1.054 -0.0903 -0.0057  0.1293
21116W        W38640   9.341  16.852   3.201 -0.2322  0.0569 -0.1842
21117W        W38641  15.563   6.732   4.069  0.3951  0.1393 -0.3001
21118W        W38642   8.556  15.323  16.053  0.4195  0.2813 -0.0864
21119W        W38643   9.130  16.010   3.407  0.0717 -0.0341  0.3115
21120W        W38644  11.079   3.734  12.000 -0.0604 -0.1560 -0.0389
21121W        W38645  11.309  17.602   3.975  0.2056  0.0864 -0.1586
21122W        W38646   8.124  12.856  12.150 -0.0891  0.2602  0.4199
21123W        W38647  15.687   2.776   1.879  0.0443  0.1250 -0.2851
21124W        W38648   1.161  15.248   3.231 -0.3069  0.3395  0.2030
21125W        W38649  13.622   7.389  15.826  0.1182  0.0762 -0.1085
21126W        W38650   3.518   2.234   1.820 -0.2823 -0.3641 -0.1417
21127W        W38651  10.692   5.431  13.878 -0.2031 -0.2279 -0.1345
21128W        W38652   5.495  17.596  11.143  0.0361 -0.1031  0.1948
21129W        W38653   8.471   9.702  12.685  0.0842  0.1393  0.0497
21130W        W38654  14.363   5.827   3.968  0.2337 -0.4228  0.4129
21131W        W38655   4.529   0.318   1.218 -0.0135 -0.2025  0.7271
21132W        W38656   5.750   4.995   1.071  0.0778 -0.1579  0.0273
21133W        W38657  10.659  12.784   2.948 -0.1104  0.0750 -0.1503
21134W        W38658   9.383  13.292   4.711 -0.2146 -0.1639 -0.2697
21135W        W38659   8.499   9.011   3.120 -0.0717 -0.0492 -0.1330
21136W        W38660  13.891  11.006  13.566  0.0046  0.2351  0.3588
21137W        W38661  17.347  11.884  12.229 -0.1486  0.1619 -0.0519
21138W        W38662  14.815   5.564  12.262  0.1116  0.0618 -0.0940
21139W        W38663  16.593   6.125  14.429  0.0580 -0.4546  0.4374
21140W        W38664   6.973   7.887  12.040 -0.0779  0.0496  0.0317
21141W        W38665   2.618  10.221  12.929  0.2193  0.0505  0.1753
21142W        W38666  12.833  17.377  13.207  0.3143 -0.1378  0.1083
21143W        W38667   3.982   9.454   3.825  0.1570  0.1325 -0.2368
21144W        W38668  12.937   0.126   4.931 -0.0907 -0.1014 -0.0210
21145W        W38669   6.242  13.999  13.017  0.1188  0.1146 -0.1128
21146W        W38670   8.687   8.203   1.061  0.2261 -0.1223 -0.1266
21147W        W38671  13.960  11.073   0.161  0.0303  0.0889  0.1056
21148W        W38672   8.546   3.372  13.067  0.0581 -0.3153 -0.1005
21149W        W38673  12.492  13.202  12.228  0.0314 -0.3840  0.1591
21150W        W38674   8.733  17.264   5.481  0.1339  0.1200  0.0493
21151W        W38675  11.757   3.763  11.315  0.1634  0.0555 -0.1036
21152W        W38676   7.694   9.584  15.532  0.0119 -0.1131 -0.3454
21153W        W38677  16.422  10.353  12.632  0.3952 -0.0158 -0.2997
21154W        W38678   7.564   0.556  12.607  0.0325 -0.1765 -0.1205
21155W        W38679   6.924  17.063   1.020 -0.0786 -0.1035  0.3025
21156W        W38680  13.575  10.209  12.832 -0.1811  0.2262 -0.1484
21157W        W38681  15.000  13.888  16.001  0.0322  0.2967  0.0419
21158W        W38682   1.728  11.309  12.031 -0.0592  0.0362  0.2122
21159W        W38683   5.546   4.525   1.018 -0.0277  0.0489 -0.0119
21160W        W38684   6.367   7.701   2.753  0.1026  0.0582  0.0354
21161W        W38685  17.834  15.140  11.790 -0.1122 -0.2831 -0.0693
21162W        W38686  13.980   5.439   4.527  0.0171 -0.0507  0.3336
21163W        W38687  15.199   1.520   4.688  0.2100  0.1351 -0.0904
21164W        W38688  17.906   6.259  14.995  0.0373 -0.1884 -0.1021
21165W        W38689   9.247   9.630   4.206 -0.1863  0.1492 -0.0071
21166W        W38690  13.713   6.306  13.225  0.4781  0.2156  0.2607
21167W        W38691  13.119  10.026  12.909  0.1043 -0.1952 -0.1096
21168W        W38692  12.580  12.560   0.155  0.1392  0.0122 -0.1251
21169W        W38693  16.974   9.789   2.093 -0.0073 -0.0671  0.3918
21170W        W38694   5.363   8.109   1.480  0.2212 -0.0921  0.0653
21171W        W38695   3.748   9.291   2.312  0.4434  0.1905  0.0024
21172W        W38696   5.284   5.306  13.051 -0.1280 -0.1251  0.0332
21173W        W38697   5.067   2.831  14.601 -0.4318  0.1292 -0.2518
21174W        W38698   1.769   5.282  14.284  0.3455  0.4443  0.1702
21175W        W38699   8.066   9.480   1.018  0.1183 -0.1506  0.0952
21176W        W38700  14.782   6.021  14.242  0.1647 -0.1011  0.0243
21177W        W38701  16.024  15.117   4.540  0.0742 -0.1255  0.3036
21178W        W38702  18.124  10.287   3.367  0.0437 -0.1010 -0.2414
21179W        W38703   4.112  11.063  14.572 -0.0299  0.1506  0.2352
21180W        W38704   4.009   7.292   3.308 -0.1356  0.0257  0.3122
21181W        W38705   9.935   2.700   1.767 -0.3054 -0.1720 -0.1670
21182W        W38706   2.859  12.509   3.426 -0.0441 -0.3027  0.3024
21183W        W38707  15.260   9.736  11.889 -0.1520  0.1719  0.1931
21184W        W38708   7.455   8.933   3.525  0.2969  0.0944 -0.1997
21185W        W38709  10.285  11.202  12.290  0.0590 -0.0296  0.2517
21186W        W38710  17.325  11.462   3.776  0.0916  0.1152  0.1993
21187W        W38711  16.374   9.753   5.108 -0.0372  0.0618  0.2672
21188W        W38712  15.133  12.577  15.242 -0.2092 -0.2242  0.1601
21189W        W38713   0.994  12.695  14.163 -0.2248  0.0259 -0.0575
21190W        W38714  17.370  15.918   4.243  0.0546  0.1453  0.1035
21191W        W38715   0.023  11.826  12.500 -0.3039 -0.0225  0.1675
21192W        W38716   1.637  15.037   3.573  0.1047  0.3181  0.0503
21193W        W38717  15.501  17.875   4.269  0.0781 -0.2591 -0.3673
21194W        W38718   0.332   6.413  15.180 -0.2882 -0.3115 -0.1205
21195W        W38719  18.011   8.023   5.124  0.2931  0.0048 -0.1229
21196W        W38720   1.500  11.477  15.117 -0.1926  0.1444  0.2424
21197W        W38721  17.125   5.077   3.002  0.1235  0.1210 -0.3905
21198W        W38722   7.717  17.487   4.023  0.0361 -0.0995 -0.1693
21199W        W38723   8.705  13.072   6.055 -0.0097  0.0390 -0.0879
21200W        W38724   8.372  17.346  14.762  0.1871 -0.0478 -0.2152
21201W        W38725   6.373  15.275  14.417 -0.2122  0.1672 -0.0355
21202W        W38726   9.557   3.698  14.754 -0.1429 -0.1934  0.1511
21203W        W38727   4.927   0.878   2.922 -0.0976  0.0847  0.2116
21204W        W38728   0.362   5.025  12.451  0.2756 -0.0144  0.0184
21205W        W38729   3.505   0.993   2.701 -0.2804  0.1244 -0.0416
21206W        W38730  15.841   9.455   0.466 -0.3190  0.2228  0.0700
21207W        W38731   9.924   1.698  13.732 -0.2969  0.0116 -0.0709
21208W        W38732  14.967  15.207   0.142  0.1000 -0.1601 -0.2432
21209W        W38733   9.190  13.468   3.337  0.0131 -0.0617  0.1392
21210W        W38734   6.282   2.065  13.423  0.0331  0.3229 -0.1529
21211W        W38735   7.070   5.813  11.080 -0.0297  0.1299 -0.0420
21212W        W38736   7.734   7.337  14.756  0.0049 -0.2653  0.1169
21213W        W38737   2.538  13.785  15.812 -0.0203 -0.0083 -0.2974
21214W        W38738   2.102   1.272   2.051 -0.0617  0.0056  0.0490
21215W        W38739   6.974  12.611   3.930  0.2224 -0.0200 -0.1860
21216W        W38740   8.939   8.334  15.520 -0.0484  0.0711  0.1628
21217W        W38741  11.674  16.672  14.362 -0.0479 -0.1826 -0.2448
21218W        W38742   1.113   7.217   0.915 -0.0312  0.3080 -0.1275
21219W        W38743   7.104  11.834   4.448 -0.1461 -0.0749  0.0564
21220W        W38744   6.465   2.665  11.785 -0.1657 -0.0044 -0.0997
21221W        W38745   0.985   9.038   3.771  0.3484  0.3385  0.1322
21222W        W38746   4.899   7.200   0.457 -0.0290  0.2037 -0.0635
21223W        W38747   9.812  14.335   0.025 -0.0873  0.0207 -0.1394
21224W        W38748   4.240   2.398   0.979 -0.0412  0.2658 -0.2430
21225W        W38749  16.217  13.967   5.996  0.2902  0.2044 -0.3779
21226W        W38750   4.229  14.145  12.193  0.1579 -0.2263  0.0263
21227W        W38751  16.073  11.564  16.088 -0.0837  0.3114  0.0374
21228W        W38752  18.044  13.707  11.891  0.0596 -0.0746  0.1771
21229W        W38753   9.663   4.013   3.886  0.3526 -0.0752 -0.3839
21230W        W38754  16.154   4.814   0.663 -0.1050  0.0627 -0.1624
21231W        W38755  15.093   3.972  12.293 -0.0182  0.0354  0.1838
21232W        W38756   7.851   1.938  13.966 -0.0544  0.0557  0.1285
21233W        W38757   3.327  15.844  14.115 -0.1716 -0.2503 -0.1040
21234W        W38758   1.243  17.299   3.663 -0.1027  0.2301  0.0222
21235W        W38759  17.286   4.039  12.513  0.1433 -0.1097 -0.0355
21236W        W38760   4.263  11.824  11.002 -0.3336 -0.1000 -0.2210
21237W        W38761  15.559  11.284   4.157  0.0379  0.0239  0.1142
21238W        W38762   7.223  11.422  10.707 -0.1701  0.2089 -0.0726
21239W        W38763   2.706   9.532   4.092 -0.0525 -0.4044 -0.1346
21240W        W38764  14.051   9.268   5.073 -0.0291  0.3575 -0.0108
21241W        W38765   9.470  10.795  11.829  0.0022  0.3857  0.1677
21242W        W38766   2.588   0.142  16.013 -0.1126  0.2933 -0.0945
21243W        W38767   7.436  14.707   2.341 -0.1133  0.1081 -0.1116
21244W        W38768  16.232   4.381   3.367  0.0664  0.2036 -0.0285
21245W        W38769  12.798  14.495   3.974 -0.0844  0.0191 -0.2161
21246W        W38770   3.485   3.369   2.556  0.0712 -0.1772  0.1574
21247W        W38771  13.520   0.773  11.356 -0.1310  0.1835 -0.1309
21248W        W38772   1.804   6.722  11.301 -0.2200  0.2462 -0.3005
21249W        W38773   9.024   1.967  15.394 -0.0156 -0.3683  0.1037
21250W        W38774  14.682   9.932   1.134  0.2280  0.1599 -0.0087
21251W        W38775   4.741   3.681  14.343  0.0622 -0.0707  0.3320
21252W        W38776   6.685   4.112  14.170 -0.2952  0.0052  0.2322
21253W        W38777  16.860   1.138  15.204  0.0830  0.0585  0.1873
21254W        W38778   2.324  14.682   3.843  0.2109 -0.2143 -0.0261
21255W        W38779  14.492   4.791   3.587 -0.0152  0.0392 -0.1603
21256W        W38780  12.492   5.851  14.615  0.1546 -0.0981 -0.2277
21257W        W38781  13.576  12.592  11.429 -0.0222 -0.1414  0.1603
21258W        W38782   5.060  10.284  15.691  0.5625  0.0885  0.3497
21259W        W38783   0.140  11.580  15.810  0.0306  0.1650 -0.2397
21260W        W38784  18.188   7.927  16.076 -0.2926 -0.0428 -0.1522
21261W        W38785   7.988   9.340  13.295  0.1369  0.0449  0.0126
21262W        W38786  17.622   9.592  15.657  0.0816 -0.0445  0.0965
21263W        W38787  17.543   6.261   4.596  0.2547 -0.1036  0.0763
21264W        W38788   9.675   1.933   0.107 -0.1204  0.1713 -0.1614
21265W        W38789   3.327   8.631   4.650 -0.3695 -0.0102  0.2734
21266W        W38790   8.806  18.089  15.598  0.0746  0.1354  0.0573
21267W        W38791   2.693   2.474  11.674  0.2635 -0.0465  0.4800
21268W        W38792   0.687   8.577   5.060 -0.1844 -0.3168  0.1427
21269W        W38793   8.249   6.889  15.814  0.1809  0.2385  0.0997
21270W        W38794   6.481  17.330   5.561 -0.3300 -0.1998 -0.1103
21271W        W38795   5.394  16.463  11.117 -0.0302  0.1238  0.0661
21272W        W38796  14.607   2.745   2.859  0.0422 -0.0374  0.2674
21273W        W38797  14.830   0.222  15.483 -0.1174  0.1144 -0.2384
21274W        W38798  17.364  10.406  12.579 -0.3027 -0.1947  0.0745
21275W        W38799   0.365  17.878  10.533 -0.1359  0.1316  0.1155
21276W        W38800   8.968   0.395  15.549 -0.0866  0.0685  0.0501
21277W        W38801  16.108  14.501  11.591  0.2048 -0.1362 -0.0774
21278W        W38802   9.059  10.786  13.784 -0.0700  0.1073 -0.1133
21279W        W38803   9.865  10.106   3.946  0.0861  0.1850 -0.0166
21280W        W38804   8.365  18.077   2.443 -0.5581  0.0979 -0.0420
21281W        W38805  10.239  16.596   1.463 -0.1726 -0.2234 -0.3002
21282W        W38806   3.217  16.297  11.160  0.2245  0.0274  0.1477
21283W        W38807   1.097   2.628   3.344  0.1093 -0.2309 -0.1484
21284W        W38808   4.894   0.037   3.882  0.1426 -0.0317  0.1232
21285W        W38809   0.681  16.736   0.658  0.1242 -0.2207 -0.1798
21286W        W38810  11.923  10.217  14.637 -0.0008  0.1744  0.0668
21287W        W38811   0.739   2.321   2.634  0.1081 -0.0738  0.0042
21288W        W38812  10.065  12.702  12.950 -0.4708  0.2004 -0.2032
21289W        W38813   1.041  15.625   0.010 -0.1823 -0.0957 -0.0035
21290W        W38814  13.464  14.203  14.626  0.0334 -0.2940 -0.1528
21291W        W38815   8.968  11.988  14.591 -0.1692  0.1117 -0.0661
21292W        W38816  12.353   5.078   0.686  0.1165  0.0819  0.2063
21293W        W38817  15.819   0.379   3.108 -0.2009  0.0352 -0.1185
21294W        W38818   6.023  10.680  13.310 -0.1637 -0.3991  0.3383
21295W        W38819   4.147  16.142  11.054  0.2312  0.4677 -0.1227
21296W        W38820  16.377  12.879  12.660  0.1010 -0.0254  0.0623
21297W        W38821  13.108   1.927   0.412 -0.1329  0.4820 -0.0025
21298W        W38822   1.219   9.405   4.344  0.3064  0.2391 -0.0493
21299W        W38823  15.480   8.881  13.153  0.0190 -0.0455 -0.1736
21300W        W38824  14.356  14.590  13.083  0.1771  0.0426  0.0089
21301W        W38825   7.737  12.771   1.731  0.0734 -0.1955  0.0742
21302W        W38826  10.959  16.028  11.507 -0.1160 -0.0489  0.3123
21303W        W38827  15.013  13.703  12.337 -0.2357  0.2795  0.0729
21304W        W38828  17.223   5.224  13.509  0.3914 -0.0210  0.0968
21305W        W38829  16.229   6.501  14.463  0.0726  0.0470  0.0156
21306W        W38830   4.000   6.930  13.343  0.1028 -0.2089 -0.1651
21307W        W38831  17.761   4.547   3.751 -0.1008  0.0666  0.1284
21308W        W38832  17.596   1.275  12.830 -0.2284 -0.4003  0.2414
21309W        W38833   9.425   1.973  11.580 -0.1764 -0.3214 -0.1843
21310W        W38834  13.006   5.052   3.583  0.1398 -0.3183  0.1172
21311W        W38835   2.016  17.543  14.760 -0.1169  0.0677  0.1309
21312W        W38836   0.365  16.763   5.183 -0.1629  0.0784  0.1045
21313W        W38837   2.491  14.601  11.970 -0.1959 -0.1089 -0.1322
21314W        W38838   6.280   1.416   4.335 -0.0168 -0.2227 -0.3899
21315W        W38839   4.433   0.940  14.330  0.1011 -0.1493  0.0661
21316W        W38840  12.663   7.395  14.298  0.0550 -0.1119 -0.0788
21317W        W38841  13.302   0.188   0.509  0.3042  0.0270 -0.0644
21318W        W38842   7.749   3.382   3.888 -0.1706 -0.3544 -0.1370
21319W        W38843   2.671  13.865  14.422 -0.0024  0.0772  0.1786
21320W        W38844  12.719  10.413   4.485 -0.2381  0.0448  0.2534
21321W        W38845  14.371  16.187  14.271  0.0124 -0.1324  0.2708
21322W        W38846   5.522   7.006   1.142 -0.4904 -0.0167  0.0115
21323W        W38847  17.892  10.943  15.285  0.0282 -0.4041  0.0757
21324W        W38848   9.522  13.874   3.193 -0.3719 -0.2637  0.0364
21325W        W38849  10.035  16.334   0.683 -0.0920  0.2739 -0.1602
21326W        W38850   5.817  12.905  12.006  0.1511 -0.1916  0.3376
21327W        W38851   1.572   9.800   2.785  0.0623 -0.0967  0.0006
21328W        W38852   4.035  12.549   1.582 -0.0770  0.1059  0.2720
21329W        W38853   6.956  16.152  11.290 -0.2000  0.0000 -0.0915
21330W        W38854   3.066   7.713  13.839  0.0943  0.1625 -0.1012
21331W        W38855   0.242   1.491   3.217 -0.1220  0.3890  0.1064
21332W        W38856  14.812  11.486   1.225  0.5087  0.0825  0.0210
21333W        W38857  17.947  11.937  15.609  0.0139  0.2202  0.1531
21334W        W38858   8.826   6.260  12.880  0.1190  0.1218  0.0816
21335W        W38859   2.643  15.580   1.590  0.2705 -0.0998  0.1523
21336W        W38860   3.516  12.713  14.630 -0.3137  0.1435 -0.3276
21337W        W38861   7.913  12.529   0.757 -0.0909  0.0546  0.0191
21338W        W38862   0.121   2.965  15.438 -0.3288 -0.1281  0.1513
21339W        W38863  10.750  11.886  14.798  0.1027 -0.4840  0.0847
21340W        W38864  10.416   2.580   1.002 -0.0394  0.2324 -0.0895
21341W        W38865   0.424   9.149   4.645  0.3743  0.1968 -0.2212
21342W        W38866   1.039   3.360   0.112 -0.1266 -0.2928  0.3074
21343W        W38867  14.358  13.517  13.226  0.2482  0.2210 -0.1826
21344W        W38868   0.850   2.538   2.032  0.2678  0.3804  0.1087
21345W        W38869   7.294  17.512  12.813 -0.1210  0.1993 -0.3978
21346W        W38870  11.793  10.853  12.748 -0.0334 -0.2634  0.2687
21347W        W38871  13.236  13.582  12.348  0.1341 -0.3454 -0.0135
21348W        W38872   3.426   7.843   3.575 -0.1879  0.2011 -0.0296
21349W        W38873   7.108  14.623  13.204 -0.2974  0.0705 -0.0052
21350W        W38874   1.260  11.048   5.059  0.0096 -0.0495  0.2383
21351W        W38875  16.169  10.468  14.986  0.1699 -0.0988  0.0012
21352W        W38876   7.062   4.751   0.889  0.1575  0.1959 -0.2080
21353W        W38877  10.529  15.777   0.203 -0.0602 -0.0271  0.3127
21354W        W38878  11.003  13.487  11.976  0.1736 -0.2309  0.0970
21355W        W38879   8.490  15.304   4.606  0.0922 -0.2334 -0.0525
21356W        W38880  11.714   0.421  14.185  0.2865  0.3847 -0.0558
21357W        W38881  18.028   5.691   3.966 -0.1823  0.0892  0.0391
21358W        W38882   4.556  16.754  10.801  0.0334 -0.1443 -0.0180
21359W        W38883   7.481  11.492  14.597  0.0002  0.2231  0.0054
21360W        W38884  16.092  17.578   0.415 -0.0640  0.3247  0.0299
21361W        W38885  10.535   3.023  12.702 -0.1477  0.0161  0.2261
21362W        W38886  10.879  11.427   1.190  0.1926  0.1041  0.0819
21363W        W38887   3.252  14.989  14.232  0.1218  0.0127 -0.2084
21364W        W38888  18.192  12.359   0.212  0.1047  0.2118  0.0105
21365W        W38889  10.466   4.821   4.628  0.1275  0.1697 -0.1074
21366W        W38890   4.962   7.564  13.657 -0.2124  0.0148 -0.2408
21367W        W38891  11.653   9.434  13.396  0.0696 -0.3672  0.2039
21368W        W38892  14.631  16.803  11.823  0.2530  0.1866 -0.1270
21369W        W38893   9.209  17.118  12.618 -0.1006 -0.0871  0.0062
21370W        W38894   2.768  15.327  14.926  0.1034 -0.0529 -0.0012
21371W        W38895  12.468  12.428   4.832  0.2033 -0.1677  0.0082
21372W        W38896   5.011   0.060   3.332 -0.0685  0.0370 -0.0809
21373W        W38897   3.370   3.536  14.495 -0.1641  0.1693 -0.2398
21374W        W38898   0.296   3.509   5.484  0.1791  0.0339  0.0779
21375W        W38899   3.537   2.317   0.864  0.1834 -0.0390 -0.2563
21376W        W38900  17.822   1.445   2.472  0.0878  0.0169  0.0066
21377W        W38901   0.537  17.084   1.686 -0.0046 -0.0436  0.2364
21378W        W38902   9.928  10.476  14.592 -0.1431  0.1580 -0.2305
21379W        W38903   1.186   8.416   0.099 -0.1179 -0.1336 -0.1600
21380W        W38904  11.445  17.082  12.189 -0.1315 -0.0711 -0.3330
21381W        W38905  11.046   0.831  14.538  0.2132  0.0253 -0.3278
21382W        W38906   4.688   0.424  12.967 -0.0707 -0.3217  0.0034
21383W        W38907  15.740   2.325   4.884 -0.0360 -0.0674 -0.3077
21384W        W38908  17.632   5.306  15.155 -0.2322 -0.1738  0.4118
21385W        W38909   0.465   7.426   3.956  0.2228  0.0028 -0.3659
21386W        W38910  16.308   2.049   0.541 -0.0952 -0.2254 -0.0150
21387W        W38911   4.215  14.712  16.052  0.3504 -0.3087  0.0768
21388W        W38912   8.185  15.750   4.757 -0.0319  0.1165  0.1099
21389W        W38913   2.958  11.662   4.717 -0.0514 -0.1685 -0.0835
21390W        W38914  17.741   2.583  14.725 -0.1148  0.0730 -0.1512
21391W        W38915   5.287   6.040  12.211 -0.1121 -0.1858 -0.2331
21392W        W38916   1.759   4.927  13.772  0.2760 -0.1464 -0.1245
21393W        W38917   4.612  13.371  12.945 -0.2624  0.2464 -0.2682
21394W        W38918   5.191   2.168   2.790  0.2623 -0.0731  0.0278
21395W        W38919   0.376  13.950  12.767 -0.0871 -0.0457  0.1552
21396W        W38920   4.826   9.309  12.333  0.0824  0.0750  0.0102
21397W        W38921  11.785  16.057   5.732  0.1670  0.3324 -0.1529
21398W        W38922   1.861  16.449   1.923 -0.0190 -0.1592 -0.4151
21399W        W38923  17.801  11.167   2.797  0.0647 -0.1251 -0.0703
21400W        W38924  13.596  15.627   2.780 -0.1749  0.0112 -0.0579
21401W        W38925  10.721   5.705  10.908  0.1717 -0.0396  0.3201
21402W        W38926  16.730  18.195  16.049  0.3094 -0.2620  0.0471
21403W        W38927   1.059  10.217   0.697 -0.2246 -0.3290  0.1818
21404W        W38928   3.844   5.486  11.220  0.0198 -0.0426  0.2260
21405W        W38929  13.327  15.412  10.866 -0.0311 -0.4049 -0.1921
21406W        W38930  11.465   2.799  15.115  0.4461 -0.3356  0.0179
21407W        W38931  11.197   1.417   5.372 -0.1196 -0.2247 -0.0989
21408W        W38932   3.479   7.746  15.460 -0.0323  0.3115 -0.3969
21409W        W38933   8.611   2.099  15.158  0.0563 -0.0896  0.0291
21410W        W38934  18.156  15.317   1.298 -0.1206 -0.0265 -0.0427
21411W        W38935  10.130  17.092   2.836 -0.0084  0.2605 -0.1348
21412W        W38936   9.846  10.152  15.358  0.4193  0.1134  0.2278
21413W        W38937   6.346   6.155   2.527  0.0566 -0.1487  0.1110
21414W        W38938  11.783   9.855  16.002 -0.1281  0.2089 -0.0136
21415W        W38939  16.600   7.549   4.065  0.0728  0.0088 -0.0078
21416W        W38940   2.216   3.695  12.129  0.0792  0.1464  0.0927
21417W        W38941  15.846   4.012  11.593  0.2281  0.0738 -0.4738
21418W        W38942   0.897   6.839   2.174  0.2914 -0.1953  0.0978
21419W        W38943  13.514  12.143   1.338  0.1218  0.1717  0.2567
21420W        W38944   1.445   6.167  15.448 -0.0683 -0.2646  0.0897
21421W        W38945   0.428  17.701   0.543  0.0406 -0.1637 -0.2214
21422W        W38946  16.659   1.555   1.272 -0.1340  0.2316  0.2447
21423W        W38947   1.635  17.600   0.247  0.1855  0.2547 -0.1479
21424W        W38948  17.880   6.150  12.391  0.0658  0.1982 -0.1021
21425W        W38949   5.952   1.599   2.335  0.1553  0.2463  0.0823
21426W        W38950   6.110  15.668   4.574 -0.0875 -0.1461 -0.1684
21427W        W38951   1.371  10.484  12.507  0.0746 -0.0450 -0.3188
21428W        W38952   3.348   2.679  13.374 -0.0888 -0.1256 -0.0313
21429W        W38953   3.329  17.431   0.060  0.0224 -0.2675  0.0230
21430W        W38954  16.489   0.388  15.128  0.0238  0.1427 -0.1630
21431W        W38955   2.645  10.323   5.106  0.1775 -0.0280  0.2016
21432W        W38956  15.650  14.430  14.657  0.1427  0.3403  0.3640
21433W        W38957  15.027  12.548   1.115 -0.2339  0.0388  0.0044
21434W        W38958   4.043  13.529  15.982  0.2242  0.0528  0.1501
21435W        W38959   5.718  16.889   0.367  0.1210 -0.1690 -0.4597
21436W        W38960  16.267   3.014   2.156  0.1141  0.2917  0.0987
21437W        W38961  12.611   8.527  10.251  0.1737 -0.0121 -0.1099
21438W        W38962   5.248   3.904   0.572 -0.2999  0.0332  0.0083
21439W        W38963  13.866   7.448   4.936  0.0596 -0.0244 -0.1845
21440W        W38964  14.401   0.091  13.001  0.0730 -0.2113 -0.2561
21441W        W38965  16.856   3.516   3.609 -0.2313  0.1596 -0.2101
21442W        W38966   1.746   1.498  13.435  0.1180  0.1528  0.0028
21443W        W38967   4.935  12.750   1.778 -0.0666 -0.1582 -0.0087
21444W        W38968   8.555  14.627   3.958  0.0477 -0.5018 -0.0779
21445W        W38969   3.412  15.522  14.461 -0.1162  0.0706  0.0601
21446W        W38970  14.773   1.261   4.915  0.1055  0.2690 -0.2318
21447W        W38971   2.893   0.758   4.547 -0.3826  0.0097 -0.0573
21448W        W38972   6.273   9.765  14.703  0.0500  0.2579  0.1062
21449W        W38973  11.531   7.721   2.439  0.0805  0.1521 -0.1228
21450W        W38974  16.825  12.299  13.924  0.4372  0.1021 -0.2155
21451W        W38975   3.231   3.147  12.936  0.0793 -0.0121 -0.1095
21452W        W38976   6.660  12.688   1.745 -0.0551  0.0294 -0.2329
21453W        W38977   3.444   8.764  15.161  0.2198 -0.1435  0.3018
21454W        W38978   4.046  14.346  11.226  0.0441 -0.1216 -0.0172
21455W        W38979   9.024  16.199   4.718  0.0177 -0.2554  0.1915
21456W        W38980  14.601   6.186  14.660  0.0849  0.0166  0.2358
21457W        W38981   9.308   8.098  14.066 -0.0568  0.1607  0.0885
21458W        W38982   3.674  10.039   3.640 -0.3142 -0.0296 -0.3225
21459W        W38983  11.250  12.607  12.962  0.1766 -0.1494 -0.1668
21460W        W38984  14.200   4.036   5.941 -0.0897 -0.3150 -0.3132
21461W        W38985  12.757  12.499  11.508  0.0371  0.3153 -0.4708
21462W        W38986  11.333  10.042   0.774 -0.0550  0.0540  0.3815
21463W        W38987   3.469   2.890  12.552  0.1471 -0.0618 -0.0685
21464W        W38988  16.063   5.899   2.539 -0.3342 -0.1408 -0.1565
21465W        W38989   1.104   3.233  14.703 -0.1669  0.4348 -0.2041
21466W        W38990  11.942  14.831  11.369  0.2020 -0.1718 -0.1015
21467W        W38991   5.830   3.759  13.242 -0.2184  0.1676  0.1821
21468W        W38992   2.872   0.335  11.600  0.1176 -0.1901 -0.0032
21469W        W38993  16.785   7.333   5.096  0.0380  0.1501 -0.1702
21470W        W38994  11.036  15.780   1.729  0.2691  0.1215 -0.2684
21471W        W38995   9.987   3.360  15.469  0.0669 -0.0013 -0.1145
21472W        W38996   2.183   1.609   3.080 -0.0995 -0.1093 -0.2238
21473W        W38997   8.795  12.036  11.182  0.2893 -0.0527  0.4783
21474W        W38998   2.090   9.580   4.855  0.1775  0.1952  0.1427
21475W        W38999   7.187  13.836   3.994  0.0961 -0.1429 -0.0562
21476W        W39000  14.970   0.426   0.924  0.1425  0.0841 -0.2031
21477W        W39001   9.991   1.454  11.581 -0.0545  0.1425 -0.3737
21478W        W39002  11.125  14.235  12.541  0.0162 -0.2339 -0.1248
21479W        W39003   6.078  14.727  10.533 -0.0489  0.2660 -0.1787
21480W        W39004  14.702   2.671  12.231  0.2507 -0.2181  0.3513
21481W        W39005  14.520   6.410   2.830 -0.1428 -0.0271  0.1392
21482W        W39006   3.925   3.115   2.337 -0.1373 -0.2579  0.1411
21483W        W39007   0.160   3.532   0.255 -0.2415 -0.0377 -0.3344
21484W        W39008  17.846  14.978  13.560 -0.0453 -0.0233  0.1095
21485W        W39009  13.066  14.446  14.807  0.0817  0.1854 -0.4076
21486W        W39010  16.068  12.094  15.466 -0.1390 -0.0538  0.1773
21487W        W39011   5.811   0.096  13.401 -0.2276 -0.0375  0.1880
21488W        W39012   0.305  18.067  12.730 -0.0650 -0.2081  0.0382
21489W        W39013   1.440   5.139  12.515  0.3173  0.0458 -0.1787
21490W        W39014  12.549  17.446   4.569 -0.1752 -0.2305  0.1571
21491W        W39015   6.536  17.035  11.775 -0.1882  0.1879  0.0590
21492W        W39016   0.853   5.175  14.664 -0.1266 -0.0582  0.0404
21493W        W39017   0.725   5.800  16.050  0.0783 -0.1979 -0.0565
21494W        W39018   8.484  16.364   1.323 -0.0388  0.0368  0.1394
21495W        W39019   8.793   2.910   3.145  0.1438 -0.5328  0.2413
21496W        W39020   6.774   0.264  11.274 -0.0036 -0.0432 -0.1678
21497W        W39021   1.325  12.525   4.285 -0.0921 -0.2064  0.1987
21498W        W39022  12.448  15.587   1.453 -0.1198  0.1957  0.3112
21499W        W39023   1.831   8.832  12.917 -0.0540 -0.0162  0.0567
21500W        W39024  17.144   6.663   0.254 -0.1281  0.0966  0.0007
21501W        W39025   0.587   5.086   1.422  0.0642 -0.2123  0.0797
21502W        W39026   2.743   9.839   1.122  0.2481 -0.1370 -0.0573
21503W        W39027  13.830  12.726   2.467 -0.0324 -0.0032 -0.0890
21504W        W39028  11.609  15.595   0.311 -0.0336  0.0014  0.1393
21505W        W39029  16.911   1.157   5.181  0.2181 -0.0982  0.0794
21506W        W39030   2.068   1.876  15.015 -0.4554  0.0976 -0.3192
21507W        W39031  15.248  16.775  14.339 -0.0665  0.2413 -0.0035
21508W        W39032  10.565   4.039  13.077  0.3781 -0.1658 -0.1255
21509W        W39033  15.453  18.188  11.856 -0.2819 -0.2728 -0.2110
21510W        W39034   4.810  14.265   3.488 -0.1379 -0.3784  0.1865
21511W        W39035   6.662   9.633   4.281 -0.1126 -0.0097  0.1379
21512W        W39036   9.591   1.573  11.245  0.1498 -0.0701 -0.1760
21513W        W39037  14.717  11.161   6.281  0.0619 -0.3594 -0.0372
21514W        W39038   9.275  12.661  12.299 -0.1142  0.1224  0.0215
21515W        W39039  11.872   9.040  14.371  0.0653  0.1901  0.1150
21516W        W39040  14.528  15.789  14.511 -0.2038  0.0817 -0.1706
21517W        W39041   4.794   0.485   3.883  0.1743 -0.0278 -0.1277
21518W        W39042  10.929   4.004  14.646 -0.3185  0.4102  0.0562
21519W        W39043   8.289   1.809   4.533 -0.1652 -0.0978 -0.2024
21520W        W39044  15.566   6.406  12.653 -0.0703 -0.2241  0.2000
21521W        W39045   4.228   3.224  13.977  0.0377 -0.0080  0.0386
21522W        W39046   4.377   3.511   2.937  0.5045  0.4650 -0.0252
21523W        W39047  16.151   3.055   0.779  0.0402  0.3724 -0.1884
21524W        W39048  14.812   4.743  14.893  0.1927 -0.0664  0.2728
21525W        W39049   2.300  15.198  12.803 -0.0883  0.2015  0.2899
21526W        W39050   8.615   6.286   4.217  0.0882  0.0055 -0.2135
21527W        W39051   3.713   0.797   4.490 -0.1822  0.1209  0.1717
21528W        W39052   8.867   4.938  10.822  0.1676 -0.2681  0.1632
21529W        W39053   0.086   0.724   0.939 -0.1342 -0.1812  0.0203
21530W        W39054  16.248   8.185   5.987  0.3591 -0.0475  0.1604
21531W        W39055   6.261  12.346  11.200 -0.0139 -0.2427 -0.2185
21532W        W39056  14.348   2.995   1.986  0.1898  0.0651  0.0301
21533W        W39057  18.040  10.740   4.862 -0.2692  0.1088 -0.4196
21534W        W39058   1.433  14.138   0.999 -0.1578  0.2392 -0.2457
21535W        W39059   1.897  16.113  12.637 -0.1664  0.0613 -0.2274
21536W        W39060  11.606  17.715  14.762 -0.0850 -0.3036  0.0222
21537W        W39061  15.220  14.245   3.381  0.0580  0.2863  0.2364
21538W        W39062  11.104   3.530   3.367  0.0973  0.3154  0.0019
21539W        W39063   0.417  16.895   2.748 -0.3034  0.0292 -0.0603
21540W        W39064   1.762  10.723  15.167  0.3060 -0.1626  0.0443
21541W        W39065   3.995   3.695  14.762  0.2575  0.1329  0.2266
21542W        W39066  13.073  11.063  13.226 -0.0961  0.2427  0.1978
21543W        W39067   6.740   6.837   0.341  0.0038 -0.1281  0.0359
21544W        W39068  13.617   6.883  16.017  0.0872 -0.2745 -0.1744
21545W        W39069  16.416   5.415   0.172 -0.0610  0.1546 -0.1300
21546W        W39070   2.256   0.770   1.263 -0.1138  0.0156  0.2913
21547W        W39071  10.622   8.118   4.068  0.2421  0.0039 -0.2225
21548W        W39072   9.095  14.471  15.543  0.0920 -0.1540  0.1349
21549W        W39073  12.095  13.296  11.870  0.1240 -0.1502  0.2177
21550W        W39074   1.812   8.505   2.448  0.2708 -0.0850 -0.2158
21551W        W39075   8.760   7.586  14.815 -0.1322 -0.1169 -0.1036
21552W        W39076   7.793  10.972   3.549 -0.4699  0.3884  0.2719
21553W        W39077   5.320   7.242   3.661 -0.2097 -0.1317  0.2305
21554W        W39078  13.077   1.881  15.592  0.2436 -0.1202 -0.0219
21555W        W39079  10.339   2.750   4.686  0.0349 -0.2379 -0.0495
21556W        W39080  15.027  13.764   4.429 -0.1724  0.1899  0.0768
21557W        W39081  16.769   2.158  14.441 -0.1372  0.1852  0.0256
21558W        W39082  10.259   7.580   2.777 -0.0282 -0.0734 -0.0343
21559W        W39083   2.572   7.801   2.461 -0.2737  0.1753 -0.0540
21560W        W39084   9.742   9.630   4.633  0.1938  0.1399 -0.1387
21561W        W39085   1.875  16.083  11.662 -0.0470  0.2160  0.0653
21562W        W39086   4.991   2.492   3.193  0.2273  0.2817  0.0784
21563W        W39087   7.749  10.841   5.091 -0.2477 -0.2165 -0.0638
21564W        W39088   9.269  12.418   0.960  0.0136 -0.0401  0.0088
21565W        W39089  11.031  12.150  12.819  0.2506  0.0770  0.4258
21566W        W39090   3.182  10.534  15.649 -0.1307  0.0983  0.2119
21567W        W39091   6.033   9.665   2.961 -0.2092 -0.3769 -0.3137
21568W        W39092   4.157  10.312  12.821  0.0928 -0.0823 -0.0165
21569W        W39093  11.082   8.193  11.164 -0.2079 -0.0131 -0.0841
21570W        W39094  11.249  11.838   4.143 -0.2534  0.2531 -0.3205
21571W        W39095  17.311   2.411  11.718 -0.1697 -0.0456  0.0358
21572W        W39096   3.267   0.350  14.406 -0.1787  0.0863  0.2420
21573W        W39097   8.424  16.057  13.825  0.1800  0.1236 -0.1980
21574W        W39098   8.999   0.693  11.514  0.1312  0.0318 -0.2975
21575W        W39099   2.315  13.185  11.505 -0.0449  0.1239  0.1788
21576W        W39100  15.125   8.679   2.726  0.1946  0.0553 -0.0889
21577W        W39101  12.518   4.002  13.136 -0.0536 -0.0955 -0.2200
21578W        W39102  16.287  14.496  14.172  0.3402  0.0704 -0.1970
21579W        W39103   0.259  14.416   0.512 -0.0657 -0.0467 -0.2218
21580W        W39104   2.813   8.076   2.099  0.0502  0.0920  0.3030
21581W        W39105  17.750  13.635  12.271  0.0688 -0.3304  0.0918
21582W        W39106   8.519  17.685  13.109 -0.2076  0.1228 -0.1036
21583W        W39107  17.138   2.185  12.182  0.0319 -0.0145 -0.0213
21584W        W39108   2.363   4.600  13.131 -0.0822  0.0520 -0.0421
21585W        W39109  11.743   6.196   4.448 -0.0245  0.0233  0.1925
21586W        W39110   6.676  11.411  10.672  0.0046  0.0675  0.1031
21587W        W39111   4.419  18.177  14.413  0.1566  0.1216  0.3380
21588W        W39112  10.652   3.803   2.352  0.0339 -0.1147 -0.0283
21589W        W39113  13.221   3.973   1.420 -0.1588 -0.1620  0.0015
21590W        W39114   5.993  17.168  11.872  0.1291 -0.2050 -0.0415
21591W        W39115   8.161   5.266  10.165 -0.0911  0.2449  0.0788
21592W        W39116   9.461   3.357  11.342  0.2087  0.0433  0.1349
21593W        W39117  12.164   9.977  13.879  0.1817  0.0871  0.2596
21594W        W39118   0.960  13.496   1.670  0.1890  0.1834 -0.1434
21595W        W39119   6.029   8.827  10.983 -0.4703  0.1489  0.1896
21596W        W39120   4.357   3.351  15.422  0.2475 -0.1287 -0.0239
21597W        W39121  11.789   4.556   3.376 -0.3240  0.0194  0.2537
21598W        W39122   4.764   5.093   0.141  0.2573 -0.0410  0.1762
21599W        W39123  10.062   2.551   2.773  0.0473  0.0470  0.0916
21600W        W39124  10.701   6.638  14.499  0.2442  0.1463  0.0803
21601W        W39125   4.550   0.057   3.496  0.1737  0.1583  0.1791
21602W        W39126   1.736   4.919   0.748 -0.2663 -0.2440 -0.0943
21603W        W39127  17.839  14.881  12.226  0.3526  0.0197  0.1017
21604W        W39128   1.666   9.486   4.598  0.2409  0.2070 -0.0350
21605W        W39129   6.674  11.480   5.755 -0.0583 -0.2583 -0.0402
21606W        W39130  14.558  12.665  12.583 -0.0839  0.3046  0.1679
21607W        W39131   2.045   9.135   2.096 -0.2290  0.2928 -0.0971
21608W        W39132   0.352   9.376   3.888 -0.0418  0.2428 -0.0695
21609W        W39133   0.321   6.718  11.973 -0.1230 -0.4846  0.0659
21610W        W39134   1.279  13.759   2.935  0.2271  0.3877 -0.0498
21611W        W39135   6.476  10.120  14.022 -0.0659  0.4163  0.1342
21612W        W39136  15.948   6.198  14.164 -0.3571 -0.1155 -0.4748
21613W        W39137   4.106  12.277  12.365 -0.2975 -0.1180 -0.2141
21614W        W39138  17.292   3.610  11.129  0.0017 -0.1718  0.3071
21615W        W39139   5.569   7.125  10.655  0.2054 -0.2354 -0.1370
21616W        W39140  15.373  16.638  15.255 -0.0564 -0.0516 -0.1450
21617W        W39141   0.757  14.765  15.029  0.1850 -0.1623  0.2065
21618W        W39142  11.944  11.305   1.218  0.1442 -0.2098 -0.1730
21619W        W39143  11.119  12.696   4.892 -0.2836  0.0772  0.0371
21620W        W39144   6.840   7.770   4.630 -0.2663  0.1533  0.3062
21621W        W39145  11.612   7.822   1.971  0.0898 -0.0969  0.5872
21622W        W39146   2.902   3.618   1.469  0.1505 -0.3201 -0.2411
21623W        W39147   0.735   8.819   2.475 -0.3049  0.1377 -0.1769
21624W        W39148  12.143   8.087  14.827 -0.0658 -0.0901  0.0043
21625W        W39149  15.817  10.931  11.310 -0.1545 -0.0518  0.1121
21626W        W39150   4.466  13.835  11.035  0.2283  0.2990 -0.0707
21627W        W39151  10.620   4.839   1.662  0.3132 -0.2354  0.0711
21628W        W39152   7.130   7.426  15.306 -0.0039 -0.1218  0.0126
21629W        W39153  12.023  17.541   2.855 -0.1197  0.3501  0.0612
21630W        W39154   4.111   2.373  15.270 -0.0735 -0.3669  0.2488
21631W        W39155  12.520   9.447  14.231  0.0103 -0.3459  0.0121
21632W        W39156   7.167  18.009  15.538 -0.1528 -0.0692 -0.0595
21633W        W39157  11.868  10.557  15.591  0.0231  0.1778 -0.3317
21634W        W39158   7.480  17.707   1.059  0.2570  0.3102  0.0776
21635W        W39159   7.517   0.269  14.988  0.0225  0.3842  0.0733
21636W        W39160  12.578  16.274   1.882  0.0461 -0.1332 -0.1168
21637W        W39161   5.519   3.157   1.723 -0.0655  0.3968 -0.2278
21638W        W39162  16.105  12.533  14.593 -0.1231 -0.1546 -0.0377
21639W        W39163   0.085  14.813  10.905  0.0006  0.0384  0.0048
21640W        W39164  17.444   6.389   1.997 -0.3134  0.2512  0.0384
21641W        W39165   6.625   7.778   1.956 -0.1797  0.1236  0.1298
21642W        W39166   2.010  15.385   2.035  0.0150  0.1462 -0.1959
21643W        W39167  16.465   6.151  13.896  0.2190  0.0655  0.0215
21644W        W39168  17.656   6.730  13.978 -0.1968 -0.0926 -0.0187
21645W        W39169  12.684  13.106   2.197 -0.2091 -0.1072 -0.1112
21646W        W39170   6.961  14.309  13.598 -0.1611  0.3695  0.1547
21647W        W39171  12.410  15.593  12.388 -0.1929 -0.0044 -0.0453
21648W        W39172  13.296   9.101  14.243 -0.0398 -0.2823 -0.2360
21649W        W39173   2.306  17.584   3.765 -0.0775 -0.0656  0.0212
21650W        W39174   5.406   9.570  14.723 -0.1458 -0.2879  0.0539
21651W        W39175   1.486   6.170   1.136  0.0867  0.4615 -0.0876
21652W        W39176   6.731  10.317   1.547  0.1511 -0.0201 -0.0978
21653W        W39177   1.041   6.150  15.764  0.2053  0.2414  0.2062
21654W        W39178  16.450   5.021   1.036 -0.0781  0.3044  0.0489
21655W        W39179   5.686  15.314  13.543  0.0206 -0.2240 -0.2200
21656W        W39180  13.461  12.839   2.179  0.1038  0.4305  0.0165
21657W        W39181  11.739  17.395  15.169 -0.0868  0.2412  0.1657
21658W        W39182   2.298  16.850  12.660  0.0785  0.0243  0.0039
21659W        W39183  13.617   0.243   2.953  0.0153 -0.2452 -0.3805
21660W        W39184   2.707   5.872   1.912 -0.1182 -0.0582 -0.2234
21661W        W39185  11.103   8.958   0.174  0.2388 -0.1408 -0.2931
21662W        W39186   0.461   6.260   0.770  0.1537  0.0562 -0.1371
21663W        W39187   5.961  12.206   2.600 -0.2159 -0.0132 -0.2639
21664W        W39188   3.467   2.433  14.389  0.0174  0.3233 -0.0527
21665W        W39189  16.176  16.800  11.331  0.2668 -0.2142  0.3473
21666W        W39190   6.029   0.146  15.660  0.0875 -0.0160 -0.3609
21667W        W39191   1.970   6.317  13.746  0.1173 -0.3982 -0.0082
21668W        W39192  10.483  10.868   1.230  0.0129 -0.1090  0.2760
21669W        W39193   7.323   0.159  15.914  0.3103 -0.0670  0.1063
21670W        W39194   5.260  17.470  15.481 -0.2947  0.2014 -0.1963
21671W        W39195  10.307   9.610   3.161 -0.1029  0.2189  0.1281
21672W        W39196   4.938  10.795  10.880 -0.1446  0.4513 -0.0083
21673W        W39197  11.389   9.718   0.301 -0.0609 -0.0519  0.0988
21674W        W39198  16.591  11.079  14.098  0.1784 -0.3842 -0.0718
21675W        W39199  13.400  16.881   1.220  0.2282  0.1772  0.0183
21676W        W39200   8.778   3.884  15.174 -0.1699 -0.2169  0.1290
21677W        W39201   2.405   3.572   1.574 -0.1239  0.1046 -0.2756
21678W        W39202  14.928   0.499   3.926  0.0466 -0.0074 -0.2368
21679W        W39203   1.028  17.918  14.778 -0.0007  0.0422  0.2269
21680W        W39204  10.981  12.594  12.550  0.2211 -0.2462  0.0016
21681W        W39205   3.606  17.459  15.454  0.4478  0.1858  0.0174
21682W        W39206   7.821  10.755   2.120 -0.1007 -0.1007 -0.0688
21683W        W39207  18.050   2.136   4.077 -0.3240  0.0647  0.1627
21684W        W39208   0.285   9.087   1.445 -0.1024  0.1798  0.1974
21685W        W39209   6.245   7.853  14.136  0.0387  0.1161 -0.0073
21686W        W39210  11.222   7.273   0.226 -0.0380 -0.0938  0.1543
21687W        W39211  16.481   6.356   1.615 -0.0871  0.0961 -0.1915
21688W        W39212  16.125  13.499  14.448 -0.2392  0.0988  0.0378
21689W        W39213  14.027   0.942  12.691 -0.0369  0.2348 -0.1065
21690W        W39214  17.903  12.192  12.358 -0.1426  0.1048  0.0865
21691W        W39215  16.111   1.382  14.066  0.2253 -0.0212  0.1001
21692W        W39216   9.989   8.744  12.410 -0.0739 -0.1470  0.0093
21693W        W39217   8.352   3.864   0.268  0.1968  0.0232 -0.1778
21694W        W39218  15.778  13.480  12.159  0.3325 -0.3091 -0.0175
21695W        W39219   3.785  13.719  15.202  0.0219 -0.1036 -0.2479
21696W        W39220   6.416  13.867   3.530  0.1778 -0.1101  0.2949
21697W        W39221  13.091   6.948   3.317 -0.1707  0.0122 -0.1837
21698W        W39222   3.340   5.629  14.235  0.0825  0.0920 -0.2146
21699W        W39223   0.090   9.704  11.942 -0.0212  0.0542 -0.0395
21700W        W39224   7.623  15.695  14.617  0.0027 -0.2191  0.0775
21701W        W39225  11.794   4.146  14.124  0.1516 -0.2248  0.2709
21702W        W39226  11.004   8.891  13.861 -0.1205 -0.4275 -0.0689
21703W        W39227   2.906  16.885   1.212 -0.0568  0.0922 -0.3197
21704W        W39228   7.654  10.444  11.722 -0.1816 -0.1618 -0.0048
21705W        W39229  18.083  10.922  15.792  0.3045 -0.3996  0.1209
21706W        W39230   7.511   4.946  11.029 -0.1033 -0.1040 -0.1572
21707W        W39231  10.854  17.837  13.999 -0.0052 -0.0771 -0.2337
21708W        W39232  10.629  16.843  12.551 -0.0426  0.2546  0.0845
21709W        W39233  10.887  13.775   2.074  0.0288  0.3317 -0.0357
21710W        W39234  13.673   9.124  11.288 -0.0554  0.1460 -0.1335
21711W        W39235   2.187  11.049  15.525  0.1306 -0.0013 -0.0320
21712W        W39236  13.365   1.602  14.725  0.0552  0.0334  0.1653
21713W        W39237   4.421   4.687  12.663 -0.1318  0.1598  0.0700
21714W        W39238  14.956   3.702   1.935  0.3069  0.3143  0.2217
21715W        W39239   4.892  14.373  11.161  0.0308  0.0111 -0.1422
21716W        W39240   3.965  13.458  14.526 -0.1226  0.0588  0.3525
21717W        W39241   9.648  13.917  12.546 -0.0538  0.3924  0.0509
21718W        W39242  14.909   5.197   3.310 -0.0130 -0.0567 -0.0835
21719W        W39243   1.373  16.341   2.547  0.0755 -0.0438 -0.2206
21720W        W39244  12.345   8.335   0.536 -0.1679 -0.1324 -0.1088
21721W        W39245  12.678   1.576  11.971  0.0747  0.0704  0.0872
21722W        W39246   4.013   7.401   1.299 -0.1517  0.6531  0.0883
21723W        W39247  16.051   8.684  12.481  0.1598 -0.1384  0.0402
21724W        W39248   5.479   7.714  13.540 -0.0221  0.0474 -0.0187
21725W        W39249  11.656  11.927   3.502  0.2919 -0.4188 -0.2957
21726W        W39250  11.564   9.093   4.455  0.0455  0.1489 -0.1757
21727W        W39251  15.707  16.662   4.957  0.1623  0.0773  0.0279
21728W        W39252   3.348   1.080   1.892  0.1009  0.0002  0.1733
21729W        W39253  15.940   8.053  12.753 -0.0297 -0.3944 -0.1028
21730W        W39254  14.957   6.529   5.441 -0.3336 -0.1098  0.1388
21731W        W39255   0.876  14.325   4.752  0.0272  0.0099 -0.2218
21732W        W39256  16.157  16.290   4.023  0.1732  0.0197 -0.4214
21733W        W39257   8.103  15.878  14.552 -0.1578  0.0860  0.2578
21734W        W39258   9.578   7.001  10.004  0.0944 -0.0273  0.0123
21735W        W39259   5.082   5.860  11.611  0.0135 -0.1764 -0.0170
21736W        W39260   8.394   9.332   1.412  0.1090 -0.1189  0.0360
21737W        W39261   1.693  15.059  14.781  0.1143 -0.0911  0.2197
21738W        W39262  12.237   8.243   4.719  0.2337  0.0331  0.2073
21739W        W39263   6.023   0.118   0.433 -0.2186 -0.1407 -0.0921
21740W        W39264   8.678   0.905  11.173  0.0915 -0.1955 -0.0182
21741W        W39265   7.966  14.445  14.633 -0.0014 -0.0877 -0.0209
21742W        W39266   0.458  13.920   2.146 -0.1733  0.2173 -0.1403
21743W        W39267   6.616   6.871  13.549 -0.2278  0.1609  0.1539
21744W        W39268   5.514  14.906   4.206  0.0186  0.1410 -0.0798
21745W        W39269   2.765  10.017   3.558 -0.0256 -0.0631  0.4376
21746W        W39270   8.434  13.232  12.198 -0.0165  0.2465 -0.1814
21747W        W39271   4.548  12.608   3.602  0.2162  0.2256  0.0707
21748W        W39272  13.319   1.997  15.097 -0.1401  0.1918  0.3231
21749W        W39273  14.383  14.695   3.781  0.0908  0.2145  0.1519
21750W        W39274   4.739  16.800  12.697  0.1208  0.1294 -0.0286
21751W        W39275   4.666   0.811  14.787 -0.0564  0.0377 -0.0604
21752W        W39276  13.188  14.575   1.398  0.0424 -0.0758 -0.4103
21753W        W39277   2.104  15.801   2.450 -0.0458 -0.0403 -0.2384
21754W        W39278   5.427   7.583   0.616  0.2164  0.3116 -0.3176
21755W        W39279   2.619  12.704  12.146  0.0052  0.0442 -0.5416
21756W        W39280   2.317   7.390  14.357  0.3734 -0.1661 -0.1041
21757W        W39281  15.005  11.479   4.751 -0.0364 -0.0418 -0.1339
21758W        W39282  11.271   5.175  15.424  0.1973  0.3126 -0.0162
21759W        W39283   9.791   9.231  10.626 -0.1016 -0.3566 -0.1831
21760W        W39284  11.950  15.299  10.770 -0.3503  0.2051  0.1378
21761W        W39285  15.868   5.265  15.207  0.1037  0.1149 -0.0198
21762W        W39286   4.759   6.321   2.639  0.0511 -0.0686  0.2378
21763W        W39287   5.066   6.287  12.552 -0.1065 -0.0298 -0.1140
21764W        W39288   3.494   4.302  13.501 -0.2405  0.0331 -0.3008
21765W        W39289   8.904   9.629  14.292 -0.0756  0.2118  0.0316
21766W        W39290   6.655   6.810  14.920 -0.1419  0.0122  0.1440
21767W        W39291  15.028  10.100   2.864 -0.1124  0.0011 -0.0508
21768W        W39292   1.199   1.312  11.557  0.1170  0.1896  0.4101
21769W        W39293   6.248  14.946  14.834 -0.1958 -0.0529 -0.3320
21770W        W39294   9.654  15.852  12.442 -0.0908 -0.1262  0.0181
21771W        W39295   1.564   7.454   5.544  0.0580  0.2325  0.0957
21772W        W39296  16.413  13.576   2.182 -0.1931  0.3564 -0.1279
21773W        W39297   6.744  13.759   1.491 -0.0160  0.2308 -0.1169
21774W        W39298  11.564  13.171  13.402  0.0696  0.2084  0.1536
21775W        W39299   2.303   4.132  15.443  0.0389  0.1517 -0.0824
21776W        W39300   4.470  13.549   3.928  0.1395 -0.3021 -0.0503
21777W        W39301  12.551   7.702   1.230  0.0825  0.2179  0.0262
21778W        W39302   8.229   2.919  12.299  0.0272  0.0291 -0.1583
21779W        W39303  13.734  16.999  11.578  0.1314 -0.1386  0.0234
21780W        W39304   6.001   3.606  10.283  0.1717 -0.2538 -0.0605
21781W        W39305  14.468  11.408  12.015 -0.0185  0.1195  0.1266
21782W        W39306   1.452   6.975   0.063  0.1428  0.0523 -0.4232
21783W        W39307   4.343  11.286   3.418 -0.2633  0.2126  0.0904
21784W        W39308   4.000   3.666   0.641 -0.0572  0.0166 -0.1915
21785W        W39309  15.467  16.891  13.296 -0.0051  0.1655  0.2352
21786W        W39310  10.338   5.008  15.224 -0.0937 -0.1277 -0.1366
21787W        W39311  16.959  14.559  14.922 -0.2657  0.0448  0.0783
21788W        W39312  17.317   9.097  11.917  0.0188  0.0293 -0.0677
21789W        W39313  16.007   1.702  11.968 -0.0918 -0.0228 -0.0469
21790W        W39314  14.734  15.692   1.720 -0.0291  0.0242 -0.1216
21791W        W39315  11.220   7.789  11.747  0.0390 -0.1070 -0.2364
21792W        W39316   2.342  12.518  14.293 -0.0255 -0.1710  0.0709
21793W        W39317  15.686   1.792  12.810 -0.1143  0.0105  0.1376
21794W        W39318   8.166   7.450   2.804  0.0810 -0.0172  0.0038
21795W        W39319   1.578   6.329   3.159 -0.1915 -0.0797 -0.0926
21796W        W39320  15.494   9.284   4.633  0.0563  0.2378 -0.0885
21797W        W39321   4.177   7.653  10.769 -0.2034 -0.1731  0.0354
21798W        W39322   1.456  16.764   3.780  0.1220 -0.0528 -0.3140
21799W        W39323  16.923  15.874   2.961 -0.2114  0.0525 -0.1123
21800W        W39324   7.293   5.542   1.048 -0.0772  0.1960 -0.1110
21801W        W39325   6.340  17.746   2.461 -0.1412 -0.0900 -0.0620
21802W        W39326  10.810   7.164   0.533 -0.0006  0.0827 -0.1901
21803W        W39327   4.011   9.988  15.406  0.4236 -0.0990 -0.1065
21804W        W39328  16.114  16.138  15.065  0.0285  0.0225  0.1432
21805W        W39329   4.497  10.652  14.343  0.0432 -0.2572 -0.4715
21806W        W39330   8.116   2.841   3.045 -0.2004  0.0108 -0.0817
21807W        W39331   0.560   8.169   1.242  0.1685  0.1648 -0.0098
21808W        W39332   4.693   0.245  14.829  0.1024  0.0037 -0.0422
21809W        W39333   0.685   7.230   3.218  0.0092  0.0103  0.1854
21810W        W39334   2.304   7.992  12.872  0.3273 -0.1240 -0.4921
21811W        W39335  15.363  14.186   2.437 -0.2558 -0.1509 -0.1273
21812W        W39336  15.690  11.274  11.748  0.1182  0.1291  0.1326
21813W        W39337   9.048   8.572   0.409  0.0874 -0.2973  0.3121
21814W        W39338  17.282  13.668  11.394  0.2897 -0.1360  0.0000
21815W        W39339   3.393  12.983  12.686  0.1122 -0.0183 -0.0012
21816W        W39340  10.634   0.451   3.151  0.0557 -0.0537 -0.1893
21817W        W39341  16.215  12.746  15.019  0.0684 -0.2802 -0.2903
21818W        W39342  13.089  16.658   0.150  0.2730 -0.2029 -0.2559
21819W        W39343  13.090  17.676  15.804 -0.0113  0.0246 -0.2130
21820W        W39344   2.687   5.333   1.353 -0.2828  0.1850 -0.1852
21821W        W39345  14.408  13.998   4.862  0.1606 -0.1649 -0.1517
21822W        W39346  10.556  12.818  13.754 -0.1338 -0.0033  0.2469
21823W        W39347   3.395   1.252  12.383 -0.0835 -0.0552  0.3155
21824W        W39348   7.921   5.661   4.550  0.4074  0.1371  0.0304
21825W        W39349   3.089   9.803  15.035 -0.2250  0.0010 -0.0988
21826W        W39350  12.755  10.902  15.013  0.1742 -0.1380  0.3924
21827W        W39351   2.354   0.503  12.373 -0.0341  0.2345  0.2124
21828W        W39352  16.124   5.245   1.898  0.0214  0.0790  0.1227
21829W        W39353  11.253  17.851  11.823 -0.0717 -0.0725  0.2766
21830W        W39354   6.078  10.132   3.239  0.0483  0.2649  0.0682
21831W        W39355  14.791   1.265   0.350 -0.2155  0.0155  0.0305
21832W        W39356   5.491  12.534  15.753  0.0144 -0.0749  0.2292
21833W        W39357  15.026  16.410  13.476  0.1301 -0.0249 -0.1730
21834W        W39358  10.365  17.239  14.441 -0.0512 -0.0105 -0.2917
21835W        W39359   5.483  10.298   1.313  0.0297 -0.3533  0.0332
21836W        W39360  13.431  13.223   4.063 -0.1555 -0.1210  0.0590
21837W        W39361   7.874  11.577  14.287  0.0239 -0.0937 -0.0318
21838W        W39362   6.458  15.138  13.354  0.4382  0.0533  0.0621
21839W        W39363  17.202  13.653  12.142 -0.0691  0.3458 -0.1001
21840W        W39364   9.163  11.440  12.708 -0.1599  0.1458 -0.3251
21841W        W39365   4.595   0.773   1.475 -0.1097 -0.0005 -0.1444
21842W        W39366   7.233  10.360   1.447 -0.1687  0.2812  0.0103
21843W        W39367   2.909  18.050   2.617 -0.1835 -0.0443  0.0351
21844W        W39368   3.654  14.891  13.919 -0.1733  0.2901  0.4324
21845W        W39369   9.559  16.981  15.391  0.2873  0.1137  0.0156
21846W        W39370   2.595  17.108   3.694  0.0179 -0.1055 -0.0597
21847W        W39371   7.377  14.897  14.202  0.2050  0.1934 -0.1041
21848W        W39372   2.611  14.466  12.493  0.1319  0.1896 -0.2384
21849W        W39373  12.248   8.919  14.017 -0.0663 -0.3913  0.1735
21850W        W39374   6.019  15.669   3.649 -0.0531 -0.0401 -0.2074
21851W        W39375   9.385   9.551   3.105  0.0610 -0.4110 -0.1791
21852W        W39376  14.075   6.526   5.116 -0.1939  0.0803  0.0849
21853W        W39377   6.815   4.562  15.719  0.1826 -0.0591 -0.2916
21854W        W39378  15.412   4.285   1.282  0.0972 -0.2986  0.1441
21855W        W39379   6.396   8.121  13.709  0.3633  0.1413  0.2065
21856W        W39380   3.736   0.384  15.215 -0.2787  0.1043  0.0738
21857W        W39381  15.029   1.810   0.230  0.3308  0.2969 -0.1898
21858W        W39382   1.051  17.193   4.365  0.2149 -0.1923 -0.0922
21859W        W39383   5.425  12.872  12.361  0.2872 -0.0408 -0.0060
21860W        W39384   8.103  17.908   1.911  0.3027 -0.2037 -0.2575
21861W        W39385   2.356   9.516  12.293  0.1306 -0.1045 -0.2341
21862W        W39386   9.675  12.610  13.281  0.1271 -0.1083 -0.3495
21863W        W39387   5.493   1.842  14.816  0.2035  0.0368 -0.1711
21864W        W39388  15.378   5.883   3.528  0.0541  0.0441 -0.1549
21865W        W39389   9.090   7.926   4.826 -0.0452  0.1446 -0.0135
21866W        W39390   2.588   4.777   1.405  0.0381 -0.1125  0.1022
21867W        W39391   2.628  12.274  12.443  0.0454 -0.0374  0.1892
21868W        W39392  13.414  14.530  12.677 -0.0027 -0.1589  0.1595
21869W        W39393  16.024  15.720   2.048 -0.0035  0.0548  0.2185
21870W        W39394  15.222   8.622   1.410  0.0181 -0.3781 -0.1160
21871W        W39395  14.860  10.184  13.813 -0.1524 -0.1290  0.0888
21872W        W39396  12.267  12.579   3.626  0.2244  0.1993 -0.2087
21873W        W39397   9.331  15.379  13.188 -0.2653 -0.1148  0.4510
21874W        W39398   3.178   3.454  11.163 -0.5444  0.0303 -0.2266
21875W        W39399   5.634  11.111  10.659 -0.1755 -0.2207 -0.1444
21876W        W39400   1.538   5.127   1.143  0.1615 -0.0443  0.0796
21877W        W39401  10.934   9.823   0.635 -0.1536 -0.0085 -0.2873
21878W        W39402  13.163   2.277   1.000  0.1438  0.0542 -0.0944
21879W        W39403  15.598   0.548   2.166 -0.0752 -0.1773 -0.1060
21880W        W39404  15.289  16.888   2.906  0.2854  0.2938  0.1194
21881W        W39405   2.502   9.990  11.930 -0.1827  0.1895  0.0911
21882W        W39406  15.282  15.302   2.606 -0.2571  0.0089 -0.0306
21883W        W39407  14.560  15.654   3.120 -0.1348  0.1845  0.1043
21884W        W39408  16.770  16.230  12.839  0.0182  0.1296 -0.2673
21885W        W39409   4.620  18.012  13.161 -0.1106 -0.0787  0.2223
21886W        W39410   9.731  13.237   0.536  0.3075  0.0935  0.0109
21887W        W39411  16.624  16.997  12.684  0.0655  0.0109 -0.2404
21888W        W39412  10.077   4.601   1.485 -0.1547 -0.2159  0.0970
21889W        W39413   5.903   1.551   3.919 -0.0502 -0.0104  0.1927
21890W        W39414   0.623   0.979   5.502 -0.1723  0.3052  0.1836
21891W        W39415  16.560   8.814  13.726 -0.0158 -0.0892 -0.3163
21892W        W39416  11.239   9.993  14.962 -0.2933 -0.0661  0.0128
21893W        W39417  17.604   4.927  14.184 -0.0558  0.1149  0.0192
21894W        W39418   9.442   1.306  14.467 -0.0653  0.3432 -0.1432
21895W        W39419  16.911   5.136  13.063 -0.0273  0.0288  0.1446
21896W        W39420   8.208  12.758  13.939 -0.0601  0.1109 -0.1306
21897W        W39421   4.018  18.173   3.571 -0.0636  0.0908  0.1590
21898W        W39422  12.035  16.033  12.264  0.0337  0.1079 -0.2048
21899W        W39423  11.484   5.557   2.565  0.1908  0.0185 -0.2127
21900W        W39424   6.489  13.095   0.983 -0.0616  0.6108  0.1002
21901W        W39425   2.577   1.387  12.587 -0.1694  0.0643 -0.2198
21902W        W39426   9.993   0.726   4.470  0.0994 -0.4065 -0.4161
21903W        W39427   1.987   2.097  14.567  0.0720 -0.2288  0.1279
21904W        W39428   5.414   8.422  14.807  0.0763  0.0618  0.0593
21905W        W39429   0.932   4.703   2.469 -0.0598  0.1791 -0.1058
21906W        W39430  16.473   2.245   2.682 -0.2803 -0.1276 -0.3373
21907W        W39431  11.443  10.622   3.127  0.2942  0.1113 -0.1402
21908W        W39432  17.828  13.865  11.497  0.0125 -0.1046  0.0172
21909W        W39433  10.681   5.217  14.338 -0.0480 -0.3026 -0.0959
21910W        W39434   1.128   9.135  12.779  0.0550 -0.1162 -0.1015
21911W        W39435  16.139  15.523  14.401 -0.0745  0.0126 -0.0313
21912W        W39436  17.295   2.489   0.030  0.5696 -0.1245 -0.1280
21913W        W39437   2.165   4.047   4.148 -0.0936  0.0155  0.0777
21914W        W39438   8.410  14.284  14.939 -0.0418  0.3688 -0.2051
21915W        W39439  12.429  16.065   3.348  0.1551  0.0120  0.0236
21916W        W39440  13.147  12.238  10.810  0.0846 -0.2109  0.1859
21917W        W39441   7.228  13.366  15.706 -0.1985  0.1749  0.1108
21918W        W39442   8.227   5.494   3.863  0.0280 -0.1843  0.1165
21919W        W39443  11.771  12.476  11.156 -0.0108 -0.0516  0.1826
21920W        W39444   1.257   5.226  14.397 -0.0759  0.1773  0.3240
21921W        W39445  10.930  12.527   3.303  0.2332  0.3640  0.3362
21922W        W39446  10.796   7.997  13.241 -0.2361  0.0571  0.0027
21923W        W39447   7.734   9.694   2.850 -0.1185 -0.0517 -0.1766
21924W        W39448  13.231   9.180   2.010 -0.0061 -0.0387  0.0831
21925W        W39449  14.567   8.920   1.471  0.1248 -0.0051  0.0686
21926W        W39450   6.613  15.460  12.091  0.0303 -0.0987  0.2190
21927W        W39451  11.798   6.050  12.311  0.0442 -0.1096 -0.0757
21928W        W39452  12.633  12.916  15.940  0.1033  0.3069  0.3212
21929W        W39453   1.302   7.121  14.922  0.1031  0.0836 -0.3646
21930W        W39454  12.329   2.467   4.068 -0.1784 -0.0728 -0.0670
21931W        W39455  15.744   4.788  13.569  0.2379 -0.3299  0.1456
21932W        W39456  17.307  10.373  14.545 -0.0573 -0.3088  0.0535
21933W        W39457   9.730  14.222  13.004  0.1928 -0.0856  0.1001
21934W        W39458  12.612   7.823   4.018 -0.0673 -0.3150  0.1551
21935W        W39459  12.652   2.351  11.078 -0.1307 -0.6071  0.2252
21936W        W39460  12.678   6.068  14.194 -0.0384  0.1056  0.0697
21937W        W39461   5.561   2.584  15.377 -0.1351 -0.1749  0.1067
21938W        W39462  10.573  13.526   3.549 -0.0758  0.1769 -0.0206
21939W        W39463   9.238  11.827   2.947  0.1118 -0.1848 -0.1684
21940W        W39464   1.280   9.989   3.675 -0.0329  0.1264  0.1768
21941W        W39465  17.566   7.460  14.850 -0.2790  0.1770  0.1739
21942W        W39466  15.217   2.301  11.978 -0.0453  0.1207 -0.1544
21943W        W39467  14.387   5.687   4.573 -0.1745  0.0523  0.2674
21944W        W39468  14.586   1.928  14.522 -0.0334  0.2136  0.1733
21945W        W39469  17.108  13.981  12.824  0.1625 -0.0924 -0.1265
21946W        W39470  13.618   0.806   3.348 -0.3015 -0.1324  0.1207
21947W        W39471  14.343  12.692  13.597  0.2626 -0.0811  0.2290
21948W        W39472   8.172  11.936  14.556 -0.0463 -0.0079  0.0321
21949W        W39473   7.425  16.888   2.201  0.0551  0.0553 -0.1535
21950W        W39474  11.059   9.421   2.689 -0.1278  0.0320 -0.4002
21951W        W39475  11.983  11.052  15.614  0.0702 -0.0960  0.1692
21952W        W39476   1.721  13.652   1.155  0.1142 -0.1990 -0.3316
21953W        W39477   6.796  15.199   2.323  0.2035  0.0954 -0.0825
21954W        W39478  15.799   5.579   1.802 -0.3111  0.1172  0.0445
21955W        W39479   3.794   7.092  15.179  0.0688  0.0286  0.1839
21956W        W39480   6.058   5.305  15.831 -0.1313  0.0606  0.2856
21957W        W39481  12.738   4.284  11.295  0.0974  0.1568  0.2321
21958W        W39482   6.444   6.445   3.653 -0.0098 -0.0058 -0.0058
21959W        W39483  15.319   0.185  11.390 -0.1769 -0.1464 -0.2320
21960W        W39484  18.084   9.659   4.118  0.1969 -0.2510  0.0789
21961W        W39485   1.965   2.882   2.438  0.1296  0.3817 -0.1432
21962W        W39486   8.621   9.208   2.673  0.1247  0.2390 -0.4088
21963W        W39487  13.768   5.812  13.280  0.1361  0.2952  0.3805
21964W        W39488   1.802  13.277  11.666 -0.1499  0.0045 -0.3273
21965W        W39489   1.254  15.406   1.908  0.2114 -0.0942 -0.2909
21966W        W39490   9.977   2.800  14.315  0.0296  0.3967  0.1474
21967W        W39491   4.606  13.487  13.624 -0.1665 -0.1833 -0.0824
21968W        W39492  16.394   7.941   6.379 -0.3016 -0.2300  0.4299
21969W        W39493  13.206   2.778  15.642 -0.0489  0.1108 -0.2003
21970W        W39494   6.786   6.372  12.980 -0.3171 -0.0272  0.1709
21971W        W39495  13.993   3.761  14.805 -0.3802  0.1230 -0.0199
21972W        W39496  12.114  17.132   3.469 -0.1444 -0.0265 -0.1901
21973W        W39497   3.478   8.007  11.876 -0.1752  0.0983  0.2210
21974W        W39498   5.426   1.255   2.485 -0.2577  0.2778 -0.1999
21975W        W39499  17.298   7.173  13.241  0.2276  0.3284 -0.2252
21976W        W39500   2.483  11.468   3.824 -0.3396  0.4757 -0.3041
21977W        W39501   1.509   3.665  15.505 -0.1815  0.0884 -0.1973
21978W        W39502   4.741  17.278  12.432 -0.0834 -0.1360 -0.2243
21979W        W39503   3.769  10.887  15.606  0.1914 -0.4433  0.0151
21980W        W39504   7.753   6.130   4.408  0.1712  0.0991  0.0222
21981W        W39505   0.765   9.171  13.951  0.3794 -0.2693 -0.0627
21982W        W39506  13.758   3.698  12.369  0.1135 -0.1252 -0.0962
21983W        W39507   8.823  10.583   4.942  0.0924  0.1883 -0.0499
21984W        W39508  17.935   1.719   1.995  0.0866 -0.0838 -0.2942
21985W        W39509   1.619  13.062  12.220  0.1296 -0.0457  0.2043
21986W        W39510  15.386   0.148   3.187 -0.1529  0.0680 -0.3295
21987W        W39511  10.373   5.587  14.437  0.0603 -0.4412  0.2127
21988W        W39512   8.998   5.192   0.005 -0.2493  0.1377  0.3522
21989W        W39513  12.187   8.974  11.526 -0.0468 -0.0722 -0.0714
21990W        W39514   8.541  14.871  15.111  0.2446 -0.0307  0.0506
21991W        W39515   4.304  14.814  10.759 -0.0483  0.3016 -0.0485
21992W        W39516  14.693  10.246   0.377  0.2090 -0.0855  0.0294
21993W        W39517  12.654   0.732   1.064  0.0128 -0.2545 -0.1958
21994W        W39518  15.718   0.837  12.009 -0.1550 -0.3281  0.2618
21995W        W39519   0.542   3.366  12.651 -0.0299  0.1256 -0.2638
21996W        W39520   9.695   8.350  15.462 -0.1165  0.1321 -0.0892
21997W        W39521   7.280   6.432  13.904  0.2328 -0.1404 -0.1365
21998W        W39522   9.140  11.634  13.274  0.4009  0.3629 -0.5367
21999W        W39523  10.449  16.377   2.330 -0.0525 -0.1900  0.0482
22000W        W39524   0.662  10.740  12.725  0.1917 -0.2865  0.1103
22001W        W39525   5.749   3.200  13.217 -0.2270 -0.0859 -0.0557
22002W        W39526  14.966   9.340   4.536 -0.0781  0.2256 -0.2368
22003W        W39527  11.919  15.996   4.823  0.1065 -0.0589 -0.0907
22004W        W39528  13.031  14.134   4.272 -0.1169  0.0477 -0.0094
22005W        W39529   3.728  11.603  14.946 -0.0998 -0.0164 -0.0611
22006W        W39530  13.709   1.918   1.265  0.0125  0.0494  0.0158
22007W        W39531  12.581   6.826  12.594  0.4654  0.0673  0.0332
22008W        W39532  15.026   5.158  11.622 -0.0912  0.0019  0.0925
22009W        W39533  12.333   6.437   3.867 -0.0117  0.0559 -0.0610
22010W        W39534   0.069   7.648   3.010  0.1513 -0.2054 -0.3830
22011W        W39535  11.788  13.816   5.071  0.1255  0.0337 -0.0503
22012W        W39536  11.139   3.092  16.034 -0.1478 -0.0067 -0.2371
22013W        W39537   0.024  16.909  14.759 -0.1313 -0.0573  0.0180
22014W        W39538  12.434   5.354  13.801 -0.4071  0.0086  0.2651
22015W        W39539  15.321  13.723  15.242  0.0648  0.1209 -0.0151
22016W        W39540  16.874   1.740  14.761 -0.1293  0.1886 -0.0337
22017W        W39541   9.327  15.109   2.974 -0.3326  0.1991  0.1490
22018W        W39542   0.936   3.344   1.019 -0.1381  0.1646  0.4159
22019W        W39543  17.989  16.920  13.152  0.2139 -0.0813  0.0509
22020W        W39544  16.312  11.656  11.724  0.0115  0.0471  0.0266
22021W        W39545   2.089   0.038   0.631 -0.3230  0.3225  0.1373
22022W        W39546   3.838  14.218   2.942 -0.1488  0.1729 -0.2396
22023W        W39547  18.031  17.910  10.571 -0.3535  0.4813 -0.1571
22024W        W39548   7.090   9.178   3.185 -0.1529  0.4883  0.1260
22025W        W39549  16.387   2.559   3.680 -0.1233  0.0281 -0.1422
22026W        W39550   8.399  15.850   3.916  0.0323  0.1450  0.0849
22027W        W39551   2.908  13.070  13.891 -0.0558 -0.1093 -0.0704
22028W        W39552  13.852  10.274  11.977  0.1517 -0.3630 -0.0816
22029W        W39553  17.339  13.931   1.931 -0.1214 -0.1355  0.2837
22030W        W39554  10.024   7.203  13.333 -0.1527  0.0965  0.0944
22031W        W39555   4.724   4.605   3.144 -0.1678 -0.0856  0.0779
22032W        W39556  16.746  17.160  15.909  0.4678 -0.2316 -0.0270
22033W        W39557  12.864   5.712  13.857 -0.0507 -0.0663  0.1107
22034W        W39558  17.312   6.385   4.134 -0.1909 -0.4587  0.0966
22035W        W39559  13.489  13.943   0.561  0.1549 -0.0690  0.0643
22036W        W39560  11.562  17.889   3.618  0.0360 -0.1244  0.1127
22037W        W39561   3.920   5.895   1.073 -0.1729 -0.0794 -0.2193
22038W        W39562  11.547  13.980   2.575 -0.2514  0.0606  0.3455
22039W        W39563   5.959  12.353  14.142  0.0950  0.3588  0.0168
22040W        W39564   9.640   6.281   2.955 -0.3535 -0.1095 -0.1355
22041W        W39565  15.082  11.510  14.685 -0.0773  0.0429 -0.1202
22042W        W39566   7.533   1.839   0.248  0.1244 -0.3539 -0.0367
22043W        W39567   3.450   2.679   5.535  0.0731  0.0511  0.2173
22044W        W39568  14.760  15.001  12.640  0.2472  0.1653  0.0816
22045W        W39569   5.894  11.180   3.276 -0.4105 -0.1510  0.5679
22046W        W39570  15.507  10.734   5.101  0.0406  0.1490  0.1630
22047W        W39571  16.621  10.652  14.815  0.3342  0.0768  0.1869
22048W        W39572   4.353   0.943   5.223  0.1278  0.0317  0.2729
22049W        W39573  14.472   7.925   1.906 -0.0515 -0.2339 -0.1183
22050W        W39574  13.403  11.145   0.389 -0.1924 -0.1788 -0.1302
22051W        W39575  14.495   3.008   0.676 -0.0078  0.1540 -0.0729
22052W        W39576  13.283  10.336  11.955 -0.0432 -0.0144 -0.0112
22053W        W39577   9.076  12.887   4.680  0.0643  0.2714 -0.1359
22054W        W39578  11.833  14.835   3.183  0.1871  0.0758 -0.0671
22055W        W39579   7.278   5.564  15.297  0.1526 -0.2079 -0.1279
22056W        W39580  17.308  13.403   2.035 -0.3592  0.3748 -0.0201
22057W        W39581  16.001   5.536   4.003 -0.2615 -0.2089 -0.1520
22058W        W39582   2.926  15.966  15.918  0.1353  0.0436  0.4774
22059W        W39583  14.813  11.889   4.569  0.0128  0.2798 -0.1397
22060W        W39584   9.803  14.184   5.094 -0.1143 -0.2185 -0.0114
22061W        W39585  15.216   5.557  15.981  0.0624  0.0001  0.0100
22062W        W39586   3.725   4.238  11.582 -0.0394  0.1781  0.3263
22063W        W39587  12.645   1.888  12.405 -0.1490 -0.0405  0.2201
22064W        W39588   8.612   2.843  14.397 -0.0725  0.0199 -0.0523
22065W        W39589  17.731  13.985  15.047  0.5331 -0.1748 -0.0010
22066W        W39590   0.814  10.898   3.915  0.1847  0.0131  0.0903
22067W        W39591  14.682  16.131   3.977  0.0653 -0.0848  0.0552
22068W        W39592   0.857  15.328  12.020 -0.4320 -0.1611 -0.1093
22069W        W39593   7.603   6.721  14.091  0.0770  0.2353  0.1818
22070W        W39594   2.000  11.487  13.382  0.1749  0.2938 -0.0119
22071W        W39595  15.614   3.541   3.295 -0.1469 -0.0702 -0.3468
22072W        W39596  17.909   8.391   2.369  0.0513 -0.2303 -0.1111
22073W        W39597  17.368   2.950  14.901  0.0866  0.2408 -0.2405
22074W        W39598   6.840  13.237  14.112  0.0912  0.1553  0.2251
22075W        W39599   2.589  17.965  12.995  0.0596 -0.1334 -0.0279
22076W        W39600  17.726  15.592  13.535 -0.2060 -0.0147 -0.1286
22077W        W39601   5.744   7.112   2.815  0.1300 -0.1474 -0.4679
22078W        W39602   1.497  13.731  11.401 -0.2793  0.4919  0.1388
22079W        W39603   9.693  15.935   1.324  0.2317  0.3844  0.1426
22080W        W39604  13.810   1.621   2.756 -0.1129  0.0446 -0.1168
22081W        W39605  15.647  10.857  15.236 -0.1826 -0.1714 -0.0521
22082W        W39606   0.136  14.031  15.849 -0.3460 -0.1224 -0.1599
22083W        W39607   2.750   3.090   0.281  0.0668 -0.0265 -0.0108
22084W        W39608  11.767   2.254  14.037  0.2577  0.1146  0.0551
22085W        W39609   5.731  12.469   1.952  0.1259  0.1765  0.1227
22086W        W39610  12.824  13.760  12.917 -0.0961  0.1153  0.2925
22087W        W39611  11.040   8.521  15.987 -0.1709 -0.1467  0.0375
22088W        W39612   6.942   5.048  12.417  0.2227  0.2124 -0.1042
22089W        W39613   2.587  11.280   4.709 -0.0299 -0.1236  0.1361
22090W        W39614  17.471  10.471   2.541  0.0798  0.2060 -0.1207
22091W        W39615  11.576   3.225  13.849 -0.2035  0.0017 -0.1433
22092W        W39616  13.385   2.425  10.484 -0.0718 -0.0642  0.1981
22093W        W39617  16.716  17.923  12.468 -0.3404  0.2180  0.0805
22094W        W39618   8.998  14.291   4.254  0.0551  0.0176 -0.0186
22095W        W39619  11.722   0.721  16.038  0.1161 -0.2679  0.1613
22096W        W39620   1.384   0.215   3.577 -0.0356  0.1705  0.0249
22097W        W39621   4.529  16.076  11.596  0.1200 -0.0489  0.1550
22098W        W39622  16.106   6.206   1.205  0.2383  0.3317  0.0392
22099W        W39623   4.959   3.257  13.643  0.2670  0.0749 -0.1808
22100W        W39624  10.159   1.088   0.734 -0.0289  0.0127 -0.0954
22101W        W39625  16.333  17.230   0.990 -0.2743  0.1670 -0.0037
22102W        W39626   5.756  18.003   3.128 -0.1326 -0.3320 -0.3046
22103W        W39627  11.213  14.914  15.458  0.3212  0.0073  0.1013
22104W        W39628  17.003   3.218  12.180 -0.2044  0.0116 -0.0671
22105W        W39629   7.733  16.894   1.697  0.1306  0.0879  0.1259
22106W        W39630   5.710   8.795  11.843  0.2102  0.0587  0.1759
22107W        W39631  17.090   8.678  13.777  0.4030  0.2596 -0.0550
22108W        W39632  11.599   1.465   0.947  0.1302  0.1100 -0.1057
22109W        W39633  11.910  10.365   0.918  0.1292  0.0195  0.0280
22110W        W39634  16.323   0.356  14.061 -0.3885  0.2584 -0.1360
22111W        W39635   7.487  14.643  14.677 -0.0957 -0.1133  0.1597
22112W        W39636   9.523   2.398  12.472 -0.1703  0.1580 -0.0778
22113W        W39637  15.903   2.586   3.855 -0.1502  0.3256 -0.1097
22114W        W39638  15.445   8.910   1.837 -0.0999 -0.2548  0.0348
22115W        W39639  13.699  17.191  11.147 -0.2612 -0.0467 -0.1264
22116W        W39640   8.470  15.145  13.419 -0.0486 -0.1706 -0.2834
22117W        W39641   0.733   4.304  12.687  0.4601 -0.0929 -0.3227
22118W        W39642  13.480  15.991  15.714  0.3077  0.5070  0.3460
22119W        W39643   7.171   1.009  10.904 -0.1654  0.1433  0.1243
22120W        W39644  17.732   6.003   4.217 -0.1615  0.0100  0.1744
22121W        W39645   5.830  14.426  14.216 -0.1572 -0.5575 -0.5358
22122W        W39646   4.765   0.499  12.495  0.2227  0.0189 -0.0164
22123W        W39647   1.877   5.501   1.884  0.0201 -0.1212 -0.1657
22124W        W39648   7.878  15.354  11.478 -0.5110  0.3013 -0.1811
22125W        W39649  15.719   8.579   1.207 -0.1450  0.4208  0.2162
22126W        W39650   0.600   3.240   2.564 -0.2400 -0.3527 -0.0854
22127W        W39651   5.415  17.891  15.132  0.1195  0.3282  0.0487
22128W        W39652   3.615  12.232   2.326 -0.0871  0.0749  0.1128
22129W        W39653   3.606   9.894   5.103 -0.0546 -0.3515  0.0869
22130W        W39654  16.919  14.089  12.310 -0.3467  0.2102 -0.1960
22131W        W39655   4.321   2.090   4.509 -0.1502  0.1293  0.0172
22132W        W39656  16.841  11.709   4.531 -0.1908  0.1492  0.1756
22133W        W39657  12.563  15.696  13.961 -0.0745 -0.0563  0.0838
22134W        W39658   8.845  17.233  11.207 -0.0986  0.0071  0.0714
22135W        W39659   2.178   1.060   3.560  0.2720  0.2959 -0.2546
22136W        W39660  12.463   5.669  11.906 -0.1191 -0.2675  0.1928
22137W        W39661   2.876  10.413  11.541 -0.0874  0.0798 -0.1199
22138W        W39662  17.930   1.888   5.123  0.0834  0.0281 -0.0482
22139W        W39663  13.408   7.780   0.765 -0.2218  0.2021 -0.2645
22140W        W39664  10.215   1.284   5.100 -0.0050 -0.0412 -0.1223
22141W        W39665   3.370  13.350  13.633 -0.0687  0.0322 -0.0989
22142W        W39666  10.356   3.144  12.179  0.2833  0.0572 -0.2655
22143W        W39667   1.026   3.282   2.836  0.0398 -0.1414  0.2681
22144W        W39668  10.235   6.002   1.546  0.1654  0.0665  0.0303
22145W        W39669   5.086   1.851  11.955 -0.0234  0.1750 -0.1190
22146W        W39670   0.960   2.245   5.448 -0.0950  0.1248 -0.2624
22147W        W39671  15.842   1.119  13.719  0.0269 -0.2868  0.3378
22148W        W39672   1.949  11.043  16.028  0.1042  0.2372  0.1144
22149W        W39673   5.599  16.248  13.961  0.0235  0.1670 -0.0316
22150W        W39674   3.756   6.711  11.770  0.0863  0.2251 -0.2323
22151W        W39675  10.267   4.510   0.339 -0.1900  0.0500 -0.0977
22152W        W39676   6.013  14.033   1.333  0.2462 -0.0836 -0.1784
22153W        W39677   7.138   5.504  12.088  0.1009  0.2557  0.4275
22154W        W39678   7.055   2.396   0.774 -0.1946 -0.2182  0.1019
22155W        W39679   7.378   4.171  14.914  0.1579  0.3178  0.3196
22156W        W39680   0.037   0.329  14.848  0.0053  0.0343  0.2094
22157W        W39681   8.158  10.724   4.375 -0.1726 -0.0982 -0.2006
22158W        W39682   7.853  14.551   3.576  0.2877  0.0179 -0.0212
22159W        W39683  16.453   8.671  12.181 -0.0366  0.1513  0.1647
22160W        W39684   7.206   2.972   3.442 -0.3699  0.0239 -0.0309
22161W        W39685  15.005  15.519  15.771  0.0326  0.0537  0.1028
22162W        W39686  16.647   7.598   5.524 -0.0637  0.0344 -0.1532
22163W        W39687  10.347   5.078  15.751  0.1195  0.1836  0.0532
22164W        W39688  11.824  14.173  11.446 -0.1766  0.2122  0.2545
22165W        W39689   7.615  12.288   4.688 -0.1082 -0.1003  0.1116
22166W        W39690  15.646   6.269   1.029 -0.1476  0.0491 -0.1831
22167W        W39691   2.624   3.332   2.786  0.0551 -0.0632  0.0918
22168W        W39692   6.845  11.989   3.589 -0.2404  0.2173 -0.0180
22169W        W39693   0.881   4.790   3.190 -0.2025  0.0475 -0.3667
22170W        W39694   2.560   5.243  13.476  0.0708 -0.2369  0.1003
22171W        W39695   3.903  10.213  11.470  0.0340 -0.0171 -0.2871
22172W        W39696   4.730   1.642  12.297 -0.3124 -0.0912 -0.2750
22173W        W39697   1.320   0.647  11.091 -0.0763 -0.5205 -0.3427
22174W        W39698   4.922   5.090   3.702 -0.2881  0.0174 -0.2090
22175W        W39699   5.631  13.245  12.673  0.0859 -0.4006  0.2974
22176W        W39700  15.815  13.618  15.282 -0.0700  0.1635  0.3795
22177W        W39701   3.575   4.410  14.015  0.0010 -0.2748  0.0207
22178W        W39702   4.921   5.214  13.779  0.0695  0.1776  0.1793
22179W        W39703   0.439   6.750  14.583  0.2503  0.1818  0.0497
22180W        W39704  11.917   2.194  14.715  0.0222 -0.0240 -0.0540
22181W        W39705  11.438   9.227  13.846  0.0192  0.5143  0.1892
22182W        W39706  14.659  14.968   4.466  0.0891  0.0619  0.0278
22183W        W39707   4.216   2.058  11.559 -0.2223 -0.2592  0.0107
22184W        W39708  10.702   4.895   1.054  0.3250 -0.3546 -0.1376
22185W        W39709   2.746  13.153   5.022  0.3494 -0.2232 -0.1752
22186W        W39710   6.623   2.212   3.386 -0.0876 -0.3102 -0.1008
22187W        W39711  14.327   8.765   4.382  0.0664  0.2184  0.3491
22188W        W39712  12.470  10.818  11.896 -0.0807 -0.0803  0.5192
22189W        W39713  17.268  14.267  15.267 -0.0973  0.0721 -0.2176
22190W        W39714  16.391   6.276  14.853 -0.0319 -0.2542  0.3595
22191W        W39715   6.785   6.158   1.805  0.1647 -0.1188  0.1554
22192W        W39716  15.631  16.395  13.452 -0.1118 -0.0061  0.1149
22193W        W39717   3.390  10.221   2.662 -0.0106 -0.1001  0.0202
22194W        W39718  10.156   6.104   0.171  0.3691  0.0836  0.0421
22195W        W39719  15.699   3.983   0.902  0.0807  0.0001 -0.1382
22196W        W39720  11.641   4.871  11.737 -0.1513 -0.1782  0.0892
22197W        W39721  15.715   0.206  14.806  0.0981  0.2689  0.1010
22198W        W39722   5.957   8.108   0.268 -0.0978 -0.0866 -0.2034
22199W        W39723   4.970  14.756  15.506  0.1000  0.0043 -0.0128
22200W        W39724   3.422   0.153   1.944 -0.0519 -0.1995  0.0319
22201W        W39725  13.213  12.117  15.180 -0.0050  0.1793 -0.0522
22202W        W39726   4.114  10.629  15.436 -0.2079 -0.1457 -0.0630
22203W        W39727  14.855   4.463  15.851 -0.0035  0.1603 -0.0299
22204W        W39728  11.852   6.647   5.873 -0.1182 -0.2501  0.0570
22205W        W39729   6.537  16.299  15.179  0.3962  0.1945  0.0363
22206W        W39730  12.177  12.362  14.433 -0.1238  0.0047  0.0025
22207W        W39731   8.023  13.934   1.035  0.2830  0.0165 -0.1372
22208W        W39732   9.996   9.992   4.877  0.2146  0.0118  0.2741
22209W        W39733  17.668  10.542   3.467  0.0210  0.0074 -0.0258
22210W        W39734   8.585  16.546  13.583  0.1173 -0.0331 -0.0578
22211W        W39735   9.932   7.851   0.671 -0.1259  0.0658 -0.0845
22212W        W39736  18.121  13.597  12.893 -0.2444 -0.2411 -0.0415
22213W        W39737   0.394  15.686   4.206  0.1052 -0.0345 -0.2056
22214W        W39738   7.774   6.138   2.242 -0.0834 -0.0248 -0.0016
22215W        W39739   1.834   4.404  15.034 -0.1497  0.3398  0.3872
22216W        W39740  17.455   3.809  13.923  0.0231  0.0727  0.1141
22217W        W39741  15.601   8.484   1.684  0.2807  0.2843 -0.3202
22218W        W39742   7.091   4.420   0.000 -0.1835  0.0236 -0.2220
22219W        W39743   9.902   1.578   2.539 -0.2940 -0.0174  0.0207
22220W        W39744   1.055  12.055  14.500 -0.3322  0.0476  0.1216
22221W        W39745  13.759  11.678   2.565  0.1249 -0.0577 -0.3559
22222W        W39746  16.441   3.402   3.963  0.0628 -0.2631 -0.4562
22223W        W39747   5.239  10.176   5.467  0.4126  0.0073  0.1486
22224W        W39748  16.685  16.497  15.216  0.0953  0.2377  0.0075
22225W        W39749   4.278  17.049  11.303 -0.2037 -0.2261 -0.1441
22226W        W39750  17.991  10.358  15.488 -0.0940 -0.0864 -0.1334
22227W        W39751   4.130   6.223   2.675 -0.4184  0.0339  0.0776
22228W        W39752   7.025   2.296  15.474  0.1569 -0.1595  0.0097
22229W        W39753   3.399   1.250  10.885  0.3323 -0.1296  0.2572
22230W        W39754  13.433  10.679  12.725 -0.1080 -0.0138 -0.0859
22231W        W39755  17.452   1.951   2.912 -0.1360 -0.0900  0.1557
22232W        W39756  17.042  17.675   2.932  0.2419 -0.0951 -0.0437
22233W        W39757  14.543  11.348  12.937  0.2257  0.1463  0.0626
22234W        W39758   0.327  12.723  14.797  0.4729  0.0963  0.2994
22235W        W39759   2.125   9.845   0.897  0.2565 -0.2616 -0.1097
22236W        W39760   9.430  10.809   2.922 -0.4882  0.0038  0.2341
22237W        W39761   3.314   5.716  14.768  0.2356 -0.2887  0.0971
22238W        W39762  11.227  17.483   1.475 -0.1018  0.2458 -0.0175
22239W        W39763   0.066  14.857   3.572 -0.0607  0.1075  0.2511
22240W        W39764   7.053   6.914  16.041  0.0103 -0.0701  0.0612
22241W        W39765   2.598   4.211   3.308  0.2066  0.0447  0.0190
22242W        W39766   7.744  10.623   1.111 -0.0253 -0.0613  0.4051
22243W        W39767  15.053   0.472   0.451  0.0251  0.0789  0.2903
22244W        W39768   8.952  17.360   2.615 -0.0833 -0.2807  0.0434
22245W        W39769   0.003   7.105  12.205 -0.3352  0.6040 -0.0035
22246W        W39770   9.474  17.972   1.197 -0.0771  0.2953  0.1560
22247W        W39771   3.858  11.094  15.067  0.1781  0.2718  0.0910
22248W        W39772   1.965  13.799   5.386  0.2019  0.2394 -0.0033
22249W        W39773  12.833   4.660  15.356 -0.1663  0.3405  0.0870
22250W        W39774  10.061  13.556   0.376  0.0365 -0.1067 -0.4777
22251W        W39775  11.165   9.177  10.056 -0.0572  0.3549 -0.2902
22252W        W39776  15.439   9.586   1.324 -0.1264 -0.1649 -0.0501
22253W        W39777   4.581   2.899  13.718 -0.3121 -0.1647  0.1878
22254W        W39778  14.169  11.595   0.685  0.2073  0.2316  0.1274
22255W        W39779   4.151   9.839  12.652 -0.0463 -0.1288  0.0963
22256W        W39780   2.494  10.583   2.374  0.2774 -0.0690 -0.1192
22257W        W39781   2.856   6.353  12.647  0.4888 -0.3120 -0.1257
22258W        W39782  13.969   5.089   3.949 -0.0749  0.2818 -0.1179
22259W        W39783   5.513  14.211   3.122  0.2174  0.0371  0.1117
22260W        W39784   3.670   0.850   3.310 -0.0934 -0.0181 -0.1917
22261W        W39785  12.851   4.939  15.850 -0.0761 -0.2342  0.0590
22262W        W39786   2.968   1.900  14.336 -0.1409  0.0959 -0.1885
22263W        W39787   9.360  12.200  12.454 -0.0576  0.0004 -0.0976
22264W        W39788  15.824   2.035  13.309  0.1233  0.0345  0.0381
22265W        W39789  12.570  11.683  14.006 -0.0976  0.0473  0.1841
22266W        W39790   7.962   7.051   4.001  0.1113 -0.1606  0.0103
22267W        W39791   5.046   4.591  12.014  0.2627 -0.1346 -0.0079
22268W        W39792   3.315   2.166  13.981  0.1359 -0.0212  0.1115
22269W        W39793   4.843   2.152  12.266 -0.0243  0.3874  0.1265
22270W        W39794  10.442  10.728  13.804  0.0156 -0.1077 -0.0774
22271W        W39795   8.057  12.966   4.514 -0.1572 -0.3133 -0.2368
22272W        W39796  14.503   3.056   4.896 -0.0810  0.0589  0.2412
22273W        W39797  15.452   4.019  12.614  0.1647  0.0337 -0.0140
22274W        W39798  16.794   8.544   5.202  0.1295 -0.1763 -0.1203
22275W        W39799   8.009  11.522   1.741 -0.0417 -0.4221 -0.2770
22276W        W39800   6.425  11.938  13.288 -0.0796  0.1296  0.0761
22277W        W39801   8.538  10.153   1.006  0.3131  0.1328 -0.1997
22278W        W39802   8.278  10.260  15.420  0.2471 -0.2390 -0.0647
22279W        W39803  16.572   8.931   1.758  0.0596 -0.2051 -0.3513
22280W        W39804   4.162  17.865  13.001 -0.0200 -0.0214 -0.2361
22281W        W39805  15.639   8.314   4.359  0.3143  0.0213  0.0203
22282W        W39806  13.501  17.456  14.686 -0.0763 -0.1849 -0.0243
22283W        W39807  11.491   5.817   5.298  0.2708 -0.0201 -0.1197
22284W        W39808   5.868  18.050  12.426  0.1248  0.0045  0.3618
22285W        W39809   5.151   6.165  13.189 -0.0534  0.1005 -0.0074
22286W        W39810  15.890   0.587  13.839 -0.2198  0.0081  0.2998
22287W        W39811   8.646  10.232   1.509  0.0623  0.2434 -0.0587
22288W        W39812  10.055  17.392  13.165 -0.0004  0.0568 -0.1511
22289W        W39813   3.011  13.241   1.350 -0.0935  0.0793 -0.1023
22290W        W39814   1.765  17.667  13.194 -0.2116 -0.2364 -0.0066
22291W        W39815   6.348  17.568  13.048  0.1032  0.1295  0.1179
22292W        W39816   7.570  10.596  14.280  0.0928 -0.2492 -0.0000
22293W        W39817  14.316   6.848  13.481 -0.2245  0.1468 -0.3100
22294W        W39818  17.528  16.401  14.161 -0.0792  0.0822 -0.3083
22295W        W39819  13.388   7.425   1.825 -0.2050 -0.1825 -0.2954
22296W        W39820   7.773   0.382   0.660  0.5076  0.2076 -0.3564
22297W        W39821  12.145  16.495  12.531  0.0824  0.0670  0.2283
22298W        W39822  11.651  17.754  12.506  0.3376  0.0932 -0.0422
22299W        W39823  11.228   6.106  15.136 -0.0427 -0.2053  0.0184
22300W        W39824   3.850  14.234  14.471 -0.0288 -0.1244 -0.0788
22301W        W39825  12.772   6.714   2.903  0.0656 -0.0689 -0.5051
22302W        W39826  15.963   7.622  13.916  0.2340  0.0865  0.2981
22303W        W39827   1.050   2.554  12.789 -0.0143 -0.0797  0.5086
22304W        W39828   0.184  16.428  13.268  0.4348 -0.0666  0.4383
22305W        W39829  10.387  13.854   1.725  0.0430 -0.0745  0.0240
22306W        W39830  11.011  10.248  12.548 -0.1657 -0.3275 -0.2670
22307W        W39831   0.722   1.843   1.179 -0.2381 -0.0006 -0.0514
22308W        W39832   5.875   6.650  12.704 -0.3791  0.0852  0.2084
22309W        W39833   5.895  16.448  15.693  0.1100  0.4336 -0.1906
22310W        W39834   2.418   8.190  15.083 -0.1391  0.0051 -0.2108
22311W        W39835  12.708  11.891  13.144 -0.0455  0.0146  0.1135
22312W        W39836   7.005   0.113   1.170 -0.0132 -0.0109 -0.1081
22313W        W39837  16.758  11.365   6.128  0.0879 -0.0367  0.2762
22314W        W39838   4.080  16.646   2.173 -0.0956  0.1824 -0.2475
22315W        W39839   4.285   9.963  11.737 -0.0103  0.1254 -0.0469
22316W        W39840  11.924  14.687   4.155 -0.0448  0.1903 -0.0405
22317W        W39841  16.414   1.974  14.905 -0.2140 -0.3075 -0.1004
22318W        W39842   3.461  12.598   4.216  0.1935 -0.1080  0.1521
22319W        W39843   6.599   6.630  14.465 -0.3389 -0.1949 -0.1545
22320W        W39844   9.577  10.783   3.512  0.0556  0.1028 -0.1006
22321W        W39845   0.689   4.431   5.102  0.3877  0.0030  0.3027
22322W        W39846   9.923  16.085   5.593 -0.0703 -0.1859  0.0272
22323W        W39847  14.146  13.545  14.111 -0.0949  0.1329  0.2672
22324W        W39848   7.115  10.868   4.019  0.0021 -0.0401 -0.0876
22325W        W39849   8.775   8.444  12.419 -0.0073  0.1777 -0.1347
22326W        W39850  15.293   3.036  14.504  0.4857  0.2387 -0.0663
22327W        W39851  13.174   9.117  11.682  0.0398 -0.0253 -0.2361
22328W        W39852   8.561   1.856  13.287  0.1467  0.1640  0.1564
22329W        W39853  10.096   1.133   2.827 -0.1165  0.0978 -0.0889
22330W        W39854  14.099   7.632   3.385 -0.1337  0.3848 -0.1233
22331W        W39855   7.006   1.112  14.034  0.1321 -0.2718  0.0903
22332W        W39856   7.193  17.384   0.762 -0.0557 -0.1824  0.1105
22333W        W39857   8.696  11.591  13.555  0.1719  0.0673  0.0100
22334W        W39858   0.051  11.237   3.656 -0.0255 -0.3982 -0.4673
22335W        W39859   1.156   6.618  14.187  0.1806 -0.0314  0.1968
22336W        W39860   1.460   4.316   0.831 -0.1500 -0.2730  0.1514
22337W        W39861   3.043   8.576  14.453  0.2839  0.3112  0.0236
22338W        W39862  14.814   7.485  14.062  0.0726 -0.0275  0.0856
22339W        W39863   4.407  17.416  12.074 -0.1592 -0.2421 -0.2071
22340W        W39864  11.903   5.200   3.530  0.0724  0.2097 -0.2346
22341W        W39865  15.542  11.476  12.723  0.2553 -0.3937  0.0923
22342W        W39866   5.358   7.587  14.061  0.2185  0.0982  0.0658
22343W        W39867   4.205   8.957   3.809 -0.1413  0.0420 -0.0968
22344W        W39868   8.026   6.689   0.881  0.1440  0.0733 -0.1397
22345W        W39869   8.808   0.077   4.228 -0.1862 -0.1289 -0.4436
22346W        W39870   2.665  13.518   3.565  0.1219 -0.1128 -0.1990
22347W        W39871   0.669  16.211  13.318  0.0395  0.2001 -0.2143
22348W        W39872   9.024  12.683  12.766  0.0452 -0.2270  0.0879
22349W        W39873   3.927   4.908   5.535 -0.0460  0.0223 -0.1615
22350W        W39874  12.740  17.433   1.199  0.2825 -0.0461  0.1055
22351W        W39875   3.842  11.681   2.533 -0.0210  0.0697  0.1308
22352W        W39876   7.409  10.468   2.941  0.1406  0.1944 -0.0447
22353W        W39877   9.428   4.053  12.739  0.1067  0.2204 -0.3861
22354W        W39878  15.624  10.129   1.104 -0.0724  0.0392 -0.0045
22355W        W39879   8.776  12.655  12.152 -0.2619 -0.0507 -0.0255
22356W        W39880   6.221   9.205  15.332 -0.1724  0.2626 -0.1054
22357W        W39881   8.242  12.306  15.939  0.1548  0.1308 -0.2637
22358W        W39882   1.782   6.236  14.986 -0.0767  0.1901 -0.1045
22359W        W39883  14.299  12.293   3.883  0.4509  0.1521 -0.0848
22360W        W39884   5.363   3.575   3.761  0.1315 -0.4768 -0.1878
22361W        W39885   1.655   4.110   0.371  0.0050 -0.0341 -0.1916
22362W        W39886  10.043  14.236   1.870 -0.3429  0.1544  0.2589
22363W        W39887  13.002   4.268   2.370  0.2037  0.2288  0.2476
22364W        W39888  18.065  11.229   4.846 -0.0683 -0.2362  0.3681
22365W        W39889   3.513  10.991  12.705 -0.1574 -0.3309  0.1480
22366W        W39890  11.022   6.971  11.649 -0.0332  0.0956  0.1959
22367W        W39891  11.139   8.077   3.227  0.0043  0.0017  0.3359
22368W        W39892   1.673  17.186  14.801 -0.2123  0.3860 -0.3283
22369W        W39893   9.584  15.674   5.209  0.1413  0.2307  0.1015
22370W        W39894  10.197   1.815   3.502 -0.1242  0.0116  0.1944
22371W        W39895   1.971  17.340  11.924  0.4912  0.2829  0.0241
22372W        W39896   6.871  11.020  13.155  0.0308  0.2079 -0.5068
22373W        W39897  17.377  17.525  14.188 -0.1322  0.0227  0.0472
22374W        W39898   2.623   0.809   0.736  0.3004 -0.0668 -0.0533
22375W        W39899  13.481   5.822   0.382  0.3771  0.2139 -0.1821
22376W        W39900   8.612   3.267   1.372 -0.1050 -0.0700 -0.1367
22377W        W39901  13.617  14.623   1.077  0.1750  0.2403  0.0539
22378W        W39902   9.831  15.601  10.918  0.0117 -0.1773 -0.0496
22379W        W39903   8.026  10.681   9.940 -0.3110  0.0728  0.1331
22380W        W39904  13.879  11.128   1.308 -0.3837  0.0249  0.2870
22381W        W39905  12.057  14.915  13.796  0.3590 -0.0943 -0.1502
22382W        W39906   7.859  17.341  14.804 -0.3002 -0.0253  0.0224
22383W        W39907   4.806   7.309  11.563  0.0419 -0.1703  0.0863
22384W        W39908   6.877  10.763   1.636 -0.1954  0.0216  0.1457
22385W        W39909  14.421  10.532   1.291  0.2198  0.1592  0.0623
22386W        W39910   9.697  10.625   5.432  0.3673  0.1146 -0.0944
22387W        W39911   2.211   9.304   1.660 -0.0560 -0.0605  0.0596
22388W        W39912  12.476  11.598   0.615 -0.1337 -0.1126 -0.1432
22389W        W39913  17.189   2.179   1.712 -0.1881 -0.0659  0.1472
22390W        W39914   6.175   5.452   0.206 -0.0052 -0.1720 -0.2324
22391W        W39915  16.258   6.684  13.884  0.0566  0.1892 -0.1726
22392W        W39916  12.573   6.515  12.178  0.1727  0.0578 -0.0719
22393W        W39917  12.915  16.638   1.856  0.0613 -0.0086 -0.2612
22394W        W39918  13.029   0.155   2.424 -0.0388 -0.2134  0.0217
22395W        W39919   9.466   5.855   1.108  0.2612 -0.0073 -0.1817
22396W        W39920   9.617   2.308  11.263 -0.1888  0.0956 -0.1108
22397W        W39921   2.848   0.787   2.847 -0.2398  0.1579 -0.2934
22398W        W39922  12.048   3.147   3.697  0.0575 -0.0870 -0.1338
22399W        W39923   0.564   1.338   1.931 -0.2710  0.1185  0.1512
22400W        W39924   2.543  10.834  12.248  0.1200 -0.3127 -0.1355
22401W        W39925   1.321   1.675  12.554 -0.4008 -0.1419 -0.1044
22402W        W39926   6.708  14.588   1.230 -0.0541  0.0569 -0.0585
22403W        W39927   2.709   1.863  12.351  0.1941  0.1211 -0.0293
22404W        W39928   9.558   1.223  11.768 -0.0437  0.1145  0.6460
22405W        W39929   9.384   0.705  12.908  0.0751  0.1869 -0.0401
22406W        W39930  16.414  12.328   1.896 -0.0309 -0.1665 -0.1912
22407W        W39931   5.435   4.855  12.246  0.3307  0.1552  0.2087
22408W        W39932  15.863  13.781   6.308  0.1480 -0.1786  0.0397
22409W        W39933   0.818   9.551   3.813 -0.2542  0.0860 -0.3087
22410W        W39934   7.272  15.304  15.666 -0.1444  0.0497  0.2862
22411W        W39935   3.703   9.050   3.915 -0.1002  0.0695 -0.1842
22412W        W39936   3.448  10.949   0.990  0.3395  0.2633  0.2105
22413W        W39937   8.254   2.158  14.781  0.2382  0.1811  0.1380
22414W        W39938   0.067   9.393   4.909 -0.0406 -0.3527  0.1945
22415W        W39939  16.361  16.852   1.994 -0.3588  0.3831  0.2003
22416W        W39940   2.048  13.334  15.167  0.3131 -0.0669 -0.0051
22417W        W39941  16.717   0.086   1.382 -0.0295  0.2473 -0.2924
22418W        W39942  16.920   1.714  12.101  0.1542  0.1052 -0.0329
22419W        W39943  16.427   6.228   5.123  0.2528  0.1502  0.2880
22420W        W39944   2.752   1.900   0.365 -0.2975 -0.6494  0.2406
22421W        W39945  17.031   0.000  15.562 -0.2259 -0.0247  0.2209
22422W        W39946  12.054   9.254   3.654 -0.2485 -0.0309 -0.1665
22423W        W39947   2.807  16.856   2.558  0.0331  0.0347  0.2309
22424W        W39948   6.157   0.296  13.110  0.0593 -0.1477 -0.2028
22425W        W39949   7.657  13.083  12.862 -0.2606  0.1097  0.2369
22426W        W39950   1.344   9.390   1.988  0.2825 -0.0005 -0.0169
22427W        W39951  17.447  10.434   2.020 -0.2271 -0.1829  0.1686
22428W        W39952  10.866   7.407  11.815  0.1916  0.2664 -0.0108
22429W        W39953   1.308   1.113  10.795 -0.0812 -0.0429 -0.0815
22430W        W39954  12.954  17.094  16.017  0.1101  0.0310  0.1511
22431W        W39955  10.201   4.027   3.781  0.0063  0.2322 -0.0278
22432W        W39956  14.713   9.752  15.262 -0.1520  0.2365 -0.4333
22433W        W39957  11.203  15.272   1.620  0.0722 -0.0460 -0.0544
22434W        W39958  15.882   0.999  12.955  0.2129  0.0336  0.0772
22435W        W39959   2.167  11.668   3.033  0.0671  0.0059 -0.1237
22436W        W39960  13.380   4.430   3.976  0.1783  0.3310  0.2041
22437W        W39961   3.822  12.969   1.437 -0.1209  0.0102  0.0553
22438W        W39962   6.445   2.482  13.269 -0.0732  0.0003  0.1282
22439W        W39963   9.615  17.376  12.726 -0.0854  0.2633 -0.0073
22440W        W39964   0.026   4.757  15.428 -0.0246  0.0590  0.1142
22441W        W39965   3.387   9.780   4.697 -0.0989  0.2104 -0.0815
22442W        W39966  15.545   1.779  14.616  0.0639  0.4233 -0.1156
22443W        W39967  16.610  15.185  10.849 -0.2704 -0.1765 -0.2098
22444W        W39968   0.090  11.243   0.746  0.2953 -0.0351 -0.0430
22445W        W39969  11.165  17.311  11.114  0.0145  0.2172 -0.1311
22446W        W39970   6.228   4.429  15.665 -0.1833  0.0851  0.0557
22447W        W39971  12.563   1.214   0.081  0.2303 -0.0631  0.2602
22448W        W39972   7.469   1.487   4.119 -0.1112 -0.0184 -0.1521
22449W        W39973   5.800  11.471  13.819 -0.0755  0.0001  0.1272
22450W        W39974   6.869   1.684   5.511  0.1222 -0.4178  0.2299
22451W        W39975   8.034  11.568  14.801  0.0496  0.1787  0.0488
22452W        W39976   4.716   7.959   5.643  0.3020 -0.0159 -0.1945
22453W        W39977  15.124  13.061   0.405 -0.1775  0.0722 -0.1102
22454W        W39978   9.847  17.427   1.358  0.2958 -0.2678  0.2649
22455W        W39979   2.503  11.751   0.441  0.2224  0.1868  0.0260
22456W        W39980   3.885  14.649   2.696  0.0120 -0.0116 -0.2096
22457W        W39981  10.772  10.184  13.454  0.0110 -0.0332  0.1583
22458W        W39982   0.073   8.619  14.174  0.2743  0.2439  0.3243
22459W        W39983   1.002   6.368   2.461  0.0006  0.2236  0.0888
22460W        W39984  15.355   8.055   5.248 -0.0045  0.0708  0.0066
22461W        W39985   4.941   2.683  11.057  0.0952 -0.4482 -0.1892
22462W        W39986   0.977  17.649  14.345  0.2832 -0.1949 -0.1531
22463W        W39987  14.451  10.886  14.352 -0.0708  0.0305 -0.1037
22464W        W39988   8.175  14.555  14.115  0.2606 -0.1981 -0.3633
22465W        W39989  11.265  16.743  11.839  0.2080  0.3522  0.3526
22466W        W39990   3.924   8.321  10.637  0.0528  0.3051  0.2998
22467W        W39991   1.739   9.402  13.955 -0.0076  0.0774  0.3057
22468W        W39992   3.526  14.165   0.444 -0.0621  0.1474 -0.2159
22469W        W39993  10.316   1.377  14.121  0.4003 -0.1147  0.0971
22470W        W39994  14.913   0.024  14.517  0.0969 -0.2295 -0.0687
22471W        W39995   7.516   4.293  14.097  0.2504  0.1027  0.0343
22472W        W39996  15.923   7.547   3.054 -0.0974 -0.1404  0.0680
22473W        W39997  15.414   4.126   4.945  0.0903  0.1098  0.4344
22474W        W39998  14.392   9.176  15.444 -0.0143 -0.0361 -0.1474
22475W        W39999   1.709  15.631   5.006  0.2055  0.1425 -0.3751
22476W        W40000   6.952  15.750  14.064  0.0765 -0.0617  0.2061
22477W        W40001   1.747   1.364  12.589 -0.0079  0.2323  0.0055
22478W        W40002  17.290   1.394  11.885 -0.1430 -0.1202 -0.2080
22479W        W40003   9.766   6.560  13.616 -0.0779  0.2077  0.4039
22480W        W40004   0.180  14.566  15.166  0.1077 -0.1678 -0.1241
22481W        W40005  16.549  14.203  10.479  0.1443 -0.0953  0.0359
22482W        W40006   5.165   0.477   1.961  0.2766 -0.2594  0.0406
22483W        W40007  15.013  12.483   0.602 -0.2050 -0.0652  0.0020
22484W        W40008   9.717   1.469   2.024  0.0939 -0.1803 -0.0802
22485W        W40009  11.738  12.649   1.902  0.0395  0.2166 -0.2823
22486W        W40010  10.788   7.485  15.642 -0.1683  0.2422  0.0523
22487W        W40011   3.112   2.727  14.619  0.0045 -0.2838  0.0168
22488W        W40012  11.721   3.658   5.615  0.2080 -0.1946  0.1664
22489W        W40013   8.121  10.446   1.449 -0.0309 -0.0424 -0.0907
22490W        W40014  15.819  14.450   2.379 -0.4020 -0.1335  0.0181
22491W        W40015   4.183  16.339   0.377  0.3954  0.0659 -0.0958
22492W        W40016  15.416   7.481  13.959 -0.0813  0.0860 -0.2974
22493W        W40017  13.389  16.999  14.598  0.1047 -0.1480  0.3863
22494W        W40018   0.465   1.447   1.331  0.0442 -0.3772  0.0683
22495W        W40019  12.815  17.141  11.206  0.3445 -0.1293  0.0935
22496W        W40020   8.896   4.069  12.173  0.0046 -0.2177  0.1685
22497W        W40021  14.967  15.534   5.368  0.0092  0.1255 -0.0303
22498W        W40022  16.025   3.035  11.882  0.1967 -0.1012 -0.1192
22499W        W40023  12.716  14.090   4.643 -0.0048 -0.0984 -0.0176
22500W        W40024  12.352  13.572   0.104  0.3079 -0.1203 -0.1103
22501W        W40025   9.701   5.604  11.408 -0.0366 -0.1465  0.4400
22502W        W40026   0.124  10.340  13.413  0.1983  0.0274  0.0191
22503W        W40027  13.702   5.479   0.752  0.0599  0.2749 -0.1532
22504W        W40028  15.444  13.906  15.728  0.1526 -0.1351  0.0094
22505W        W40029   9.295  12.913   3.420 -0.0335 -0.1213 -0.0284
22506W        W40030  14.991  16.321  11.977 -0.0649  0.1543  0.0860
22507W        W40031   5.688   3.062   3.201  0.2464 -0.1250 -0.0993
22508W        W40032  11.008   6.688  14.066 -0.1404 -0.0599 -0.2652
22509W        W40033  10.223   5.276   4.095  0.0069  0.0385 -0.0609
22510W        W40034   0.177   7.754  14.737 -0.2021  0.0131  0.1531
22511W        W40035  13.817  10.742  15.332  0.0149  0.0283  0.0902
22512W        W40036   6.282   8.164   2.553  0.0991  0.0111  0.0997
22513W        W40037   2.062   8.285  14.752 -0.0041  0.2757  0.4500
22514W        W40038   1.659  15.400  12.141 -0.0343 -0.2093  0.0059
22515W        W40039  13.320  13.987  12.855 -0.4041  0.0168 -0.3015
22516W        W40040   4.229   4.131  14.795 -0.1060  0.0808  0.1797
22517W        W40041  10.608   0.264  10.117 -0.1216  0.1647  0.0574
22518W        W40042   2.793   8.101   1.002  0.4402  0.2192 -0.0074
22519W        W40043  18.158   6.795   3.241  0.2539  0.1627 -0.1757
22520W        W40044   6.426   3.756  11.366  0.1613  0.0262 -0.3126
22521W        W40045  15.870   6.192   3.049  0.0748  0.1140  0.1841
22522W        W40046   8.490  10.999  15.919  0.4248  0.0337 -0.2468
22523W        W40047   9.465   7.143   1.929  0.3105  0.0071  0.0137
22524W        W40048  12.670   3.472   1.616 -0.0846 -0.2521 -0.3939
22525W        W40049   9.131   1.892  14.870  0.2865  0.1311  0.0839
22526W        W40050  16.951   3.810  15.772  0.2245 -0.0451  0.0175
22527W        W40051  12.370   7.715   0.687 -0.0006  0.3228 -0.2234
22528W        W40052   5.644   7.331  11.953 -0.2208  0.1348  0.1986
22529W        W40053  14.273  12.367   0.260  0.1574 -0.2104  0.0511
22530W        W40054   7.850  13.058  13.950  0.3612 -0.1008 -0.2362
22531W        W40055   4.313   9.497   1.723 -0.1841 -0.0264 -0.1478
22532W        W40056  13.599  13.766   1.073 -0.1028 -0.0869  0.0153
22533W        W40057   9.533  14.508  11.028  0.1418 -0.2529  0.0093
22534W        W40058  12.704  13.479  10.792  0.1719  0.1276 -0.2014
22535W        W40059  12.816  16.565  15.322 -0.0201 -0.0745  0.1987
22536W        W40060   2.804   1.288   2.994 -0.0617 -0.1741 -0.2787
22537W        W40061  12.189  12.878   2.019 -0.2305  0.0036  0.0581
22538W        W40062  14.000  16.110  15.264  0.1284  0.2901 -0.1144
22539W        W40063  10.617   4.147  15.444  0.1023  0.1121 -0.5414
22540W        W40064   3.333  11.113  15.394 -0.4228  0.2376  0.2273
22541W        W40065   7.313   8.648   0.256  0.2520  0.0478 -0.0082
22542W        W40066  10.963  14.128  15.379 -0.2706  0.1740 -0.3250
22543W        W40067   6.481  12.032   2.683  0.1959 -0.1095  0.0109
22544W        W40068  13.579   0.448  12.188 -0.0815  0.2467  0.0463
22545W        W40069  15.454   9.095   0.476 -0.0109 -0.0367 -0.1233
22546W        W40070  12.095   2.835  12.932  0.0823 -0.3693  0.1395
22547W        W40071   9.344   0.659  15.265  0.0550  0.2024 -0.1457
22548W        W40072  17.516   3.161  15.324  0.0096 -0.0946 -0.1008
22549W        W40073   3.103   1.396   2.227 -0.0119  0.1442  0.1284
22550W        W40074   6.715   5.819  15.464  0.2491 -0.0844  0.2778
22551W        W40075   6.217   2.289  10.790 -0.0105  0.0781  0.1949
22552W        W40076  11.967  14.870  16.025  0.1408 -0.0831  0.2349
22553W        W40077   4.162   5.992  12.906  0.0039 -0.2754  0.1147
22554W        W40078   2.140  12.944  11.970  0.0503 -0.0136  0.1160
22555W        W40079  14.325  11.436  14.162  0.0350 -0.0893 -0.0090
22556W        W40080   0.239  16.701   1.896 -0.0087 -0.0574  0.0337
22557W        W40081   7.986   1.504  16.058 -0.1786  0.2068 -0.2215
22558W        W40082   3.068  14.651  11.164 -0.2109  0.1857  0.0016
22559W        W40083   9.331   0.081   2.514  0.0386  0.0811 -0.0330
22560W        W40084   1.162  14.050   4.361  0.0937 -0.3315 -0.3059
22561W        W40085  10.501   7.537   1.854 -0.4452  0.2971 -0.0720
22562W        W40086   6.380   1.217  11.296  0.3398 -0.2317  0.1245
22563W        W40087   8.102   4.048  13.470  0.0156 -0.3018  0.0131
22564W        W40088   5.743   2.483   0.939  0.0759 -0.0238  0.2716
22565W        W40089   0.159  11.919  14.298 -0.0661 -0.0536  0.0208
22566W        W40090  12.634  13.970   3.936  0.0358  0.2526  0.0514
22567W        W40091  14.034   1.087  13.609  0.0235  0.1283 -0.0439
22568W        W40092   7.850  16.309  14.700 -0.1337 -0.0015  0.0601
22569W        W40093  11.903   5.720  12.972 -0.1157  0.1310  0.1177
22570W        W40094   7.770   2.300   4.452 -0.1711 -0.2732 -0.2789
22571W        W40095   3.833   9.974   4.662  0.1407 -0.1599 -0.3303
22572W        W40096   6.494   3.901   0.910  0.0154 -0.0662 -0.0826
22573W        W40097   8.598   2.359  11.509 -0.0792 -0.0803 -0.0781
22574W        W40098   1.763  17.035   3.536 -0.0138 -0.2112  0.0125
22575W        W40099  10.099  15.850   0.471  0.1600 -0.1432 -0.0654
22576W        W40100   3.788   9.439   5.219 -0.2311  0.0671 -0.2179
22577W        W40101  11.557   2.108   5.067 -0.1347 -0.0455 -0.0880
22578W        W40102   9.083   9.804   3.412  0.0668 -0.0228 -0.1027
22579W        W40103   5.524   8.423  13.872 -0.0556 -0.0027  0.0048
22580W        W40104  15.385  17.428  12.356 -0.3620  0.0180  0.1263
22581W        W40105   3.235   8.201  15.440 -0.1205  0.0312 -0.4369
22582W        W40106   9.522   4.895  13.416 -0.0887  0.0129 -0.2432
22583W        W40107  18.153   5.193   2.259  0.2403  0.0297 -0.0482
22584W        W40108   3.013  15.632   3.087  0.1321 -0.0701 -0.2612
22585W        W40109  12.738   4.010   1.416  0.1541  0.0795 -0.1345
22586W        W40110  14.080  12.080   0.709 -0.1094 -0.2053  0.0332
22587W        W40111  10.879  17.137  13.246 -0.4918 -0.0787  0.3113
22588W        W40112   4.448   2.340   1.921 -0.2213  0.2266 -0.0682
22589W        W40113   5.906  11.435  12.082  0.0070 -0.0430 -0.0240
22590W        W40114   6.382  15.777   0.047 -0.1668  0.1143  0.2154
22591W        W40115  12.100  15.420   2.693 -0.1151 -0.1172  0.1740
22592W        W40116  13.347   1.352  15.767  0.0602  0.1852 -0.1903
22593W        W40117   2.892   3.289   4.266  0.0313 -0.0608  0.0753
22594W        W40118   1.258   7.440  13.592  0.2047 -0.1667  0.2522
22595W        W40119  12.561   3.186  11.940 -0.1238  0.0438  0.2575
22596W        W40120   8.602  17.345  12.007  0.1785  0.3140 -0.0344
22597W        W40121   5.933  10.247   2.010  0.0348  0.0617 -0.3103
22598W        W40122  12.482   1.544  13.333  0.1282 -0.1261 -0.0390
22599W        W40123  12.419   2.394   1.058  0.0803 -0.1252  0.1089
22600W        W40124   0.287  14.338  11.837 -0.2963  0.0619  0.0224
22601W        W40125  15.359   0.643   3.206 -0.1637 -0.0150 -0.3077
22602W        W40126  10.262   8.113  12.941 -0.0117  0.2297  0.1817
22603W        W40127  13.941   6.027  14.447  0.1186 -0.0295  0.0156
22604W        W40128  12.062  15.723   0.030 -0.0144 -0.5729 -0.1441
22605W        W40129  11.406  11.830  12.668  0.0685 -0.0866 -0.3271
22606W        W40130  11.147   6.016   2.580 -0.0148  0.0965  0.1105
22607W        W40131  10.756  13.367   4.677 -0.3982  0.0067 -0.0030
22608W        W40132   3.219   3.480  15.564  0.0308  0.2088  0.0786
22609W        W40133  10.386  14.777  15.478  0.0720 -0.3071 -0.0443
22610W        W40134   9.448  11.802  12.859  0.1835  0.0188 -0.0140
22611W        W40135  12.557  14.421  13.137 -0.1431  0.1027  0.1622
22612W        W40136   6.630   1.809   3.088 -0.2419 -0.2808 -0.2280
22613W        W40137   9.507   3.317  13.458  0.4242 -0.0969 -0.3089
22614W        W40138   0.811  13.568   2.800 -0.0288  0.0993  0.3731
22615W        W40139   1.105  12.810   3.115 -0.1222  0.0177 -0.1712
22616W        W40140  13.450   7.092   5.031  0.0171  0.0849 -0.2409
22617W        W40141   8.287   8.680  15.401  0.2198  0.1788  0.1336
22618W        W40142   8.246  15.931   1.078 -0.0796  0.0519  0.3880
22619W        W40143   9.688   7.718  12.061 -0.1083  0.0473 -0.1673
22620W        W40144  14.412   1.213   1.823 -0.0790 -0.0322  0.0672
22621W        W40145  13.016   5.678   1.902  0.0376 -0.0111  0.1547
22622W        W40146   6.017  12.688  13.674  0.0840 -0.0975 -0.1773
22623W        W40147  10.752  11.124   4.752 -0.2196  0.0666  0.1196
22624W        W40148   2.130   6.658  12.464  0.0544  0.0524  0.1137
22625W        W40149   1.440  12.283   2.298  0.2146 -0.0687  0.2087
22626W        W40150   8.921  17.333  13.039 -0.2450 -0.0469  0.2090
22627W        W40151   7.201   8.338  13.214 -0.0014  0.0687 -0.0632
22628W        W40152  15.775   1.834   1.277  0.2587 -0.2580 -0.4174
22629W        W40153  12.325  14.416   1.861 -0.3649  0.1143  0.2243
22630W        W40154  12.899  12.807   1.341  0.0293  0.0502 -0.2265
22631W        W40155   1.231  15.400  11.710  0.2305 -0.2541 -0.1297
22632W        W40156  16.579   1.486   0.444 -0.1629  0.2343 -0.0488
22633W        W40157   8.342   1.261  13.834 -0.0339 -0.0623  0.3757
22634W        W40158  11.290  13.330  14.732 -0.0484 -0.3831  0.1707
22635W        W40159   0.261   5.512   2.500 -0.0064  0.1365 -0.0885
22636W        W40160  15.653   3.726   4.815 -0.0482 -0.1463  0.3085
22637W        W40161  14.138  13.750   0.091  0.1422  0.1810  0.2191
22638W        W40162  15.877  10.459  15.949 -0.0190 -0.0595  0.0212
22639W        W40163   1.290  17.383  10.773  0.0341 -0.0473  0.2327
22640W        W40164  16.321  10.941  14.446 -0.1914  0.2898  0.3865
22641W        W40165  11.243   3.195  12.051 -0.1255  0.0893  0.0071
22642W        W40166   3.787   6.013  13.948  0.1021 -0.2563  0.1738
22643W        W40167  14.784  17.630   3.468 -0.2972 -0.3025 -0.1232
22644W        W40168  15.594  11.022  12.220  0.2563 -0.1402 -0.0725
22645W        W40169  10.304   6.109  15.713  0.3049  0.1480 -0.1641
22646W        W40170  10.271   5.263   1.680 -0.2025 -0.0411 -0.1846
22647W        W40171  11.284  11.621   0.977  0.1281  0.1699 -0.1192
22648W        W40172   2.926   4.429  12.345  0.0191  0.1132  0.0908
22649W        W40173   9.005   0.957   3.714  0.2088  0.0400 -0.1054
22650W        W40174  12.287   2.147  13.373 -0.1398 -0.1136 -0.1428
22651W        W40175  11.376  17.860  13.721 -0.3845 -0.1523  0.1705
22652W        W40176  15.752  13.905  14.465 -0.0580 -0.2061 -0.0284
22653W        W40177   2.973   6.045  11.335  0.0760  0.5235 -0.0128
22654W        W40178   8.421  17.546   2.221  0.2000  0.0973 -0.0376
22655W        W40179   8.902   8.477   4.491 -0.2850 -0.1804  0.0501
22656W        W40180   4.432  10.026   1.948 -0.0309  0.1435 -0.3127
22657W        W40181  12.378  16.198   0.489  0.0937  0.1892 -0.1393
22658W        W40182   5.129   8.568  10.952 -0.3857 -0.2002 -0.1407
22659W        W40183  13.613  13.560  11.063 -0.1608  0.0777 -0.1665
22660W        W40184  11.772   8.186   4.433 -0.1837 -0.1680 -0.1018
22661W        W40185   2.923  10.267   2.513  0.0897  0.1541 -0.0315
22662W        W40186   8.229  17.601  11.261 -0.0229 -0.0307  0.1824
22663W        W40187  10.301   3.304   3.836  0.3091  0.1546  0.1850
22664W        W40188  13.144  15.347  14.662  0.1350  0.0404  0.5521
22665W        W40189  11.294  13.902  12.198 -0.1050 -0.0716 -0.1709
22666W        W40190   0.700  17.628   4.876  0.0521  0.1913  0.0246
22667W        W40191   7.495  12.914  15.776  0.0823  0.2890  0.1496
22668W        W40192  11.853   1.635   2.727  0.0603 -0.0599  0.1433
22669W        W40193   7.699   5.263   1.228  0.1662  0.0081 -0.0460
22670W        W40194  11.393   6.047   2.133  0.2278  0.1127 -0.1076
22671W        W40195  14.183  13.342  11.573 -0.2753  0.0700 -0.2099
22672W        W40196  14.682   1.690  13.138  0.1250 -0.2257  0.0187
22673W        W40197   9.100  14.920   5.089  0.0007 -0.1779  0.3557
22674W        W40198  13.802  11.469  13.595 -0.0016  0.0943  0.2592
22675W        W40199   8.465   7.626  11.342 -0.0635  0.1446  0.0434
22676W        W40200  11.685   7.213   2.274  0.2532 -0.2280  0.1190
22677W        W40201  10.586   9.274  15.088  0.0171 -0.2692 -0.0158
22678W        W40202  12.339   5.955  13.190  0.3348  0.2272  0.1257
22679W        W40203  13.520   0.515  13.211 -0.0571  0.1928 -0.0705
22680W        W40204  13.489   6.407  13.733  0.0562  0.0224  0.3987
22681W        W40205   0.596   8.475  13.430  0.2877 -0.3264  0.1602
22682W        W40206   6.112  17.863   1.815  0.1168 -0.0987  0.0657
22683W        W40207   4.569   6.044   3.980 -0.0821  0.0199 -0.0282
22684W        W40208   0.383   5.155  14.498 -0.0988 -0.2696 -0.2707
22685W        W40209  14.594   2.147   1.669 -0.0324 -0.3091 -0.0573
22686W        W40210  11.406   5.164   2.237 -0.1506  0.1161 -0.2909
22687W        W40211   9.698  13.122  15.201 -0.2991 -0.1172 -0.0332
22688W        W40212  13.110  12.519  14.238 -0.1652  0.0559  0.1850
22689W        W40213  12.426   1.094  14.241  0.2774 -0.0735  0.2171
22690W        W40214  16.106  17.780  15.412  0.0385  0.1839 -0.1957
22691W        W40215   6.083   3.304   0.551 -0.1551 -0.0499  0.0500
22692W        W40216  10.151  15.597   4.074  0.1257 -0.1091  0.2308
22693W        W40217  10.522  14.490  11.223 -0.0649  0.1773 -0.3963
22694W        W40218  17.304  12.424   5.197 -0.0134 -0.1146 -0.1851
22695W        W40219  11.786   3.074   1.705 -0.0446 -0.0481 -0.0755
22696W        W40220   0.263   2.630   1.681  0.0923 -0.0825  0.0145
22697W        W40221  16.117   8.338   1.441  0.0279  0.0753  0.1166
22698W        W40222   2.692  12.109   0.724 -0.4575  0.1022 -0.5297
22699W        W40223  14.940   5.169   4.310 -0.1077  0.1080 -0.0222
22700W        W40224  14.004   4.327  13.444 -0.3538  0.2675  0.2524
22701W        W40225   5.866  12.191   3.450 -0.1530  0.1904  0.0316
22702W        W40226   3.580  12.194  15.796 -0.1825 -0.0405 -0.0711
22703W        W40227  12.806  15.335  10.909  0.1683  0.3502  0.0486
22704W        W40228   6.519   2.666   4.002 -0.1686 -0.1340 -0.4287
22705W        W40229   5.980   0.882  15.808  0.1047  0.2733 -0.2057
22706W        W40230   8.583  10.714   1.558  0.0584  0.0285  0.2185
22707W        W40231   6.170   2.999  15.910  0.1828 -0.0855  0.1058
22708W        W40232  10.255   5.411   2.809  0.0752 -0.0897 -0.1381
22709W        W40233   1.882   7.663   5.221 -0.1767  0.1271 -0.1921
22710W        W40234  16.133  15.246   1.991 -0.0659 -0.0738  0.0179
22711W        W40235   4.353  10.599   4.773 -0.3752 -0.0818 -0.0474
22712W        W40236   4.522  10.056  15.520 -0.1058 -0.2281  0.5654
22713W        W40237   2.857   3.271   2.270  0.2154 -0.0680 -0.0156
22714W        W40238   6.076   7.072   3.589  0.1333 -0.0964 -0.1066
22715W        W40239  15.980  13.653   2.425 -0.2423  0.1550 -0.0280
22716W        W40240  15.900  10.858   1.694  0.1186  0.0717 -0.3144
22717W        W40241  15.300   7.972  13.825  0.0815  0.1117 -0.1697
22718W        W40242  17.330   0.500   2.550 -0.0797 -0.1859 -0.2686
22719W        W40243   0.631   9.705   1.460  0.3275 -0.0854  0.3620
22720W        W40244   7.717   8.816   3.941 -0.2512 -0.2877  0.0735
22721W        W40245   0.439  16.372   2.816 -0.1387 -0.0826 -0.2510
22722W        W40246   0.040  14.624   2.207 -0.0009 -0.1104 -0.0655
22723W        W40247  17.315   0.132   4.148 -0.0483  0.1642 -0.2574
22724W        W40248   7.697   4.687   0.559  0.0653  0.0958 -0.0006
22725W        W40249  16.589   7.383  13.421 -0.0995  0.2386 -0.1437
22726W        W40250   8.149  10.067  15.907 -0.2290  0.1237  0.1004
22727W        W40251  10.860   0.570  11.946  0.1570  0.1568  0.0429
22728W        W40252  16.804   0.255  12.384  0.1896 -0.1533  0.0139
22729W        W40253  11.368   0.328  12.601 -0.0991 -0.0289  0.1358
22730W        W40254  15.816   9.640  15.995  0.0840 -0.0694 -0.1897
22731W        W40255  11.250   7.183   3.820  0.2281  0.2504  0.1589
22732W        W40256   3.321  11.468   3.068 -0.3886 -0.1001  0.0546
22733W        W40257   6.983   0.544   1.580 -0.0741 -0.0718 -0.0859
22734W        W40258  11.121  12.525  11.502  0.0261 -0.0966  0.1232
22735W        W40259   4.625   4.691  11.724 -0.1125 -0.2253  0.0003
22736W        W40260   1.961   4.016   5.062 -0.2952 -0.0107  0.0870
22737W        W40261   1.756   8.110   2.117 -0.0726 -0.2585 -0.3971
22738W        W40262  11.401  13.316  10.268 -0.1360 -0.1781  0.0810
22739W        W40263  10.501  14.278  11.873  0.3957  0.0866 -0.0151
22740W        W40264   7.005   8.647   2.299 -0.1378 -0.0010  0.1119
22741W        W40265   2.670  13.277  15.701  0.2754  0.2700 -0.0459
22742W        W40266  14.175  14.902   4.729 -0.0331 -0.2828  0.1341
22743W        W40267   9.723   2.047   3.499  0.2262 -0.1623 -0.0426
22744W        W40268  11.059  14.925   2.579  0.0929  0.0531 -0.0614
22745W        W40269  14.590   4.296   3.807  0.0566 -0.1700  0.1004
22746W        W40270  15.934  14.379  11.082  0.0417  0.0016 -0.0674
22747W        W40271   1.044   8.574  14.658 -0.1757  0.0522 -0.0379
22748W        W40272  10.486  15.518  13.615 -0.0846 -0.0527  0.0113
22749W        W40273   5.231   5.402  11.490 -0.1059  0.1411 -0.1411
22750W        W40274  13.130   0.116  13.116  0.0501  0.0177  0.0549
22751W        W40275   3.171  11.554   1.718 -0.1117 -0.0200  0.2141
22752W        W40276  15.032  11.028  15.116  0.0079  0.1527 -0.2434
22753W        W40277   9.340  10.457  12.719 -0.2883  0.0660  0.2083
22754W        W40278   4.459   0.271  12.214 -0.1783 -0.0825 -0.1344
22755W        W40279  17.522   3.028   3.365  0.0049 -0.3464 -0.2423
22756W        W40280  12.480  16.664  14.237  0.1441  0.1269 -0.0528
22757W        W40281   6.809   3.111   2.183 -0.3292  0.0928 -0.2166
22758W        W40282  12.794   8.952  14.269  0.0955 -0.0177  0.1219
22759W        W40283  11.032  13.264   3.783 -0.3541 -0.0747  0.2174
22760W        W40284   3.796  12.311  14.553  0.2146  0.0905 -0.0956
22761W        W40285  16.245  13.459  15.676  0.1446 -0.1167  0.1541
22762W        W40286   3.864  11.778  15.840 -0.0782  0.1270  0.2059
22763W        W40287   6.286  16.003  11.187  0.0573  0.0506 -0.0035
22764W        W40288  12.875  13.595   2.030  0.2457  0.1491 -0.1181
22765W        W40289  17.352  17.265   1.028  0.1028  0.0311  0.1343
22766W        W40290   7.823   6.925   3.540 -0.1175 -0.1404 -0.1217
22767W        W40291  10.881  16.205  13.212  0.0338  0.0675  0.1963
22768W        W40292  10.235   6.956   1.362 -0.2134 -0.2430 -0.1398
22769W        W40293  13.650   5.996  15.623  0.1496 -0.3891 -0.0120
22770W        W40294   9.300   4.058   2.555 -0.1426  0.1266 -0.2807
22771W        W40295  12.566  17.835  13.696  0.1466 -0.3660  0.0473
22772W        W40296   4.542   2.764   4.859 -0.1741 -0.0781  0.0223
22773W        W40297   2.487   2.549  13.932 -0.0650  0.2194  0.0174
22774W        W40298  12.844   1.249  11.009  0.0013 -0.1734 -0.1143
22775W        W40299   8.657  16.819   3.317  0.0059  0.2609  0.1920
22776W        W40300   9.584  13.967  13.405  0.0492  0.0914  0.0842
22777W        W40301   0.074   8.804  14.648 -0.0187  0.1526 -0.0586
22778W        W40302  14.865  16.512  14.130  0.1985 -0.4039 -0.1541
22779W        W40303  14.948   2.989  12.627  0.1708 -0.1291 -0.1240
22780W        W40304  12.068  16.350   1.767 -0.2675  0.0779  0.0036
22781W        W40305  17.908  17.478  12.290  0.2915  0.1692  0.2993
22782W        W40306  15.595   8.380   4.877  0.0852 -0.0184  0.2621
22783W        W40307  16.188   0.583   4.600  0.2263 -0.2144  0.1461
22784W        W40308  11.956  17.935  13.214 -0.1354  0.1866  0.0501
22785W        W40309   5.338   1.811  13.074  0.0495 -0.1098  0.4101
22786W        W40310  16.994   4.109   2.023  0.0161  0.3832  0.2235
22787W        W40311  10.057  11.166  15.775 -0.0372  0.0177  0.4564
22788W        W40312   1.112   7.900  14.565 -0.1833  0.1967  0.2735
22789W        W40313   6.119   4.432  15.077 -0.4184 -0.0337 -0.1553
22790W        W40314   2.661  11.909   3.932 -0.3582 -0.2887 -0.0277
22791W        W40315   1.505  13.638  16.040 -0.1635 -0.1417  0.0933
22792W        W40316   4.948  11.220   0.519  0.4307  0.0628 -0.1602
22793W        W40317   2.837   0.540  14.261  0.1695  0.5664 -0.2524
22794W        W40318   1.170  15.108  11.226  0.0262  0.1248  0.4549
22795W        W40319  14.545   5.438   0.449 -0.1167 -0.2076 -0.0733
22796W        W40320   8.522   3.752  12.460  0.0802  0.1171 -0.1431
22797W        W40321   5.996   2.735  14.490 -0.1486 -0.2282 -0.0481
22798W        W40322   4.642   3.716   3.341  0.2631  0.0951  0.2135
22799W        W40323  13.798   8.243  15.252 -0.1282 -0.0399 -0.0850
22800W        W40324   4.636   2.117  13.618  0.2776  0.0979  0.3707
22801W        W40325  14.579   4.162   2.660  0.1496  0.4138 -0.2072
22802W        W40326   1.478  14.901  15.690 -0.1665  0.1606 -0.1459
22803W        W40327  17.568   6.806   5.745  0.1557  0.2181 -0.0139
22804W        W40328   7.721   8.533   0.795  0.5014 -0.1796  0.0572
22805W        W40329   6.265   7.049  12.692  0.1925  0.1673  0.1500
22806W        W40330   2.802   3.905  13.004  0.0365  0.0410  0.1056
22807W        W40331  17.263   3.341   0.900 -0.2548  0.0525 -0.1756
22808W        W40332   8.797   4.019   2.491  0.0646  0.3264  0.1091
22809W        W40333  11.021   6.761   3.956 -0.0131 -0.3519 -0.0639
22810W        W40334   8.183  15.578   0.219 -0.2335 -0.4300 -0.1176
22811W        W40335  16.212  11.004   2.059  0.1185 -0.3750 -0.3511
22812W        W40336  10.154   4.419  14.568  0.5991 -0.0091 -0.0548
22813W        W40337   5.238   8.076  12.680 -0.1017  0.1180 -0.1020
22814W        W40338   6.530   8.006  11.080 -0.0973  0.3092 -0.2189
22815W        W40339  16.346   0.120  12.080 -0.1057 -0.2047  0.2155
22816W        W40340  17.394   8.265  15.615 -0.0492  0.0505 -0.0907
22817W        W40341  16.899  15.726   4.317  0.1630 -0.0492 -0.0818
22818W        W40342  12.531   6.053   6.075 -0.1524 -0.2919 -0.2969
22819W        W40343  11.866  11.934   5.464  0.2185  0.0522  0.0193
22820W        W40344   8.229   6.038  15.845 -0.0135 -0.0022 -0.2926
22821W        W40345   1.494   9.608  13.555  0.1608 -0.2537  0.2097
22822W        W40346  18.147   7.825   3.604  0.0231 -0.0106 -0.0318
22823W        W40347  12.941   7.366   3.674 -0.2311  0.0895 -0.0851
22824W        W40348   4.355  17.463  16.031 -0.0000  0.1205 -0.2277
22825W        W40349  11.800  10.393  12.447  0.1554  0.0949  0.0243
22826W        W40350  16.293   7.252  13.829 -0.0406  0.1206 -0.7006
22827W        W40351  10.572   8.407  14.415  0.1415  0.3552  0.1434
22828W        W40352  16.221   9.233   3.038 -0.0175 -0.1704 -0.1023
22829W        W40353  11.912   5.427  15.313 -0.1623  0.2048 -0.1544
22830W        W40354   6.262   2.433   1.915 -0.1464  0.1133  0.1267
22831W        W40355   8.406   9.523   1.858  0.0146  0.0432  0.2331
22832W        W40356  10.675   3.889  11.763  0.0428 -0.3909  0.2121
22833W        W40357  11.867   9.172   2.359 -0.0942  0.0632 -0.0498
22834W        W40358  14.100   7.771   1.638  0.3609 -0.2616  0.2288
22835W        W40359  12.872   4.030   3.374 -0.2142  0.2768  0.0811
22836W        W40360   3.026  11.843  14.254 -0.1843  0.1326 -0.3413
22837W        W40361   0.130   2.938   3.287 -0.0721 -0.0366  0.4099
22838W        W40362  15.837  13.982   0.060  0.0382 -0.2799  0.0839
22839W        W40363  17.171   3.486  11.722  0.1680 -0.2144 -0.1592
22840W        W40364   7.515   3.730  15.244  0.0117  0.0279 -0.0789
22841W        W40365   1.200   1.613  13.097 -0.0612 -0.0794 -0.1865
22842W        W40366   8.196   7.237   1.895  0.1729 -0.1429 -0.0551
22843W        W40367   7.080   0.313  14.315  0.0386 -0.1516 -0.0880
22844W        W40368   6.178   9.200  14.280 -0.1599 -0.2361 -0.2365
22845W        W40369   9.578  18.002  11.996  0.1474  0.2074  0.1446
22846W        W40370  17.438  10.797   1.669  0.1003  0.0378  0.0011
22847W        W40371   5.320  17.966  14.379  0.2541  0.0616  0.1742
22848W        W40372  16.278   7.680   1.877 -0.1464 -0.1381  0.1305
22849W        W40373   1.613   0.704  13.853  0.0360 -0.1189  0.0448
22850W        W40374   5.156  11.823  12.221  0.2601 -0.0977  0.1357
22851W        W40375  14.059   9.085  10.429 -0.0745 -0.0002  0.1527
22852W        W40376   8.824  14.090   0.361 -0.0345 -0.0936 -0.1375
22853W        W40377   0.166   8.074   1.507  0.0832  0.1240 -0.2171
22854W        W40378   6.037  14.155  15.520 -0.0017  0.0909  0.2321
22855W        W40379   7.786   5.687  13.891 -0.1146  0.0123 -0.0043
22856W        W40380   5.366   4.353  12.612 -0.2237 -0.2055 -0.1060
22857W        W40381  17.451   2.350   3.276 -0.0591  0.1253 -0.1559
22858W        W40382  12.356   6.575  15.433 -0.0825 -0.0462  0.1274
22859W        W40383  14.536   4.218  10.587 -0.2366  0.1678 -0.2467
22860W        W40384  11.404   0.242   1.490 -0.0130  0.2472 -0.0446
22861W        W40385  13.253   4.623  11.502 -0.1019 -0.1775  0.1477
22862W        W40386  11.004   5.739  12.644 -0.1470 -0.1727  0.3010
22863W        W40387   1.999  17.154  15.604 -0.4185  0.1724 -0.2103
22864W        W40388  10.753   7.857  11.992 -0.2909 -0.1669  0.1093
22865W        W40389  13.431  16.900   3.852  0.0508  0.3403 -0.1113
22866W        W40390  10.629   8.147   2.666  0.4161  0.1162 -0.1894
22867W        W40391   1.617  13.318  14.126  0.3553 -0.1794 -0.0535
22868W        W40392   4.619  13.206   3.497  0.1768 -0.1081 -0.0757
22869W        W40393   4.296   2.972  13.173 -0.1013 -0.0150  0.0640
22870W        W40394  13.497  11.546   2.086 -0.0297 -0.1412 -0.2236
22871W        W40395   0.367  12.811   5.846 -0.3309 -0.0490 -0.3677
22872W        W40396  11.377   8.254  11.589  0.1004  0.0543  0.2204
22873W        W40397  16.864  16.226   4.413 -0.0694  0.2286 -0.2091
22874W        W40398  11.020  14.761   2.082  0.3371  0.2473 -0.1375
22875W        W40399  11.456   4.029  11.734 -0.0244 -0.2447  0.0147
22876W        W40400  15.160  13.339   1.832 -0.1509 -0.0867  0.0892
22877W        W40401   6.850  11.169   1.932  0.1149 -0.3221 -0.0131
22878W        W40402  15.395   6.564  15.238 -0.3309  0.0004 -0.2909
22879W        W40403   6.479  14.766   2.248  0.3439  0.0057 -0.3830
22880W        W40404   9.057   4.907  13.942  0.2375 -0.1823  0.0079
22881W        W40405   0.906   5.756  10.683 -0.0351 -0.0829 -0.0935
22882W        W40406   1.670   4.363  15.941 -0.0621 -0.0027  0.0957
22883W        W40407  15.961  17.489  12.549  0.3835 -0.0916 -0.0641
22884W        W40408   8.137  10.331  14.080  0.2264 -0.0078  0.1463
22885W        W40409  10.371  18.034  13.827  0.2451 -0.2833  0.1991
22886W        W40410  12.723   7.733  11.148 -0.0405 -0.1658  0.2753
22887W        W40411  15.003   4.656  13.709 -0.0134  0.0677 -0.2251
22888W        W40412   9.541  13.448  13.299  0.1097  0.0313  0.0306
22889W        W40413   2.262  11.836  12.090 -0.0647 -0.1716 -0.3406
22890W        W40414  15.865   4.441  13.904 -0.0462  0.0594 -0.2135
22891W        W40415   2.911   1.875   2.499  0.0320  0.0672  0.3919
22892W        W40416   8.227   5.025  11.990 -0.0685 -0.0512 -0.3074
22893W        W40417   9.603  13.474  12.805  0.0416 -0.3215  0.2829
22894W        W40418   4.221  11.481  14.824  0.1735  0.1057  0.2590
22895W        W40419  10.528   8.740  13.845 -0.0600 -0.4703  0.0978
22896W        W40420  12.914   4.686   4.021 -0.3613  0.4400 -0.3759
22897W        W40421  13.090   8.877  15.972  0.1126  0.1872  0.0395
22898W        W40422   3.267  11.276   5.001 -0.0394 -0.2367 -0.2464
22899W        W40423  12.354   5.474  15.561 -0.2788  0.0750  0.3011
22900W        W40424   7.240  15.007   1.035 -0.0296 -0.2044  0.1337
22901W        W40425  11.200  11.725  10.849  0.0381 -0.0270 -0.0164
22902W        W40426   8.437   7.953   2.490  0.1395 -0.0395 -0.1393
22903W        W40427   0.022   0.055   4.125  0.3077  0.1202 -0.1666
22904W        W40428   0.655   6.248  12.884 -0.0430 -0.0394  0.0842
22905W        W40429  12.159   9.785   5.050 -0.4045  0.0263 -0.0482
22906W        W40430   2.996   3.271   0.738  0.1776 -0.2542  0.0621
22907W        W40431   8.544  10.539  13.989 -0.3898 -0.1372 -0.0405
22908W        W40432   6.104   7.340   3.190 -0.2435  0.0029  0.1083
22909W        W40433   9.143  16.243   2.461 -0.0350  0.4998  0.0964
22910W        W40434   8.757  16.821   1.516  0.0424  0.2250 -0.6106
22911W        W40435   2.578   9.136  13.496  0.0783  0.2331 -0.0431
22912W        W40436  14.879  12.324   2.658  0.2415 -0.1280  0.2264
22913W        W40437   5.184   2.651  13.600  0.1894 -0.1959  0.1982
22914W        W40438  12.904  14.221   1.678 -0.1176  0.1186  0.1186
22915W        W40439   4.317  12.200   1.196 -0.0847 -0.0179 -0.0150
22916W        W40440   1.014   3.844  14.788 -0.1849  0.5228  0.0722
22917W        W40441   5.150  14.051  13.773 -0.1801  0.3256 -0.1181
22918W        W40442  12.215  10.870  14.154 -0.1721 -0.2842  0.3913
22919W        W40443   8.951  10.505   2.918 -0.0418  0.0650 -0.2093
22920W        W40444   5.512  10.751   1.916 -0.1937  0.0740  0.0395
22921W        W40445   7.417   4.679  13.193  0.0627 -0.2998 -0.2620
22922W        W40446  11.295   9.706  11.737 -0.1902  0.1268 -0.1062
22923W        W40447  18.168   6.134  15.468 -0.1162 -0.0663  0.2280
22924W        W40448  12.938  15.477   0.435 -0.0477 -0.1296  0.0707
22925W        W40449  14.851  11.357  11.711  0.0531 -0.2079 -0.0690
22926W        W40450  10.685   8.627   4.129  0.2992 -0.0777 -0.0560
22927W        W40451  17.127   0.075   0.291 -0.0586  0.2049 -0.1387
22928W        W40452   8.572  11.987   2.930 -0.0491 -0.1737  0.5799
22929W        W40453   3.322  15.160   1.387  0.1686  0.3260 -0.1909
22930W        W40454  13.093  12.360   1.200  0.3295 -0.1890 -0.0073
22931W        W40455   9.858  16.303  12.622  0.1532  0.0325 -0.1299
22932W        W40456   5.043  17.852  11.317  0.2066 -0.0972 -0.0797
22933W        W40457  16.057  16.087  12.043 -0.1976 -0.1690 -0.1013
22934W        W40458   0.837  17.517  13.836  0.2263 -0.1774 -0.1692
22935W        W40459   7.796  15.368   4.034 -0.0404  0.1227  0.0008
22936W        W40460   0.531  16.278  12.295 -0.1169 -0.1870 -0.0321
22937W        W40461   5.303  18.178   2.919 -0.1615 -0.4412 -0.0304
22938W        W40462  15.271   1.541   1.939 -0.3278 -0.0222  0.0291
22939W        W40463   0.130   3.668  14.566 -0.0236  0.0449  0.0562
22940W        W40464  11.419   8.950  13.317 -0.0836  0.2212  0.0978
22941W        W40465  10.187  14.700   2.020  0.0175  0.1121 -0.1455
22942W        W40466   5.334   8.935  11.535  0.0718  0.0020 -0.0554
22943W        W40467   7.170   2.700   2.178  0.4120  0.2196  0.1074
22944W        W40468   2.278  12.658  11.166 -0.0989  0.1809  0.3453
22945W        W40469  11.594  13.685   0.337  0.0289  0.3552 -0.0722
22946W        W40470  11.438   0.907   1.876 -0.1417 -0.1503 -0.0052
22947W        W40471   2.845   8.449  11.360 -0.0442 -0.2308 -0.0499
22948W        W40472  14.746  12.658   5.123  0.0466 -0.0909 -0.0086
22949W        W40473   8.188   8.987   2.576 -0.0913  0.0963  0.1241
22950W        W40474   6.992  15.165   1.491  0.0649  0.0892 -0.1087
22951W        W40475   1.226  16.138  13.212  0.2525 -0.2206 -0.2362
22952W        W40476  12.266   0.846   2.077 -0.0377 -0.3974 -0.0374
22953W        W40477  16.305   3.003   0.065  0.1978  0.3341  0.1354
22954W        W40478  14.463   4.096  14.122  0.0771 -0.0526 -0.1878
22955W        W40479   1.130  12.247   3.886  0.4153  0.1093  0.0120
22956W        W40480   5.337   8.624   4.517 -0.2874  0.1474  0.0355
22957W        W40481   0.337  14.022  15.323  0.0173  0.3475  0.0819
22958W        W40482  15.667  15.861  10.365 -0.0122  0.1877 -0.1545
22959W        W40483   8.691  13.175  15.793  0.4073  0.1399 -0.0666
22960W        W40484   5.916   4.078   1.745 -0.3802  0.2509  0.0033
22961W        W40485   9.536   9.136   4.249  0.0424 -0.1468  0.1645
22962W        W40486  11.890   5.108   2.104  0.2019  0.1759 -0.1023
22963W        W40487   1.104  10.179   2.219 -0.0181 -0.1411  0.1796
22964W        W40488   9.759  16.366   4.251  0.3399  0.1160  0.2057
22965W        W40489   1.223   0.486   4.789  0.1460 -0.0034 -0.2045
22966W        W40490   7.292   0.460  12.098 -0.0255  0.0165  0.3331
22967W        W40491  11.453   8.884  12.378 -0.0743 -0.1600  0.0271
22968W        W40492   2.062   8.642  15.835 -0.2644  0.0677 -0.3112
22969W        W40493  10.358   9.330   3.561 -0.0304  0.0419 -0.0203
22970W        W40494   6.124   0.286   3.221  0.0511  0.2769 -0.0825
22971W        W40495   2.202  16.466  12.224 -0.2368 -0.0598  0.4495
22972W        W40496  17.179   4.876  11.606  0.1057  0.0924 -0.2097
22973W        W40497   7.863   4.782  12.479  0.0613  0.3445  0.0132
22974W        W40498   0.162   2.711   0.968  0.0863 -0.0317 -0.1236
22975W        W40499   9.562  12.832   0.378 -0.2048  0.0149 -0.0216
22976W        W40500   5.948   8.531   2.617 -0.1997 -0.1015 -0.0204
22977W        W40501  15.406   2.618  12.594 -0.4191  0.0487 -0.1755
22978W        W40502   3.932   1.764   2.172  0.1471 -0.1269  0.3204
22979W        W40503  14.594   3.948  11.688  0.0780  0.2599  0.3983
22980W        W40504   9.822   6.920   1.062 -0.0538 -0.1912  0.0207
22981W        W40505   0.934   9.038   5.145  0.0253 -0.2080 -0.0035
22982W        W40506   5.857   3.018   0.219  0.2092  0.1991 -0.0561
22983W        W40507   7.468  17.330   4.450 -0.2323  0.0519 -0.2605
22984W        W40508  16.616   9.917  12.707  0.2875  0.0247 -0.0727
22985W        W40509  12.786  18.057   3.006 -0.0900  0.3526 -0.2037
22986W        W40510  18.101   9.527  15.505 -0.1948 -0.1353  0.3833
22987W        W40511  10.171   3.672  12.391 -0.0321 -0.0250 -0.2617
22988W        W40512   5.361   6.525   0.938 -0.2164 -0.1254 -0.0933
22989W        W40513  17.006  11.234  12.821  0.2133 -0.0036  0.0373
22990W        W40514   9.256   4.763  11.107  0.0089 -0.2242 -0.0579
22991W        W40515  14.532  11.251   1.841 -0.1579  0.0152  0.3070
22992W        W40516   3.647   3.920  15.383 -0.0028  0.1733 -0.0767
22993W        W40517   3.540  14.516  11.417  0.1664 -0.1842  0.0237
22994W        W40518   0.268  12.740  13.229 -0.3374  0.1985  0.1309
22995W        W40519  11.321   6.519   4.729 -0.0754 -0.0546  0.1553
22996W        W40520  17.959  16.098  11.862 -0.0550  0.1150 -0.2482
22997W        W40521  14.031   2.247   0.475 -0.2463 -0.0306  0.1202
22998W        W40522   3.562   3.055  15.656 -0.1527  0.1424  0.0539
22999W        W40523   6.108   2.148   3.266 -0.1341  0.2267 -0.1048
23000W        W40524   0.769   1.040  13.876 -0.1698 -0.1203  0.1691
23001W        W40525   6.835  10.974   4.498  0.1206  0.0551  0.1739
23002W        W40526   5.033   5.188  14.278 -0.1174  0.0282  0.2115
23003W        W40527  15.853   0.052  15.854  0.3344  0.4690 -0.0394
23004W        W40528   9.054   0.094   1.239  0.1014  0.1175 -0.0782
23005W        W40529   0.094   6.433   2.323  0.2053 -0.2789 -0.1497
23006W        W40530  12.322   0.672   1.538  0.0944  0.1073  0.0984
23007W        W40531   1.942  11.839  14.381 -0.0322 -0.0131 -0.1326
23008W        W40532  13.829  13.944  12.896 -0.1058 -0.1413  0.1449
23009W        W40533  11.083   7.963   2.511 -0.2790  0.1072  0.0458
23010W        W40534   4.205  14.878   4.082 -0.0189  0.0686 -0.1116
23011W        W40535  14.463   8.974  15.931 -0.0270  0.1168  0.0953
23012W        W40536  16.738  11.089  13.302 -0.1180 -0.0128  0.1638
23013W        W40537   5.990   9.925   2.518 -0.0227  0.0440  0.0533
23014W        W40538  11.972   4.818  15.618  0.1766  0.0580 -0.0741
23015W        W40539   9.176  10.511   2.148  0.1676 -0.3248  0.2585
23016W        W40540   4.919  11.861  14.149 -0.1909 -0.2561 -0.0471
23017W        W40541  17.781  13.335  15.109  0.2523 -0.0030 -0.0212
23018W        W40542  14.306   2.933   1.166  0.2214 -0.0741  0.1544
23019W        W40543   3.891  17.894   1.210 -0.1644 -0.0933  0.0029
23020W        W40544  11.754   4.935   3.040  0.1544  0.0058 -0.0618
23021W        W40545   2.290   0.079   3.317 -0.1227  0.4216  0.1574
23022W        W40546  12.352   2.283  14.961 -0.0839 -0.0298 -0.1028
23023W        W40547  12.279   5.736  14.132 -0.1652 -0.0042  0.0610
23024W        W40548   7.056   2.959  13.743  0.2543 -0.3900  0.1683
23025W        W40549   7.094  16.476   4.208  0.0001 -0.2229  0.0558
23026W        W40550  11.098   0.265   0.465  0.0170 -0.2736 -0.0573
23027W        W40551   6.277  17.381   1.597  0.0805  0.0913  0.0744
23028W        W40552  11.581   4.442   0.920  0.0068  0.0107  0.4490
23029W        W40553   8.040   0.349  14.038  0.0922 -0.0815 -0.0228
23030W        W40554  11.708  16.677   4.202  0.0789  0.2178  0.0161
23031W        W40555  14.335   4.599  14.987  0.0717 -0.0380  0.2722
23032W        W40556   1.480   9.956   1.986 -0.0618  0.1910  0.1209
23033W        W40557   6.992  13.062   5.649 -0.3151  0.1952 -0.3210
23034W        W40558   6.739  14.112   4.032 -0.0509  0.1894 -0.0172
23035W        W40559   7.294  11.884   3.159  0.0924  0.1669  0.3973
23036W        W40560   3.268   6.502  13.410 -0.1870 -0.0542  0.0691
23037W        W40561  13.018   8.527   3.111 -0.1448 -0.2407 -0.0355
23038W        W40562   0.665   7.846   4.259  0.0522  0.1951 -0.1902
23039W        W40563   0.471  17.737   2.490 -0.1026  0.2172  0.3403
23040W        W40564  10.452   3.970   1.953 -0.0095  0.0003 -0.1099
23041W        W40565  10.097   4.271  15.087 -0.0633  0.1604 -0.2853
23042W        W40566   0.623   8.412  14.326 -0.0555 -0.1112  0.0551
23043W        W40567   6.483   4.192  12.974 -0.1831  0.3473  0.1416
23044W        W40568   5.157  14.963   3.448 -0.0581  0.0287 -0.0247
23045W        W40569   8.376   0.088  15.919  0.2121 -0.1199  0.0100
23046W        W40570  10.826  15.877  12.771 -0.3075  0.0838 -0.2471
23047W        W40571   7.910   8.956  14.195  0.3284 -0.1643 -0.0527
23048W        W40572  11.447   7.542  14.025  0.2264  0.2230  0.1833
23049W        W40573  15.116   8.563   5.100  0.0213 -0.3226  0.3597
23050W        W40574   5.637   5.264  13.436  0.2930  0.2937  0.2559
23051W        W40575   1.334   4.017  15.809 -0.0326 -0.1331  0.0065
23052W        W40576   0.829  15.991  13.723 -0.0105 -0.1393 -0.3042
23053W        W40577   8.025   3.188  13.229 -0.2696  0.0220  0.0408
23054W        W40578  17.715  14.522  15.247 -0.0111  0.0077 -0.1514
23055W        W40579   0.587  12.424   1.682  0.0040  0.1234 -0.0186
23056W        W40580  10.110  10.843  14.242 -0.0259  0.2802 -0.0636
23057W        W40581  14.439  14.070  15.426 -0.0266  0.0030  0.0486
23058W        W40582   2.937   0.794  11.750 -0.1378 -0.0583 -0.0870
23059W        W40583   3.269  11.632  15.129 -0.2436 -0.2810 -0.1321
23060W        W40584  10.156  13.301   1.782 -0.0423  0.2855  0.1640
23061W        W40585  12.897  12.975  11.521  0.3779  0.4256  0.2038
23062W        W40586   1.486   2.401  12.477 -0.0645 -0.2565 -0.0962
23063W        W40587  17.232  14.417  12.758  0.4547 -0.3456 -0.1224
23064W        W40588   8.901  12.081   2.512 -0.2559  0.2333  0.1444
23065W        W40589   5.804   6.411  11.390  0.1480  0.1784 -0.2624
23066W        W40590   5.669  17.134  14.520 -0.2478 -0.0416  0.1888
23067W        W40591   5.576  11.541   3.587  0.0401  0.0481  0.0466
23068W        W40592   8.866   0.559  14.543 -0.0379 -0.5886 -0.1714
23069W        W40593  15.061  17.681   4.587 -0.0566 -0.1540 -0.0881
23070W        W40594   5.737   6.919  11.471 -0.2682 -0.4115 -0.0718
23071W        W40595   7.853  18.109   3.204  0.0194  0.0563  0.0977
23072W        W40596  18.156  14.565   4.319  0.0539 -0.3431  0.0358
23073W        W40597   0.536   5.527   2.010 -0.1333  0.0648  0.2915
23074W        W40598  14.357   9.419  13.373 -0.2054  0.1780 -0.0309
23075W        W40599   9.181   9.338  10.894  0.0467  0.3997  0.0135
23076W        W40600  16.622   7.283   1.510  0.3725  0.4402 -0.2728
23077W        W40601   8.919   2.843  15.963  0.4495 -0.1577  0.1026
23078W        W40602   7.755  16.802   1.078 -0.1635  0.0148 -0.2979
23079W        W40603   1.672  13.717  13.253  0.0210  0.2565  0.2783
23080W        W40604   0.888  15.077  12.499  0.1544  0.1638  0.0442
23081W        W40605  17.767  16.534   6.100  0.1664  0.0646  0.1359
23082W        W40606   2.275   7.733   1.570 -0.0832  0.0077  0.1822
23083W        W40607  12.076  14.145   4.681 -0.3551 -0.1655  0.0562
23084W        W40608   9.220   0.086  14.153 -0.1588  0.1566  0.3322
23085W        W40609  17.512   6.464   5.352  0.0291  0.3328 -0.1322
23086W        W40610   0.802   0.606  11.200  0.1828  0.1003  0.0690
23087W        W40611   9.144  10.417   0.539  0.0699 -0.0966 -0.1305
23088W        W40612  17.489   0.395   1.502  0.0003 -0.4339 -0.0700
23089W        W40613   2.037  12.185  13.950  0.1120 -0.1367 -0.0411
23090W        W40614   5.071   5.923   2.457 -0.0811 -0.2960 -0.2084
23091W        W40615   6.349  12.790   4.936  0.1765  0.2923  0.4411
23092W        W40616  13.031   8.568  14.622  0.2208  0.2732 -0.0120
23093W        W40617  14.491   3.455  11.962 -0.4560 -0.1772 -0.3156
23094W        W40618   6.617   0.469   1.150  0.3403  0.2044  0.0336
23095W        W40619  17.972  15.854  12.400 -0.0302  0.1124 -0.1448
23096W        W40620   9.355  15.025   2.416  0.1884  0.4086 -0.2346
23097W        W40621   1.229   6.670   1.010  0.2099  0.0791  0.0764
23098W        W40622   8.682   8.532  15.132  0.3632  0.0188 -0.1548
23099W        W40623   0.898  17.488  13.292 -0.1924  0.0425  0.3656
23100W        W40624   0.763   4.885   1.002  0.1630 -0.4013  0.4445
23101W        W40625  12.935   4.469   0.354  0.2678 -0.0957  0.1474
23102W        W40626  11.084   0.570   1.110 -0.2775  0.0548 -0.0873
23103W        W40627   6.949   5.539   0.060  0.2570  0.0729  0.0340
23104W        W40628   4.733  10.142   3.406 -0.1140  0.1017 -0.2639
23105W        W40629  13.908   1.411   2.260  0.2044 -0.1058  0.1628
23106W        W40630  14.973   4.744   0.207  0.1438  0.2127 -0.2113
23107W        W40631   8.228   2.970  15.166 -0.1308  0.0260 -0.0148
23108W        W40632  17.812   5.584   4.501  0.0584 -0.0563  0.0185
23109W        W40633  12.687   7.924  14.324  0.2203 -0.0083 -0.1496
23110W        W40634  10.915  17.642   0.286  0.1095  0.2982  0.2001
23111W        W40635  15.183  16.989  15.589 -0.0821 -0.2677 -0.1204
23112W        W40636   1.636  16.150   3.009 -0.3439 -0.2655 -0.1609
23113W        W40637  12.153   4.112  11.482  0.1167 -0.0724  0.0375
23114W        W40638  18.050  15.337  14.761 -0.0388 -0.1417 -0.1899
23115W        W40639   3.000  17.831   1.388 -0.0131  0.1300  0.0948
23116W        W40640   7.412  15.274   4.449  0.0210 -0.1471  0.0286
23117W        W40641  13.411  14.433   0.569  0.1884  0.0901  0.1299
23118W        W40642   7.391   6.734   1.564 -0.1737 -0.1111 -0.2866
23119W        W40643   3.026   7.536   2.280 -0.0933  0.1589 -0.2237
23120W        W40644  18.042   3.398  14.130 -0.1881 -0.2643 -0.0797
23121W        W40645   4.016   1.131   3.068 -0.0518 -0.0216  0.0655
23122W        W40646  16.672  12.044  11.007  0.1326 -0.2448  0.1808
23123W        W40647   6.185  17.540  13.562  0.0933 -0.0236 -0.0399
23124W        W40648  17.922  14.739   3.138  0.0414 -0.1246  0.3292
23125W        W40649   4.262  13.054   3.771 -0.0812 -0.1817  0.1590
23126W        W40650   6.205   8.721   5.195  0.2900 -0.1434  0.1416
23127W        W40651   1.284  17.261  15.060 -0.1480  0.0729  0.0633
23128W        W40652   5.949   4.660  11.700 -0.0251 -0.2334 -0.1778
23129W        W40653   6.042  11.124   1.726 -0.1224  0.0009 -0.0826
23130W        W40654  11.884   8.456   0.296 -0.5737  0.1046  0.2943
23131W        W40655   4.989  11.839   0.060 -0.1933 -0.1644 -0.0073
23132W        W40656  16.455   5.460  11.464  0.1818  0.0315 -0.2238
23133W        W40657  17.121   7.471  15.208  0.1353  0.3418 -0.0183
23134W        W40658   4.408   4.437  12.196  0.4150 -0.1613  0.2046
23135W        W40659   3.404   4.557  15.967  0.1212 -0.1323  0.1049
23136W        W40660   7.925   8.228   2.111 -0.2885 -0.0163  0.1090
23137W        W40661  12.662  14.680  15.389  0.1577  0.0681 -0.0397
23138W        W40662  15.589   5.202  15.637 -0.1854 -0.3189 -0.1888
23139W        W40663   8.869   6.175  12.057 -0.1772 -0.3266 -0.1458
23140W        W40664  17.310   9.674  12.832 -0.0242  0.2949 -0.2133
23141W        W40665   6.016  13.594  11.100  0.0671 -0.0040  0.0995
23142W        W40666  14.810  15.220   3.067  0.1556  0.1282 -0.0762
23143W        W40667   6.154  16.799  12.390 -0.1457 -0.0285 -0.1133
23144W        W40668  15.716  12.183   2.632 -0.2178  0.0714 -0.1134
23145W        W40669   6.537   8.962  10.693  0.0114  0.2235  0.1838
23146W        W40670  10.194   9.247   0.524 -0.2539 -0.2719 -0.1164
23147W        W40671  10.101  14.591  12.613 -0.1155  0.1933 -0.3130
23148W        W40672  13.967  12.529  13.294 -0.3691 -0.0651  0.1174
23149W        W40673   1.626  13.315  13.546 -0.0853  0.3639 -0.3668
23150W        W40674   6.157  16.631  15.349 -0.0655 -0.0657  0.1228
23151W        W40675  13.878   6.671   1.245 -0.0822  0.1996  0.0566
23152W        W40676   3.830   7.445  10.350 -0.0936  0.1525 -0.0843
23153W        W40677   5.408   6.410   3.367  0.4209 -0.0053 -0.1995
23154W        W40678  10.325  15.828  14.059 -0.0708 -0.0420 -0.0800
23155W        W40679  14.907  14.355  13.469 -0.1052 -0.1194  0.0611
23156W        W40680   2.226   4.751   3.680 -0.0076 -0.1798 -0.1357
23157W        W40681   0.096  15.816  11.570  0.0002  0.0573  0.3820
23158W        W40682  13.942  15.634  12.493  0.2070  0.3411  0.2157
23159W        W40683   6.311   1.899  15.804  0.0175 -0.0479  0.1502
23160W        W40684   0.557   7.301   4.481  0.0348  0.0975 -0.1435
23161W        W40685  11.976   3.714   3.782  0.0841 -0.0819 -0.2825
23162W        W40686  15.877   4.515  15.676  0.0852 -0.1815  0.0929
23163W        W40687   0.166  17.819   4.396  0.0023 -0.0723  0.2859
23164W        W40688  18.009   5.113   4.710 -0.1631 -0.1370  0.0152
23165W        W40689  13.848   1.256   0.772  0.0530  0.1000 -0.1641
23166W        W40690  17.689  13.690  13.123 -0.0585  0.2261 -0.3414
23167W        W40691  11.670  14.380  12.289 -0.0364 -0.0210 -0.1787
23168W        W40692   5.645   3.463   2.120 -0.2165 -0.0666 -0.1633
23169W        W40693  18.159  11.099   4.302  0.3845  0.0560  0.6602
23170W        W40694  14.745   0.565  15.825 -0.1676  0.0333 -0.2711
23171W        W40695  17.759  14.111   1.713 -0.0785 -0.0358  0.3182
23172W        W40696  17.320  15.214  13.681  0.1958 -0.1353  0.2291
23173W        W40697  17.700   1.797  13.582  0.3263 -0.0761  0.2473
23174W        W40698  10.533  13.357  11.682  0.2421  0.2794  0.1923
23175W        W40699   7.858  16.431   1.625 -0.2583  0.3279 -0.0831
23176W        W40700  10.152   2.653  12.545 -0.0551 -0.0016  0.1975
23177W        W40701  10.949   3.336  15.688 -0.0037 -0.4577  0.2872
23178W        W40702  14.134   4.182  14.512 -0.1923  0.0725  0.3243
23179W        W40703   0.266  16.454   3.375  0.1092  0.1145  0.0397
23180W        W40704   6.286   5.237  11.193 -0.1099  0.0652  0.1221
23181W        W40705   3.822   6.953  15.952  0.1150  0.1540 -0.0277
23182W        W40706  16.463  12.769   0.237 -0.2634  0.0014 -0.0392
23183W        W40707   6.037  16.547   2.914 -0.1164 -0.3718  0.0078
23184W        W40708   9.930   3.398   5.315  0.0726 -0.1217  0.2553
23185W        W40709   2.848  15.889  15.382  0.1709  0.6628 -0.2022
23186W        W40710  14.057  16.333   4.515  0.0732 -0.0838 -0.0718
23187W        W40711   4.325   3.414   2.464 -0.1077  0.0432  0.2121
23188W        W40712  14.177   8.837   0.672  0.2334 -0.0641 -0.0641
23189W        W40713  14.300  12.241   4.407 -0.1384 -0.2724  0.0008
23190W        W40714  15.944  14.013  13.774 -0.1042 -0.3312 -0.0728
23191W        W40715   1.474   2.614  11.903 -0.0711 -0.0064 -0.1726
23192W        W40716  10.809   9.644  11.572 -0.1621  0.0714  0.0515
23193W        W40717   1.460  13.978  14.731 -0.2809 -0.3932  0.2197
23194W        W40718  10.699  16.806  11.878  0.0058  0.0165  0.1267
23195W        W40719   0.257  10.072   1.421 -0.2890 -0.2099  0.0131
23196W        W40720   0.814   4.023   2.893 -0.3771  0.1080  0.2517
23197W        W40721   8.541  17.043  15.687  0.1866 -0.0077 -0.2174
23198W        W40722   3.624   5.207  12.986 -0.0473 -0.3009 -0.0770
23199W        W40723   4.925  15.592   0.692 -0.0429 -0.1332 -0.1177
23200W        W40724   0.228  12.322  12.255 -0.0668 -0.0132 -0.0427
23201W        W40725  10.515  16.901   1.719  0.2491 -0.0719 -0.1555
23202W        W40726   9.763   7.921   3.144 -0.1714  0.0964  0.1332
23203W        W40727  15.534  15.067  15.256  0.0577 -0.1006 -0.0071
23204W        W40728   8.304   5.571  14.182 -0.0602  0.0885 -0.0853
23205W        W40729   7.656   6.890   0.526  0.0170 -0.6383  0.1111
23206W        W40730   1.508   7.547  14.655  0.3358 -0.1184  0.0375
23207W        W40731   5.002  15.325  13.989 -0.0420  0.2069 -0.2813
23208W        W40732  11.598  15.274   2.786 -0.2387 -0.3256  0.1093
23209W        W40733  13.368  16.010   1.232 -0.1326 -0.0312  0.3980
23210W        W40734  12.963  17.759   1.570 -0.1897 -0.0179 -0.1961
23211W        W40735   5.325  14.773  10.924  0.2867  0.1448 -0.1611
23212W        W40736  11.179  16.865   0.027  0.2148 -0.0278  0.1797
23213W        W40737  17.358   4.957  13.083  0.0249  0.0969 -0.1503
23214W        W40738   6.868   4.517   0.455  0.1257  0.1266 -0.2501
23215W        W40739   6.830   8.371  13.861 -0.0491  0.1624  0.0142
23216W        W40740   6.074   5.987  11.497 -0.1609  0.3281 -0.0676
23217W        W40741  14.434   3.472  14.810 -0.0344 -0.0811 -0.2476
23218W        W40742   4.700  17.109   3.306  0.0034  0.1697  0.0691
23219W        W40743   6.072   3.585   4.259 -0.0611 -0.3459  0.1580
23220W        W40744  11.452  15.699  12.470  0.0871 -0.0093  0.0572
23221W        W40745   9.803   0.140  12.321  0.1680 -0.3519 -0.1753
23222W        W40746   4.219   8.744  12.935  0.0454 -0.2078  0.1568
23223W        W40747   9.299   7.895   3.406 -0.4272 -0.0933  0.2013
23224W        W40748   6.983   5.254  12.871 -0.0881  0.0146 -0.2319
23225W        W40749  14.387  13.345   1.243 -0.2689 -0.0155 -0.0796
23226W        W40750  12.876   4.992  14.451  0.1319 -0.0248  0.1572
23227W        W40751   4.277   3.405   3.411  0.2464  0.0082 -0.3434
23228W        W40752  11.076   9.274   4.159 -0.0891 -0.1802  0.3128
23229W        W40753  12.924  12.727  15.122  0.1417  0.0167  0.3481
23230W        W40754  14.827   3.817   2.932 -0.1202 -0.4174 -0.1327
23231W        W40755  15.129   4.901  15.848 -0.0751 -0.0047 -0.0003
23232W        W40756  13.308   4.907  13.069  0.0289  0.4025  0.2152
23233W        W40757   7.539   9.547   4.620  0.2189  0.0108 -0.2115
23234W        W40758   5.322  15.617   5.074 -0.4419 -0.0801 -0.2327
23235W        W40759   2.064   9.113   9.846 -0.0181 -0.3405  0.0294
23236W        W40760   8.193   3.010  11.841 -0.0299 -0.0166  0.0474
23237W        W40761   2.694   2.010  13.365 -0.2239  0.2487 -0.3115
23238W        W40762  13.135  14.612   4.413  0.1382  0.1643  0.3675
23239W        W40763   8.259  13.389   2.810  0.0017 -0.1801 -0.0355
23240W        W40764  15.060  11.816  13.442  0.2472  0.1361 -0.2732
23241W        W40765   4.635  14.876   0.318 -0.0687 -0.0303  0.1737
23242W        W40766   4.826  12.538   0.208 -0.0516  0.2069  0.0173
23243W        W40767   6.502   6.358   0.531 -0.1786  0.0484 -0.0280
23244W        W40768  16.381   9.327   4.783 -0.0065  0.2090 -0.3533
23245W        W40769   9.836  17.731   0.947 -0.2761  0.1921  0.0882
23246W        W40770   0.118  17.896  12.130  0.1070 -0.0168 -0.0504
23247W        W40771   3.065   2.425  12.170 -0.0436 -0.0810 -0.3104
23248W        W40772  14.795  17.872  12.969  0.2128  0.1315  0.0194
23249W        W40773   1.726   0.924   3.716 -0.3089  0.0599 -0.0189
23250W        W40774   0.432   5.770   0.704  0.0653  0.0162 -0.0114
23251W        W40775  15.791   7.059   0.414  0.0287  0.1000 -0.4666
23252W        W40776  10.722   4.416   1.858  0.0813  0.0897 -0.1071
23253W        W40777  12.492  15.213  13.776 -0.0856 -0.0733 -0.1853
23254W        W40778  15.391  17.388   4.246  0.0324  0.2311 -0.1379
23255W        W40779   5.550   3.655  15.571  0.0924  0.2658 -0.1461
23256W        W40780  10.254  11.833   2.290  0.0568 -0.1485 -0.2316
23257W        W40781  12.950   7.576   2.168  0.0273  0.0326  0.1567
23258W        W40782  11.351   6.093   3.009 -0.0648 -0.0036 -0.0440
23259W        W40783   0.571   1.812  14.376 -0.1442  0.1869  0.2235
23260W        W40784  17.488   9.748   0.487 -0.0600 -0.2350  0.2395
23261W        W40785   6.738  12.518   3.527  0.2469 -0.0546  0.0721
23262W        W40786   1.288   4.268  10.425  0.2824 -0.0759  0.3232
23263W        W40787   5.424   4.841  12.984 -0.2206 -0.0847 -0.3761
23264W        W40788  14.780   7.925   1.223 -0.1601 -0.1277 -0.3514
23265W        W40789   2.627  14.043   4.870  0.0401  0.1500 -0.0372
23266W        W40790  11.029  13.979  11.638 -0.1320  0.0138  0.3383
23267W        W40791  16.847   5.671   4.249 -0.0122  0.0023  0.2548
23268W        W40792  11.963   2.236  11.602 -0.2982 -0.1087 -0.0446
23269W        W40793   1.057   5.870   0.719  0.2375 -0.1282 -0.0573
23270W        W40794  10.405  16.812   4.615 -0.2001 -0.2513  0.1736
23271W        W40795   9.593  12.163   3.009 -0.1075 -0.1131 -0.1011
23272W        W40796   2.011   7.369  13.952  0.0025  0.2560  0.1694
23273W        W40797  12.932  14.207   1.180 -0.2697 -0.0205  0.0225
23274W        W40798   8.731  11.445  16.044  0.1525 -0.0840 -0.1234
23275W        W40799   3.377   9.278   3.184 -0.3432 -0.1083  0.2131
23276W        W40800  15.731   7.224  12.601 -0.5448 -0.0621 -0.2354
23277W        W40801  17.511   9.506   4.502 -0.0039  0.0210 -0.1917
23278W        W40802   4.753   2.496  14.927 -0.2289 -0.2314  0.3829
23279W        W40803   9.389   8.885   0.728 -0.0606  0.0873  0.1939
23280W        W40804  18.043  15.251   3.766 -0.0684 -0.1458  0.0805
23281W        W40805  12.089   1.511  10.374 -0.0737  0.0869 -0.0537
23282W        W40806   4.313  13.252  10.597  0.0576 -0.0959 -0.0135
23283W        W40807  17.623   2.713  12.143 -0.0307 -0.2693  0.2794
23284W        W40808   4.069  11.956  14.877 -0.4057 -0.2395  0.1445
23285W        W40809   2.477   7.981  12.188 -0.1625  0.1228 -0.3980
23286W        W40810   7.888   3.558  13.618 -0.1214  0.5386 -0.0394
23287W        W40811  15.334  10.536   1.088  0.0106  0.1262  0.0565
23288W        W40812   0.341   0.047   2.695 -0.0495  0.3455  0.1244
23289W        W40813   1.746   5.814   3.335 -0.0591 -0.1347  0.2249
23290W        W40814  14.557   2.240   0.108  0.1821  0.0255  0.0130
23291W        W40815   7.153   0.571  14.795  0.0034  0.2223  0.2831
23292W        W40816   0.317  11.585   3.304 -0.1517 -0.1363  0.1573
23293W        W40817   2.035   2.275  14.113  0.1936 -0.2170  0.0100
23294W        W40818   4.989   1.668  13.615  0.0344  0.2292  0.0512
23295W        W40819   2.012   4.474   5.271  0.0214 -0.0127 -0.2147
23296W        W40820  11.627   6.956   4.097 -0.1184 -0.3553 -0.1885
23297W        W40821  15.824  16.986  11.679 -0.1125  0.4404 -0.4494
23298W        W40822  13.066   8.709  12.435  0.2432  0.1340  0.1661
23299W        W40823   8.697   5.293  15.522 -0.0207 -0.0408  0.3287
23300W        W40824  10.659  11.462   5.143  0.0641 -0.1808  0.0431
23301W        W40825   3.957   8.092  15.597 -0.1012 -0.1240  0.1009
23302W        W40826   5.142  10.387   4.963 -0.0957 -0.2226 -0.1661
23303W        W40827   6.381  12.875  11.959 -0.2203  0.2675  0.4813
23304W        W40828  12.823   8.420  15.224  0.0915  0.1128 -0.1845
23305W        W40829   1.141   9.468  15.314 -0.0728 -0.0229  0.1833
23306W        W40830  15.601   9.148  16.062 -0.0277  0.2249  0.1356
23307W        W40831  15.918  11.105  13.946  0.1759 -0.1197  0.4030
23308W        W40832   6.223   7.639  11.211  0.0764 -0.0414  0.0149
23309W        W40833   4.180   5.031   3.896  0.2080  0.0209  0.0211
23310W        W40834  11.695   2.535   0.377 -0.0894 -0.1254 -0.1804
23311W        W40835  15.430   2.881   5.108 -0.1168 -0.0635  0.2466
23312W        W40836  11.413   6.761  15.391 -0.0667  0.1019 -0.0550
23313W        W40837  12.123  17.434  14.873 -0.2514 -0.0444 -0.5668
23314W        W40838   3.998  13.485  11.671 -0.0947 -0.0316  0.2425
23315W        W40839   5.227  16.050   2.548  0.1241 -0.0308  0.2211
23316W        W40840   2.170   5.521   1.172 -0.2142  0.3103  0.1333
23317W        W40841   0.434  12.696  12.690  0.1099 -0.1319  0.0346
23318W        W40842   8.742   7.418  14.319 -0.1604  0.1557  0.4720
23319W        W40843   5.672  15.626  12.367  0.0342 -0.1801  0.1488
23320W        W40844  11.967   7.902   3.922  0.2845  0.0862 -0.0136
23321W        W40845   3.984   2.170   1.660 -0.1862  0.1036 -0.0139
23322W        W40846   9.958   0.060  15.636 -0.4847  0.2489  0.2993
23323W        W40847  14.850   6.709  16.013 -0.1422  0.0363 -0.1070
23324W        W40848   8.666   7.284   3.601  0.2979 -0.3537  0.0647
23325W        W40849   1.425   8.210   1.709  0.1245  0.0191  0.4655
23326W        W40850   2.377  12.361   4.847 -0.0964  0.4113 -0.0248
23327W        W40851  15.481  17.520   5.364  0.0574 -0.0859  0.3349
23328W        W40852   1.941  12.324  15.167  0.2107 -0.0992  0.0662
23329W        W40853   3.409  10.894   4.735 -0.2051  0.2216  0.2969
23330W        W40854  11.213   2.826  13.027  0.2099 -0.1256  0.0856
23331W        W40855   1.376  13.501  14.534 -0.1587 -0.1106  0.2924
23332W        W40856   0.017  17.359  13.422 -0.0402 -0.2540 -0.0952
23333W        W40857   7.131   2.746  15.797 -0.3525  0.1311 -0.0426
23334W        W40858   2.191   4.610   2.006 -0.1862 -0.2025  0.2122
23335W        W40859  13.994   8.541  11.944 -0.0075  0.2212 -0.2250
23336W        W40860   2.169  14.197   3.254 -0.0133 -0.0263  0.3586
23337W        W40861   3.885  17.901  10.448 -0.0885 -0.1600  0.0377
23338W        W40862   8.835  16.553  15.687 -0.2391 -0.1365  0.2401
23339W        W40863   1.618   3.271   4.855 -0.0389 -0.1846  0.2488
23340W        W40864  12.290   8.544  15.066  0.0082  0.0997 -0.0022
23341W        W40865  12.525   4.770   4.306  0.2152  0.2957  0.0989
23342W        W40866   5.359  15.344   4.364 -0.2955  0.1746  0.1514
23343W        W40867   9.800  11.589  13.230 -0.1557 -0.1591 -0.0426
23344W        W40868   1.157   8.140  15.732 -0.1902 -0.0855 -0.0729
23345W        W40869   3.508  10.512  11.538 -0.0191  0.0223 -0.3790
23346W        W40870   7.706   8.527   3.478 -0.0751 -0.1603 -0.0370
23347W        W40871  11.284  16.699   3.892  0.0292  0.2467 -0.0807
23348W        W40872   5.013   0.509  11.657 -0.2470  0.0364  0.0418
23349W        W40873   0.935   8.533  15.243 -0.0866 -0.0427  0.0766
23350W        W40874   7.336  16.145  13.883  0.2685 -0.0160 -0.1929
23351W        W40875  11.228   8.303   1.888  0.1683  0.0155  0.0020
23352W        W40876  10.394  16.001   4.811  0.2129 -0.0055  0.3190
23353W        W40877   3.073   8.884  13.425  0.2221 -0.0840  0.0578
23354W        W40878   1.389   0.125  13.882  0.1054 -0.2398  0.0751
23355W        W40879   1.660  14.156  13.353  0.1587  0.3741 -0.0571
23356W        W40880   4.835  14.291  13.476  0.0679 -0.2450 -0.1461
23357W        W40881   0.220   2.551   2.197 -0.1979  0.1014  0.3965
23358W        W40882   6.747   5.483  12.400 -0.2594 -0.2473 -0.2516
23359W        W40883   5.450  14.041  16.024  0.0704  0.0342  0.0210
23360W        W40884   5.056   2.050   1.953  0.0946  0.0573  0.1163
23361W        W40885   7.217  12.954   0.095  0.1228 -0.2903 -0.0542
23362W        W40886  17.912   4.390   1.722  0.0336 -0.0411 -0.0652
23363W        W40887   7.028   0.661  15.820  0.1798 -0.1064 -0.0261
23364W        W40888   2.016   3.629   4.726  0.0474 -0.2295 -0.0498
23365W        W40889  15.450  11.854  14.168  0.2810  0.0749  0.0279
23366W        W40890   4.849  10.921   1.001 -0.3767 -0.3948 -0.2264
23367W        W40891  18.058   1.193   3.916 -0.0780 -0.2092  0.2054
23368W        W40892  10.645   7.879  13.782  0.2535 -0.4944 -0.0239
23369W        W40893  17.165   5.061   0.606 -0.0482  0.1998 -0.1117
23370W        W40894   3.034   1.566  12.648  0.4340  0.1444  0.2126
23371W        W40895  17.634  12.594   0.243 -0.1289  0.1452  0.0091
23372W        W40896  15.549   2.534  13.782 -0.0126 -0.1410  0.2373
23373W        W40897  15.923   7.501   0.626  0.0301 -0.1330  0.1017
23374W        W40898   6.320   6.718   0.855  0.0362 -0.0401  0.0920
23375W        W40899  13.425  15.166  14.281  0.1346 -0.2638 -0.4282
23376W        W40900   8.315   2.147   3.360  0.1908  0.1529 -0.0455
23377W        W40901   3.275   9.588  12.667 -0.2130  0.3467  0.3511
23378W        W40902   5.888   1.853   4.306  0.0234 -0.1409 -0.3144
23379W        W40903  16.196   9.803  14.372  0.1349 -0.0473 -0.0615
23380W        W40904   2.280   2.630  15.286  0.1030 -0.2358 -0.2150
23381W        W40905   0.342   7.663  13.918  0.1059  0.0013 -0.0532
23382W        W40906  11.503  10.011   4.779 -0.4610  0.1945 -0.1636
23383W        W40907   9.321  18.011  11.552  0.0389 -0.3569  0.0473
23384W        W40908   5.194  16.660  12.825  0.2217 -0.0904  0.2702
23385W        W40909   7.000   2.095   4.810 -0.1089 -0.0274 -0.1388
23386W        W40910   1.499   3.033   5.251 -0.0921  0.4329  0.1094
23387W        W40911   1.152   6.432  12.399  0.1081  0.1224 -0.0290
23388W        W40912  17.164  11.640  14.980  0.1630  0.0257  0.2742
23389W        W40913  11.042  13.530  14.351 -0.2640 -0.0953 -0.1213
23390W        W40914   3.714   9.894  15.803  0.1825 -0.1165  0.0017
23391W        W40915  10.379  16.351  14.544 -0.1150 -0.0779  0.1048
23392W        W40916  13.523   1.907   3.439 -0.0509 -0.4076 -0.0020
23393W        W40917   0.573   8.659  14.881 -0.3933 -0.1322 -0.2092
23394W        W40918   0.044  11.955   0.474  0.1320 -0.2445 -0.2961
23395W        W40919  15.128   1.351   2.374  0.0067  0.1230  0.0108
23396W        W40920   6.970   6.964   1.456 -0.1357 -0.3435 -0.0545
23397W        W40921  11.310   3.067   3.098  0.1302  0.1089  0.4327
23398W        W40922   1.119   1.842   3.622 -0.0075  0.0615 -0.2617
23399W        W40923  14.427   3.606   2.655 -0.2986  0.0344 -0.0445
23400W        W40924   6.027   7.452  14.760  0.2261  0.3598 -0.5046
23401W        W40925  10.339  10.802   4.071  0.1630 -0.3503  0.1800
23402W        W40926   4.403   1.973   2.327 -0.5493  0.1254  0.1251
23403W        W40927  14.734  12.223   6.124 -0.0867  0.3478 -0.0938
23404W        W40928   1.122  12.864  13.672  0.0022  0.1864 -0.0611
23405W        W40929  16.795   1.635  13.759  0.3508  0.0266  0.0632
23406W        W40930  12.605  16.596  12.639 -0.1545 -0.2244  0.0286
23407W        W40931   5.781   6.704   4.066 -0.1088 -0.2519 -0.0200
23408W        W40932  11.162  11.823  15.578  0.1172 -0.2322 -0.1138
23409W        W40933   6.473  18.188   2.101  0.2125 -0.2825 -0.0887
23410W        W40934  17.956  10.661   5.797  0.0842 -0.5184  0.0098
23411W        W40935   1.835  10.626   1.563  0.1316  0.1662 -0.1199
23412W        W40936  15.524  17.976  15.506  0.1453  0.3131  0.0100
23413W        W40937  13.322   0.519   1.645  0.2724  0.0715 -0.1114
23414W        W40938  13.826   2.954   4.219 -0.1300  0.1099 -0.1538
23415W        W40939  14.616  11.818  14.664  0.2680 -0.0374  0.0830
23416W        W40940   7.143  10.596  13.381  0.1049  0.0904 -0.3063
23417W        W40941   6.238   1.309  13.051  0.2555 -0.1246 -0.1330
23418W        W40942   3.889   2.198  14.223 -0.1305  0.0262 -0.2574
23419W        W40943  12.436   6.624   1.294  0.0235 -0.1129 -0.0424
23420W        W40944  13.210   8.639   0.348 -0.1109  0.1358  0.0388
23421W        W40945  15.847   2.419  14.268  0.0904  0.1651 -0.2082
23422W        W40946   3.990   7.244  14.226  0.2581 -0.1961  0.3162
23423W        W40947  15.524   0.278   1.724 -0.2782  0.2448 -0.4255
23424W        W40948  13.035  17.402  13.796 -0.0877  0.0244 -0.3525
23425W        W40949   7.365   4.766   0.252 -0.0965 -0.0530  0.1282
23426W        W40950  13.911   0.681  14.481 -0.1991  0.1141  0.0325
23427W        W40951  17.394  10.182   0.812  0.2583 -0.0904  0.3727
23428W        W40952  15.871  11.444  13.554 -0.0943 -0.2701 -0.3529
23429W        W40953  15.556  15.556  13.599 -0.1239 -0.2945  0.2958
23430W        W40954  11.518   1.030  15.686 -0.1647 -0.3330 -0.1035
23431W        W40955   5.297   8.018  12.149 -0.1183 -0.1816 -0.0668
23432W        W40956   1.328  10.226  13.099 -0.1177 -0.2680  0.0901
23433W        W40957   9.235   8.295  12.603 -0.0989 -0.1173 -0.0203
23434W        W40958   0.760   7.967  15.449  0.3936  0.1059 -0.0547
23435W        W40959  10.423   6.338   4.693  0.1681 -0.2068  0.1737
23436W        W40960  10.384  10.310   4.914  0.0546  0.2140  0.2450
23437W        W40961   2.472  12.056  15.013 -0.0094  0.0267  0.2481
23438W        W40962   5.776  18.165  16.088  0.0571 -0.0028  0.0618
23439W        W40963   5.353  16.029   0.455 -0.0102  0.0563 -0.3045
23440W        W40964  13.341  14.426   3.936  0.0388 -0.0564  0.0965
23441W        W40965  13.875   8.240  13.013  0.0261  0.0855 -0.1000
23442W        W40966  12.653   3.966   4.687  0.2951 -0.4308 -0.1745
23443W        W40967  14.745   3.700  14.262  0.1463 -0.1488  0.1755
23444W        W40968  12.099  10.954   5.098  0.0523 -0.0621 -0.0911
23445W        W40969   3.151   2.158   0.557  0.3414 -0.0281  0.0020
23446W        W40970  13.349  11.567   0.683  0.0759 -0.2721  0.1214
23447W        W40971  13.901   5.085   0.447 -0.1763 -0.1474 -0.2471
23448W        W40972  15.996  16.461  14.633 -0.0363 -0.0339  0.0890
23449W        W40973  17.996   6.492   4.435  0.1682  0.0904  0.2087
23450W        W40974   7.667   3.169  14.081  0.1007  0.0649  0.1193
23451W        W40975   5.887  16.882   1.928  0.0002 -0.0622 -0.3694
23452W        W40976  17.670   2.236   0.823  0.2857  0.1968  0.0097
23453W        W40977  16.359  13.977   2.569 -0.0782 -0.2729 -0.0405
23454W        W40978   6.797  15.729   2.235 -0.3508 -0.0361  0.0364
23455W        W40979  17.813   1.919  12.701 -0.4714 -0.2635 -0.0048
23456W        W40980   5.077   9.886  12.448 -0.1260  0.3397  0.3872
23457W        W40981   7.939  12.385  12.140 -0.2445 -0.3747 -0.1263
23458W        W40982  16.176   2.362   1.879  0.0213  0.1972 -0.2928
23459W        W40983   7.844  15.866   3.864  0.1082  0.0038  0.0303
23460W        W40984  11.771   1.589   0.448  0.2910  0.5248  0.1682
23461W        W40985  11.923  17.465  12.951  0.1082  0.0809  0.0913
23462W        W40986   9.945   7.818  12.554  0.1730 -0.0792  0.4197
23463W        W40987  11.065  13.647   0.298  0.0588  0.0333 -0.0719
23464W        W40988  14.123  12.022   1.728 -0.1212 -0.4096 -0.0849
23465W        W40989   6.031  16.157  12.072 -0.2444 -0.1267  0.1753
23466W        W40990  14.309  14.092  11.505 -0.0609 -0.3088  0.0323
23467W        W40991   9.068  11.674  10.887  0.1065  0.0944 -0.0076
23468W        W40992   6.915   9.397   0.108 -0.4305  0.2089  0.0165
23469W        W40993   9.962  14.794  15.829  0.3720  0.0262 -0.1332
23470W        W40994  10.645   1.807  10.965  0.1539 -0.1287  0.3103
23471W        W40995   0.959  13.964   2.214 -0.2390 -0.0592  0.1321
23472W        W40996  15.043  16.599  10.646  0.2468  0.0449  0.2690
23473W        W40997   6.806   0.807  12.210  0.0192 -0.0391  0.1077
23474W        W40998   5.238  15.116  12.505 -0.1430 -0.1684  0.2384
23475W        W40999  13.379   7.584  11.760 -0.0997  0.1444 -0.3557
23476W        W41000  11.093   5.165  14.095  0.2580  0.1768 -0.1991
23477W        W41001  17.810   9.746  11.670 -0.3916 -0.2294  0.3459
23478W        W41002   9.467   2.076  13.507 -0.2789  0.1935  0.1083
23479W        W41003   9.845   4.020  12.366 -0.0811  0.0669  0.4188
23480W        W41004  10.819   6.682   4.932 -0.0176  0.0005 -0.2126
23481W        W41005   5.203   3.766   0.092  0.1381  0.3539 -0.0492
23482W        W41006   1.355   4.923   3.177 -0.1410 -0.3629  0.0600
23483W        W41007  17.978  14.668  11.773  0.1708 -0.1801 -0.1095
23484W        W41008  12.423  12.142   3.025  0.1946 -0.3383 -0.4485
23485W        W41009  15.223  10.498  13.985 -0.2961 -0.2041  0.0116
23486W        W41010   5.663   8.224  15.888  0.0903 -0.2103 -0.0714
23487W        W41011   0.048   6.402  14.649  0.1509 -0.2029 -0.0781
23488W        W41012   8.139   9.938   4.941  0.2764 -0.1486  0.1912
23489W        W41013  13.886  15.077   1.866 -0.0319  0.0139  0.0578
23490W        W41014  14.444   9.691   2.719  0.0678 -0.1771 -0.1675
23491W        W41015   5.574  11.910  15.125  0.2185 -0.1849  0.0070
23492W        W41016  10.706  10.063  15.693 -0.1336 -0.0887  0.0959
23493W        W41017  16.361   7.363   3.661  0.1872 -0.1244 -0.1419
23494W        W41018  13.041  11.810   2.277  0.1283  0.2853 -0.0549
23495W        W41019   1.498  11.021  14.899  0.0980  0.1826  0.1701
23496W        W41020  17.602   4.124   5.082  0.0753 -0.0665 -0.1635
23497W        W41021  10.805  15.135  15.620 -0.0075 -0.1215 -0.0454
23498W        W41022   4.023   5.225   3.477  0.0953 -0.0345  0.1859
23499W        W41023   6.855  10.217  12.049 -0.0559 -0.0840  0.0073
23500W        W41024  17.624  10.012   3.529  0.0610 -0.1074 -0.1630
23501W        W41025   2.241  16.348   5.028 -0.1404 -0.0237  0.1128
23502W        W41026   2.927  15.893   0.883  0.1677  0.2738  0.0567
23503W        W41027   4.145  12.837  12.449  0.2047  0.0577 -0.2465
23504W        W41028  10.180  12.212   0.873 -0.0876 -0.1097  0.0200
23505W        W41029   0.650  13.586   0.488 -0.1853  0.4046 -0.0611
23506W        W41030  16.089   6.414  12.624 -0.0477 -0.0099  0.2801
23507W        W41031   6.595   6.377   4.661  0.3004 -0.2835 -0.0067
23508W        W41032  11.759  17.796   5.022 -0.1972  0.1733  0.2537
23509W        W41033  16.877  10.219  14.643 -0.0652  0.0260  0.0505
23510W        W41034   1.614  17.166   1.259  0.1097  0.1376  0.0806
23511W        W41035   6.473  15.579  14.057  0.0894 -0.0698  0.0253
23512W        W41036  14.550   8.407  15.976  0.1878 -0.2472 -0.2742
23513W        W41037  10.964   7.612  13.470  0.0447 -0.1014 -0.6091
23514W        W41038  10.545   0.649   0.909  0.1167 -0.1408  0.3733
23515W        W41039  15.004  12.791  14.355 -0.1634 -0.1986  0.0180
23516W        W41040  13.014   0.469  14.120 -0.0050  0.0462 -0.1354
23517W        W41041   7.528   8.957   0.619  0.0756  0.2238 -0.1690
23518W        W41042  13.447   7.311   1.024 -0.0008 -0.0947 -0.4534
23519W        W41043  15.946   6.882  11.524  0.1510  0.2922 -0.1470
23520W        W41044  10.844  11.701   3.076  0.0084 -0.1244  0.1238
23521W        W41045   5.222   1.224  13.701 -0.2374 -0.3375  0.1501
23522W        W41046   2.782  14.244   1.969 -0.0805  0.1505 -0.1275
23523W        W41047   0.474  11.168  11.093  0.1017  0.1838  0.3714
23524W        W41048  17.878   5.657  15.467 -0.1121  0.2076 -0.2281
23525W        W41049  16.035  13.173   2.171 -0.2071  0.0260  0.0871
23526W        W41050  16.478   8.764   0.142  0.0331  0.1424  0.0208
23527W        W41051  14.839  16.563   1.293 -0.0785  0.4277  0.1431
23528W        W41052  13.862  10.389  12.458  0.3207  0.0934 -0.1831
23529W        W41053  17.394  11.261  15.877 -0.1523 -0.0798  0.0579
23530W        W41054   1.904   6.029  12.581  0.0259 -0.1448 -0.0757
23531W        W41055   6.996   9.962  12.765 -0.0522 -0.0927  0.3740
23532W        W41056  17.327   4.295   3.939 -0.0804  0.1218 -0.0484
23533W        W41057  14.072   3.924  13.838 -0.0923  0.1843 -0.0580
23534W        W41058  16.642   2.461  14.803  0.1602 -0.0692 -0.0226
23535W        W41059   3.941   1.892  11.973  0.0289  0.1766 -0.0683
23536W        W41060   7.564  12.633  14.144  0.2488 -0.0551  0.0785
23537W        W41061   3.599   9.834   2.383 -0.2468  0.1923 -0.0263
23538W        W41062   8.987  11.986  12.860 -0.0080 -0.3802  0.0625
23539W        W41063   3.648  11.913   0.331  0.0317  0.3559  0.0342
23540W        W41064  16.997  11.384   4.166 -0.0612  0.0609 -0.2971
23541W        W41065   8.599  16.843  14.524  0.1052 -0.0574 -0.0264
23542W        W41066   5.448  17.822  12.853 -0.1015  0.4888 -0.1562
23543W        W41067  14.964   1.584  10.855  0.0948  0.1078  0.1949
23544W        W41068   1.358   3.979  14.446  0.0159  0.0747 -0.3173
23545W        W41069   0.186   6.140  15.937 -0.0809  0.4658  0.0385
23546W        W41070   7.787   2.119  12.899 -0.0903 -0.2204 -0.2105
23547W        W41071   1.467  16.803  12.076  0.0387 -0.1634  0.4195
23548W        W41072  16.979   4.096  15.317  0.1429 -0.0650  0.2011
23549W        W41073  12.175   9.786   1.849  0.1767 -0.2752  0.0358
23550W        W41074  14.925  11.443  12.299 -0.2417 -0.1289  0.3526
23551W        W41075  17.574  11.282   1.530 -0.3095 -0.1696 -0.0319
23552W        W41076   5.853  16.627  11.985 -0.1062 -0.0211 -0.3145
23553W        W41077  13.780  17.794  10.438 -0.1552 -0.0510  0.0360
23554W        W41078   2.747  12.870  14.863 -0.3186 -0.1121 -0.0709
23555W        W41079   5.496  10.779  11.048  0.1911  0.0626  0.2553
23556W        W41080   4.150   6.935   1.504  0.2757  0.0157 -0.2265
23557W        W41081  14.933   4.616   3.307 -0.2433  0.3531  0.0928
23558W        W41082   7.418  14.451  12.328 -0.0486  0.5248  0.1266
23559W        W41083  14.067  18.007  15.914 -0.5279 -0.0760 -0.0030
23560W        W41084  16.808   0.454   4.582 -0.2182  0.1610  0.1239
23561W        W41085  14.688  14.753  13.527  0.4607 -0.0080 -0.2047
23562W        W41086   7.151  17.478   0.199  0.2731 -0.0418 -0.0271
23563W        W41087  13.465   9.112   3.199 -0.2259  0.0914  0.2730
23564W        W41088  13.261  13.942  15.023 -0.1034 -0.1951  0.4496
23565W        W41089  13.169  15.886  12.091  0.1258 -0.3178  0.0258
23566W        W41090   4.342  11.846  12.102  0.0628  0.0603 -0.0526
23567W        W41091   7.276  13.196  14.807 -0.2099 -0.1542 -0.0174
23568W        W41092   6.762   0.092   3.075  0.0725 -0.2336 -0.0168
23569W        W41093  13.295  15.246  11.343 -0.1639 -0.0738  0.0272
23570W        W41094   3.779  12.400   0.136 -0.0400 -0.0118  0.2015
23571W        W41095   5.051  11.646  15.298  0.3171  0.0164  0.2139
23572W        W41096   8.164  16.287  15.135  0.0871 -0.1117 -0.3893
23573W        W41097  11.664   2.674  14.685 -0.0033 -0.2165 -0.1648
23574W        W41098   3.448  10.192  13.378 -0.0485  0.2531 -0.1315
23575W        W41099  16.171  12.381   4.604 -0.1520 -0.1448  0.1455
23576W        W41100   4.381   2.951   3.683  0.1110  0.1178 -0.1823
23577W        W41101  10.746  17.934   2.370  0.2078 -0.0566  0.1293
23578W        W41102   6.894   0.317   3.563 -0.2291  0.0892 -0.3724
23579W        W41103  10.817   0.636  14.112 -0.0626 -0.0859  0.1023
23580W        W41104  10.932  12.760  15.164 -0.0236  0.0584 -0.0137
23581W        W41105   6.905  10.761   3.159 -0.2032  0.0912  0.2529
23582W        W41106   2.898  12.296   2.949  0.3506 -0.2564  0.1586
23583W        W41107  10.985   6.557  15.000  0.2223 -0.1719  0.0782
23584W        W41108   1.619   7.867  13.054 -0.0683  0.1805  0.2311
23585W        W41109   0.643   3.985  15.708 -0.2310  0.0626  0.1462
23586W        W41110   2.087  12.143   3.059  0.1459 -0.1484 -0.2138
23587W        W41111  17.251   2.697   3.605 -0.1801 -0.2772  0.0121
23588W        W41112  15.235   9.704  14.455  0.4212  0.2252 -0.0523
23589W        W41113   8.449   4.977   0.692  0.1950  0.0318  0.1648
23590W        W41114  15.279   1.492   0.569  0.2367  0.0558 -0.2013
23591W        W41115  15.459   1.325  12.801  0.0928  0.1405  0.0442
23592W        W41116   0.144   2.454   3.087 -0.0934  0.0194  0.2450
23593W        W41117   1.761   8.472  11.576 -0.0336  0.0007  0.2282
23594W        W41118   1.722   4.038   3.254 -0.1123 -0.0392  0.0792
23595W        W41119   4.045  14.774   1.584  0.1013  0.1170  0.1033
23596W        W41120  11.852   7.277  14.180 -0.2368  0.1859 -0.1000
23597W        W41121   9.860  13.645  15.420 -0.0975  0.0269  0.0947
23598W        W41122   7.647  17.291  13.522  0.1316 -0.0956  0.0051
23599W        W41123   3.218   3.891  13.280  0.4063 -0.0726  0.0997
23600W        W41124   8.822   9.559   0.464  0.0632 -0.1407  0.1227
23601W        W41125  10.592   6.987  11.959 -0.0559  0.1377 -0.0432
23602W        W41126  13.554  10.040   2.993  0.0915  0.2508 -0.0799
23603W        W41127   4.450  12.355   2.409  0.2639 -0.0094  0.0461
23604W        W41128   7.597  14.335   4.676 -0.0529  0.0581  0.3719
23605W        W41129   1.522  10.824  12.188  0.1908 -0.0024  0.0378
23606W        W41130  13.477  13.112  13.174 -0.1763  0.0499  0.1310
23607W        W41131  12.399  15.698   5.575 -0.1580  0.0341 -0.1202
23608W        W41132   9.957   0.689   1.967  0.0259  0.1314  0.2566
23609W        W41133   2.802   7.118   3.685  0.2403  0.1379  0.3170
23610W        W41134   3.739  11.428   0.114 -0.0698 -0.1614 -0.1828
23611W        W41135   5.703  14.803   0.506 -0.1035  0.3426  0.0371
23612W        W41136  15.319  14.436   1.221 -0.0666 -0.0275  0.1042
23613W        W41137   0.600   3.590  13.561  0.0119 -0.3027  0.3004
23614W        W41138  12.186  11.825   1.705 -0.1345  0.4879  0.0009
23615W        W41139   8.191   8.375   3.872 -0.3551  0.1078 -0.2730
23616W        W41140  13.985   9.742  11.506 -0.2774 -0.1836 -0.0019
23617W        W41141   8.575  18.138   1.965  0.1812 -0.0829 -0.1918
23618W        W41142  10.438   0.723  11.573 -0.0412  0.2702  0.1058
23619W        W41143  10.268   3.789  15.304  0.0055  0.2727 -0.0937
23620W        W41144   4.067  11.215   4.130 -0.0694 -0.1269 -0.0134
23621W        W41145   9.897   7.061   0.267 -0.2961 -0.2417  0.0863
23622W        W41146  12.023   1.112   4.547 -0.0556 -0.1233  0.1258
23623W        W41147   2.426  11.717  13.192  0.1825  0.2078  0.0681
23624W        W41148  11.834  13.129  13.954  0.2547 -0.1000 -0.2490
23625W        W41149   4.931   6.730   5.507  0.2321  0.1599 -0.0378
23626W        W41150  12.402   9.577  12.648  0.1924  0.2112 -0.0801
23627W        W41151   5.795  11.014  15.526  0.1726  0.0992 -0.0572
23628W        W41152   3.251   4.261  11.473 -0.0684 -0.0232 -0.1388
23629W        W41153  16.329  16.401  15.539 -0.0393 -0.1446  0.0457
23630W        W41154   3.461   6.168   0.225 -0.0940 -0.0521 -0.0822
23631W        W41155   6.016  14.883  13.565 -0.3078 -0.0208  0.1155
23632W        W41156  11.379   1.484   2.768  0.1315  0.1012  0.1484
23633W        W41157  12.847   8.757  13.011 -0.1298 -0.2242  0.0700
23634W        W41158   7.038   8.766  13.409 -0.0283  0.0089  0.1152
23635W        W41159   9.345   3.045   2.913 -0.0916 -0.0504  0.2181
23636W        W41160  17.466  14.358  14.774 -0.0049  0.5570 -0.0130
23637W        W41161   9.847   7.717  11.574  0.1892  0.0754 -0.1151
23638W        W41162   0.841   1.884  10.937 -0.3451 -0.3379 -0.1661
23639W        W41163  10.623   9.859   4.134 -0.1043  0.0454  0.0562
23640W        W41164  11.203  17.413   4.425 -0.3281 -0.0307  0.1576
23641W        W41165   0.796  12.665   2.038  0.0229 -0.1554 -0.4951
23642W        W41166   0.963  13.387   3.337 -0.2757 -0.2483 -0.1422
23643W        W41167   9.669  16.200   2.340  0.0221 -0.0337 -0.1925
23644W        W41168   7.789   9.176   4.365  0.0981  0.0298  0.0056
23645W        W41169  17.596  17.219  11.724  0.1396  0.2092  0.1448
23646W        W41170  13.064   7.993  13.558 -0.0795 -0.1921  0.2054
23647W        W41171  13.094  17.516  12.619  0.3096  0.1685 -0.1003
23648W        W41172  13.532   3.237   1.875  0.2360  0.4152 -0.0986
23649W        W41173  15.110  15.707   4.892  0.2435  0.0062 -0.1688
23650W        W41174  13.354  17.246   2.076  0.0684 -0.1005  0.2113
23651W        W41175   2.429  16.101  15.723  0.1795  0.1495  0.0694
23652W        W41176   3.965   4.075   4.162  0.0508  0.1142  0.0700
23653W        W41177   0.881   2.485   0.440  0.0759  0.1509  0.0012
23654W        W41178  13.765   1.947   1.891 -0.2842  0.1129 -0.2481
23655W        W41179  13.864  10.734   0.482 -0.2463 -0.1237  0.1926
23656W        W41180   5.580   4.549   3.623 -0.0937 -0.2798 -0.1263
23657W        W41181   2.047   1.276   1.341 -0.3002 -0.1154  0.1668
23658W        W41182   0.261   2.116   6.253  0.1488  0.1199 -0.0222
23659W        W41183   4.008   7.053   0.954  0.2643  0.0007 -0.2300
23660W        W41184  16.076   5.230  13.694 -0.1256 -0.0614 -0.3341
23661W        W41185   1.391  11.535   2.648  0.0171 -0.0818  0.0520
23662W        W41186   2.932  12.406  12.999 -0.1983  0.0881 -0.1333
23663W        W41187   1.537  15.184  13.921 -0.2026  0.2497 -0.1143
23664W        W41188  15.816  15.317  12.425  0.1418  0.4363  0.1461
23665W        W41189   6.748   8.686  15.490  0.0574 -0.1960 -0.0998
23666W        W41190   4.323  14.037   3.263  0.1348 -0.4913 -0.0584
23667W        W41191  13.908  16.623   1.332 -0.1298  0.1103 -0.1520
23668W        W41192  10.139  14.084  12.661 -0.2758 -0.0452 -0.1700
23669W        W41193  14.042   1.306   3.879 -0.3424  0.0151  0.1681
23670W        W41194  16.372  16.424  14.195  0.4283 -0.1045 -0.2291
23671W        W41195   5.017   5.028   1.146  0.0275  0.0159 -0.0457
23672W        W41196   7.180  18.068  15.028 -0.0458 -0.0824 -0.1622
23673W        W41197   7.501   7.199  12.070 -0.1528 -0.1345  0.1957
23674W        W41198  11.237  15.460  11.841  0.1231  0.2955  0.0879
23675W        W41199   1.469   0.900   4.973 -0.1966  0.3650  0.0364
23676W        W41200   2.541  15.896  11.378  0.2229  0.3005 -0.0883
23677W        W41201  12.094   8.504  10.284 -0.1417 -0.2938 -0.2608
23678W        W41202   6.325  15.602  15.701  0.2105 -0.2517 -0.2309
23679W        W41203  13.288  16.900  11.963 -0.0845  0.2700 -0.1738
23680W        W41204  12.616   1.111  11.719  0.1135  0.2812 -0.1040
23681W        W41205  11.696   8.259  14.485 -0.0707  0.0135  0.4324
23682W        W41206   3.505   3.481  13.244  0.4571  0.3669 -0.1447
23683W        W41207   6.768   7.817  13.834  0.3575  0.0848 -0.1716
23684W        W41208  14.699   9.309   1.783  0.2010  0.0188 -0.0419
23685W        W41209  17.985   8.735   1.568  0.0779  0.3656  0.2814
23686W        W41210  10.146   4.653   2.431  0.0289  0.0120  0.1785
23687W        W41211   8.329   0.563  11.336  0.3458 -0.1469 -0.0257
23688W        W41212   8.395  11.797   0.875 -0.1060  0.4396 -0.2476
23689W        W41213   4.037   9.141  11.514 -0.4811 -0.2564 -0.1457
23690W        W41214  15.498  12.299  11.161 -0.1082 -0.1493 -0.2944
23691W        W41215   9.830  11.517   0.326  0.0319  0.0956 -0.1321
23692W        W41216   0.569   2.101   2.198  0.2125  0.1816  0.0114
23693W        W41217   8.359  16.429  14.642  0.0900 -0.0901 -0.2527
23694W        W41218   9.197   0.367  10.827 -0.0321 -0.0041 -0.0937
23695W        W41219  16.758   8.503   4.435 -0.0190  0.0159  0.0233
23696W        W41220  14.076   0.359  14.952 -0.1327  0.1477 -0.0618
23697W        W41221   4.680  11.141  10.569 -0.2253 -0.0621  0.4280
23698W        W41222   8.658   4.477   2.387 -0.0042  0.0462 -0.2114
23699W        W41223   9.726  14.684  13.820  0.0341 -0.4182 -0.1208
23700W        W41224  15.449   7.771   3.656 -0.1191 -0.1406  0.1555
23701W        W41225  17.593  17.588  12.646 -0.0840  0.1364 -0.1228
23702W        W41226   8.378  14.660  13.577  0.1886 -0.1873 -0.0346
23703W        W41227  13.289  15.993   3.123  0.0912 -0.2013 -0.0856
23704W        W41228   3.779  10.913   0.198 -0.0855  0.1846 -0.3002
23705W        W41229   1.861  12.246   1.392  0.0875  0.3227  0.1049
23706W        W41230   6.969   5.916  15.002 -0.0933 -0.1720  0.0881
23707W        W41231   1.769  15.416   3.208  0.0932 -0.1334 -0.3971
23708W        W41232   2.268  17.588   0.852  0.0783  0.3453 -0.3302
23709W        W41233  12.162   7.880   4.354 -0.3009 -0.0962  0.0557
23710W        W41234  13.938   7.036  13.826 -0.2988 -0.3074 -0.2647
23711W        W41235  17.157  16.216  13.907 -0.1681  0.3305  0.2146
23712W        W41236  10.138  10.510  12.193 -0.2533 -0.1219 -0.2404
23713W        W41237   8.999   2.967   4.449 -0.2313 -0.2222  0.3667
23714W        W41238  16.620   6.498  13.561 -0.0782 -0.1872  0.0678
23715W        W41239  17.103   4.227  15.996  0.1026  0.1623  0.0276
23716W        W41240   7.111   1.121   4.292 -0.0422 -0.0636 -0.2105
23717W        W41241  11.363   8.658  15.106  0.0409 -0.2322 -0.1503
23718W        W41242  10.604   2.401   2.930  0.2339  0.1461 -0.0632
23719W        W41243   6.802   8.579   3.905  0.4004  0.1244  0.0930
23720W        W41244  13.683  16.659  13.659  0.3321 -0.1528  0.1206
23721W        W41245   2.204   9.190  12.727 -0.1084 -0.2840  0.0737
23722W        W41246   7.722  14.742  13.885  0.3277  0.0798  0.1268
23723W        W41247  11.378  13.903   3.068  0.2014 -0.2142 -0.0357
23724W        W41248  11.419  12.587   0.350 -0.0408 -0.2535  0.1916
23725W        W41249   3.907   4.136   3.672 -0.2902  0.0179  0.0159
23726W        W41250  14.512   7.042   1.996  0.0398  0.0273 -0.1541
23727W        W41251   1.851  17.964   4.971 -0.2099 -0.1617  0.0770
23728W        W41252   3.589   4.971  12.561 -0.1361 -0.0847  0.0481
23729W        W41253  12.549  13.208  14.315  0.1171 -0.1364 -0.1351
23730W        W41254  16.936   7.530  13.089  0.1458 -0.0714 -0.1479
23731W        W41255   7.414   7.810   3.850  0.0415  0.0863 -0.3103
23732W        W41256   4.625   3.741  12.599  0.2262  0.2517  0.2063
23733W        W41257  10.492   4.512  15.099 -0.0870  0.0833  0.3066
23734W        W41258   0.326  11.361  13.147 -0.1163 -0.1462  0.0326
23735W        W41259  13.612  16.573   4.518  0.2016  0.1838 -0.0953
23736W        W41260   7.051  15.417   1.938 -0.0948  0.0586  0.1233
23737W        W41261   9.405  10.513  15.520 -0.2055 -0.1372  0.0854
23738W        W41262   9.110  15.918  16.040  0.3137  0.0182  0.1243
23739W        W41263  16.486  12.945  14.060 -0.1116 -0.2628  0.0822
23740W        W41264  12.124   2.437   0.654 -0.0169  0.2041 -0.2413
23741W        W41265   8.585  16.553  13.101 -0.1167 -0.2578  0.2273
23742W        W41266  10.032   4.887   2.913  0.0665  0.0157  0.2752
23743W        W41267   2.304  10.228   3.710  0.0862 -0.0125  0.2495
23744W        W41268   4.456   7.459  14.016 -0.0989  0.2593 -0.4087
23745W        W41269   9.404   7.662   0.687 -0.0699 -0.2653 -0.1259
23746W        W41270   5.793  18.044   4.509 -0.5055 -0.0222 -0.0999
23747W        W41271   0.475  10.159   4.406  0.3554 -0.0499 -0.3322
23748W        W41272   0.256  11.556   1.366  0.0073  0.1952  0.2144
23749W        W41273   8.495  16.078   4.539 -0.1077 -0.0196 -0.0411
23750W        W41274   8.940   4.030   1.096 -0.0264  0.1426 -0.1851
23751W        W41275  14.396   6.096   0.696 -0.1321  0.1675  0.5148
23752W        W41276   3.411  10.926   3.277 -0.1047 -0.1041  0.1244
23753W        W41277   8.764  15.363  11.544  0.2725 -0.1545 -0.1193
23754W        W41278  10.710   3.185  14.203 -0.4769  0.3019  0.0646
23755W        W41279  10.197   2.979  15.759  0.2461  0.3211  0.2728
23756W        W41280  17.826   5.167  13.104  0.1598 -0.2434 -0.0472
23757W        W41281   1.468   7.823  12.167 -0.2777  0.0598  0.1332
23758W        W41282   1.068   4.901  15.503 -0.3498  0.4578  0.3875
23759W        W41283  14.566  15.592  11.666 -0.1677 -0.0867 -0.0120
23760W        W41284  11.489   3.533  11.726  0.2055  0.0441  0.1074
23761W        W41285   8.881  17.063  10.700  0.1616  0.0343  0.0769
23762W        W41286   0.638   7.646  14.910 -0.4421 -0.1202 -0.2295
23763W        W41287  15.823   0.294  14.245 -0.2022  0.0015 -0.0435
23764W        W41288  12.338   1.067  13.614 -0.0114  0.0211 -0.0645
23765W        W41289  17.860  17.600   0.220 -0.1589  0.0764  0.0269
23766W        W41290   1.036   7.011  12.948  0.0896  0.2292  0.1238
23767W        W41291  18.153  14.755  12.658 -0.0680 -0.0413 -0.3294
23768W        W41292   2.019   1.574   0.956 -0.3879  0.0840 -0.3158
23769W        W41293  10.672   7.645  12.832 -0.1618 -0.0403  0.0396
23770W        W41294   4.581   8.367  13.173 -0.1854 -0.1329  0.2180
23771W        W41295   1.037   6.179  11.601 -0.0177  0.0556  0.1233
23772W        W41296   8.280   8.363  14.805  0.0319  0.1025 -0.1565
23773W        W41297   8.124   1.225  12.730 -0.2692  0.1259 -0.1278
23774W        W41298   3.071  14.677   4.441  0.0872 -0.1064 -0.1206
23775W        W41299   0.530   4.759  11.642  0.0610  0.0992 -0.1867
23776W        W41300  12.233   3.470  15.027  0.0508  0.0784 -0.0856
23777W        W41301   6.696   8.225   1.602 -0.3198  0.3876  0.2063
23778W        W41302   1.170   8.132   0.529 -0.1522  0.0060 -0.1997
23779W        W41303  17.238  11.874   0.534 -0.1748  0.1442  0.1068
23780W        W41304   3.418  16.457  14.263  0.2070 -0.2809 -0.3102
23781W        W41305   7.741   3.003  14.551  0.0494  0.1710 -0.2401
23782W        W41306   4.860   1.308   4.056  0.1107  0.1604  0.0773
23783W        W41307   9.228  15.879  15.557  0.0270 -0.1552  0.2385
23784W        W41308   7.641   1.457   2.089 -0.2805  0.1540 -0.0362
23785W        W41309   4.281   4.716  16.018 -0.1326  0.1698  0.2184
23786W        W41310   5.615  14.225   0.412  0.0659  0.0917 -0.0668
23787W        W41311   6.189  14.161  14.032  0.0146  0.0028 -0.2027
23788W        W41312   2.616   9.402   3.274 -0.0362  0.1166  0.2003
23789W        W41313  16.009  14.982   1.607 -0.0311  0.1637  0.1779
23790W        W41314  17.317  17.433   3.585 -0.1068  0.2066  0.0747
23791W        W41315  15.995   1.949  14.604 -0.0371 -0.0725  0.0815
23792W        W41316  14.890   6.628   3.086  0.1823 -0.2949 -0.0668
23793W        W41317   2.301   4.165  14.095 -0.3310  0.1695  0.2191
23794W        W41318   4.729  14.679   2.756 -0.0618  0.0432  0.0968
23795W        W41319  10.082  13.611  11.832 -0.1661 -0.3431 -0.4170
23796W        W41320  13.275   4.404  15.548 -0.2916 -0.1470 -0.0358
23797W        W41321   9.559   8.369   2.633 -0.0493  0.0378  0.1949
23798W        W41322  13.864  14.250   1.379 -0.0793 -0.0899  0.3324
23799W        W41323   0.682   0.044  15.981  0.0383 -0.2242  0.0294
23800W        W41324  16.317  11.079  13.621 -0.4122 -0.0044  0.1011
23801W        W41325  17.898   3.000  15.756  0.0598  0.2551 -0.1320
23802W        W41326  16.112   7.303  11.247  0.3833  0.0707 -0.0475
23803W        W41327   0.672  15.364   2.067  0.1928  0.1478 -0.3030
23804W        W41328   2.305   1.211   4.241  0.1744  0.0315 -0.0871
23805W        W41329  15.913   5.870  14.568  0.0666  0.2669 -0.1633
23806W        W41330   2.478  15.238   1.921 -0.0969 -0.1304 -0.2959
23807W        W41331   0.427  13.320   0.072  0.2744  0.2233 -0.2344
23808W        W41332   3.700  16.579   1.399 -0.0410  0.2141  0.0015
23809W        W41333  12.274  13.518   1.327 -0.4655 -0.2401  0.5489
23810W        W41334  12.293   5.492  13.358 -0.0342 -0.0776 -0.3616
23811W        W41335   6.309  15.053  10.938 -0.3421 -0.3965 -0.0208
23812W        W41336  10.007   8.685   4.945 -0.1701 -0.1524 -0.2387
23813W        W41337   1.672  15.603  11.680  0.0108 -0.0174  0.0428
23814W        W41338   2.689  17.411  12.964 -0.1230 -0.2965 -0.1486
23815W        W41339   0.787   9.721  14.077  0.1043  0.0491  0.0573
23816W        W41340  11.861  11.926   6.032  0.0044  0.1526 -0.0262
23817W        W41341  11.284  12.019   5.611 -0.1893 -0.3478  0.0048
23818W        W41342   8.669  15.641   4.293  0.2692 -0.0440  0.0976
23819W        W41343   0.801  17.945   0.933  0.0912 -0.1079  0.1739
23820W        W41344  13.144   6.233  11.488  0.3017  0.1084  0.1213
23821W        W41345   1.911   9.107  13.577  0.3042  0.0863  0.0442
23822W        W41346   9.938   9.241   0.942  0.1895  0.2870 -0.1362
23823W        W41347   0.089   7.649  11.846 -0.2324 -0.2538  0.2950
23824W        W41348   4.753  14.380   4.571  0.0541  0.0910  0.1493
23825W        W41349   3.644  16.314  15.336 -0.0040 -0.2198 -0.2119
23826W        W41350   0.249  15.894  12.159  0.1930 -0.1267 -0.3052
23827W        W41351   9.634  14.446  12.439  0.1684  0.1820  0.1833
23828W        W41352  12.253   9.307   0.490 -0.1530 -0.4608  0.0867
23829W        W41353   2.234  17.793  12.207 -0.0654 -0.0843  0.0468
23830W        W41354  16.056   9.920   3.618  0.1201  0.0013  0.1083
23831W        W41355  11.791   2.030  13.470  0.1208  0.0710  0.1314
23832W        W41356  17.165   9.911   3.755  0.1468  0.1880  0.0286
23833W        W41357  17.462   6.242  10.849  0.0607 -0.1469 -0.2286
23834W        W41358  13.097   0.022  15.657 -0.1207  0.1592  0.2445
23835W        W41359   7.620   8.953  12.018 -0.0328 -0.3918  0.0917
23836W        W41360  12.722   7.320   1.609  0.0163  0.0245 -0.0659
23837W        W41361   7.811  11.931  13.798  0.0060  0.1123  0.0037
23838W        W41362  11.703   9.721  13.826 -0.0234  0.1653  0.0052
23839W        W41363  16.967   4.073   4.362  0.0685  0.1253  0.1706
23840W        W41364   1.356   1.841  13.516  0.0456  0.0243  0.2685
23841W        W41365  10.384  11.376   1.953  0.0555  0.0861 -0.3092
23842W        W41366  16.941   9.695  13.853  0.0996  0.1950 -0.0542
23843W        W41367   0.815   6.954  14.271  0.1742  0.1784  0.0970
23844W        W41368   1.227   3.137   1.368 -0.2457 -0.0742 -0.2749
23845W        W41369   0.226   9.803   0.706  0.1628  0.0973 -0.0044
23846W        W41370   2.397  12.914  13.944 -0.0394 -0.0439  0.0060
23847W        W41371  14.206  16.646   2.181 -0.0665  0.1218 -0.0976
23848W        W41372   1.080   8.466   3.130 -0.1737  0.0034  0.0281
23849W        W41373   9.082   7.162  11.865 -0.0625 -0.0766 -0.2425
23850W        W41374  17.011  10.421   1.733  0.1346 -0.3051 -0.2369
23851W        W41375  12.067   1.801  15.843 -0.1502 -0.2004 -0.0373
23852W        W41376  12.663   6.370  15.849 -0.5231 -0.0248  0.1671
23853W        W41377   4.216   5.547  11.726  0.0097  0.1059 -0.0169
23854W        W41378   2.444   2.473   1.751  0.0694  0.0428  0.0058
23855W        W41379  11.603   5.120   3.990  0.2125 -0.1521  0.0157
23856W        W41380   1.044  11.719  14.874  0.1521 -0.1615 -0.1678
23857W        W41381   8.625  13.232   4.028 -0.0655 -0.0442  0.2271
23858W        W41382  13.844  10.469   3.310 -0.0364  0.1954 -0.1497
23859W        W41383  13.286  17.418   1.415  0.5783 -0.2842 -0.0726
23860W        W41384  16.504  10.481  14.347 -0.0616  0.3451  0.0093
23861W        W41385   5.001  15.251   0.288  0.0396  0.0440  0.0728
23862W        W41386  16.150  15.940   3.646 -0.3646 -0.4558  0.1496
23863W        W41387  11.245   3.669  15.944 -0.0586 -0.0171  0.0287
23864W        W41388  16.016  11.815   2.468 -0.0062  0.1970  0.1007
23865W        W41389   3.095  18.035  14.917 -0.3233  0.0755  0.0734
23866W        W41390   7.570   3.373  14.843 -0.1353  0.0969 -0.0463
23867W        W41391  14.318   5.363  12.264 -0.2187  0.2015 -0.1896
23868W        W41392   7.451   8.802  15.863  0.1019  0.2081 -0.1993
23869W        W41393   6.140   8.604  11.908 -0.3103  0.0064  0.2555
23870W        W41394   0.039  14.749   4.837 -0.1768 -0.0354  0.2030
23871W        W41395   2.172   0.240   1.433  0.0680 -0.1843 -0.2563
23872W        W41396   1.012   5.983  13.201  0.3130  0.0984 -0.0371
23873W        W41397   6.356  16.294   0.116  0.3216  0.0146  0.1535
23874W        W41398   7.563  10.761  14.933  0.4198  0.0850 -0.4401
23875W        W41399   4.445   6.687   4.389 -0.0672 -0.2529 -0.0459
23876W        W41400   0.453   9.206   2.697  0.2861  0.0695 -0.0453
23877W        W41401  11.891   6.731  14.655 -0.1078 -0.1866  0.2869
23878W        W41402  17.720   9.067   4.813  0.3053  0.2768  0.1650
23879W        W41403  13.834  10.151   4.738 -0.1686 -0.1844  0.0347
23880W        W41404   0.678   2.313   3.528 -0.1003  0.0199 -0.2138
23881W        W41405  13.349   1.474   2.531  0.1056  0.1472 -0.2885
23882W        W41406  17.349  15.346  15.453 -0.1529 -0.0326  0.1550
23883W        W41407   3.789  12.037   4.654  0.0402  0.0513  0.3499
23884W        W41408   6.076  16.174   3.607 -0.1133 -0.3868 -0.0673
23885W        W41409  11.998   0.771   3.051  0.0388 -0.3583  0.2475
23886W        W41410   3.901  11.266   4.933  0.0447 -0.1712  0.3972
23887W        W41411   3.332   6.806  15.814  0.0297 -0.0583  0.3560
23888W        W41412   0.432   2.563  13.136 -0.0146  0.0015  0.1293
23889W        W41413  10.720   0.788   0.066 -0.1846 -0.1396  0.1078
23890W        W41414  13.368  10.940   3.206  0.1640 -0.0246 -0.0150
23891W        W41415  16.538  14.768  13.804 -0.0270 -0.0723  0.0701
23892W        W41416   2.202  17.427   0.109 -0.4808 -0.0492  0.1886
23893W        W41417   6.834  13.302  11.062  0.2102 -0.1764  0.1533
23894W        W41418  17.789  11.882  14.149  0.2686 -0.1737  0.3541
23895W        W41419   3.079   9.918  14.523  0.1415 -0.4256 -0.1416
23896W        W41420   2.802   8.226  13.933 -0.1933 -0.0259  0.1730
23897W        W41421   2.949   7.347   4.377 -0.1567  0.0175  0.1412
23898W        W41422   6.622  14.199  10.040 -0.2358 -0.0101 -0.3859
23899W        W41423   4.189   2.713  14.835 -0.2572 -0.3266 -0.2090
23900W        W41424   0.009  14.102  13.782  0.2937 -0.0237  0.2886
23901W        W41425  12.536   5.914   0.387  0.2739 -0.0451 -0.2607
23902W        W41426   7.062   3.257  14.896 -0.1599 -0.1126  0.1269
23903W        W41427   0.812   4.586   1.410 -0.2039  0.0158 -0.2312
23904W        W41428  12.611  12.590  14.108 -0.0611  0.0448 -0.1624
23905W        W41429  17.347   0.830   1.360 -0.0104 -0.0557  0.0075
23906W        W41430   3.426  16.374   2.449 -0.0291  0.1417  0.2971
23907W        W41431  11.587  14.623  14.820  0.1000 -0.1029  0.4469
23908W        W41432  16.955   6.373  12.635  0.2521  0.3183  0.1377
23909W        W41433   8.093  11.092   3.916 -0.2213 -0.3236 -0.0194
23910W        W41434   1.865   5.317   3.029  0.3873  0.1966 -0.1259
23911W        W41435  12.157   9.577  13.609  0.3766 -0.0347 -0.0880
23912W        W41436   1.983   6.062   0.856 -0.4478  0.2266  0.0576
23913W        W41437   0.646   0.862   3.571  0.0900  0.2838  0.0221
23914W        W41438  13.704   3.970   0.131  0.0918  0.3522 -0.1195
23915W        W41439   9.650   3.950   9.943 -0.1091  0.1222 -0.1913
23916W        W41440  11.787   4.470  10.591 -0.0228 -0.0365  0.3032
23917W        W41441   2.536   2.291  12.123 -0.3445  0.1102 -0.0781
23918W        W41442   1.618   6.651   1.385  0.4682 -0.2791  0.0677
23919W        W41443  17.375  11.811   3.367  0.1140  0.2556 -0.1510
23920W        W41444  15.868  16.831  15.316  0.0846 -0.1852 -0.1271
23921W        W41445   4.086  16.374   1.644 -0.1529  0.1505  0.0019
23922W        W41446   8.135   9.080  11.847  0.2322 -0.1740  0.2235
23923W        W41447   6.629   7.271   1.154  0.1663  0.1016  0.0967
23924W        W41448   2.909   9.349   1.160  0.0045 -0.1319  0.1266
23925W        W41449  14.923  14.590   5.612 -0.0305 -0.1340 -0.0865
23926W        W41450   9.111  10.371   3.429  0.3902  0.1737 -0.1872
23927W        W41451  17.444   3.914  14.797 -0.1236 -0.2254 -0.0393
23928W        W41452   4.304   6.878   3.360 -0.0749 -0.1238  0.0321
23929W        W41453   1.900  11.762  15.048 -0.2727  0.0084 -0.2628
23930W        W41454   4.701   4.457   1.837  0.5318 -0.0673  0.2912
23931W        W41455   6.138  17.404  14.526 -0.0076 -0.0602  0.1818
23932W        W41456  17.916   3.515   4.598  0.0805 -0.0990  0.0709
23933W        W41457  16.863  10.374   0.634 -0.0327 -0.0241 -0.0927
23934W        W41458   5.101   5.689  14.555 -0.2249 -0.1267 -0.1346
23935W        W41459  14.837  18.125  15.028  0.0474 -0.1416 -0.0299
23936W        W41460  12.129  17.597  11.824 -0.1819 -0.2188 -0.2394
23937W        W41461   7.192  13.180  11.847 -0.0470  0.1521 -0.0224
23938W        W41462   0.895  11.470   4.622  0.2139 -0.1464 -0.0880
23939W        W41463   8.955  17.655   1.068 -0.1715 -0.3279  0.0308
23940W        W41464  16.097   3.778   3.984  0.1282  0.0542 -0.1256
23941W        W41465  15.470  16.642   3.363 -0.0162 -0.1508 -0.2970
23942W        W41466  14.793  16.185   3.459 -0.1692  0.1559 -0.2714
23943W        W41467   3.760  11.009  11.256 -0.0312 -0.4374 -0.2938
23944W        W41468   4.203   7.798   3.457  0.1279  0.0580  0.2200
23945W        W41469   8.036   6.958  14.875 -0.0999 -0.0704 -0.2089
23946W        W41470  13.048  14.190  15.876  0.3535  0.1220 -0.0621
23947W        W41471   4.777   8.239   4.700  0.0715  0.0712 -0.0643
23948W        W41472   6.743  17.436  11.490  0.1717  0.0144  0.0555
23949W        W41473   2.476   8.658   4.013 -0.3718  0.0759  0.0028
23950W        W41474   7.443  10.490   2.374  0.0738  0.0426 -0.0129
23951W        W41475   8.645  13.136   5.074 -0.1078 -0.0813  0.1436
23952W        W41476   2.802   6.435   3.503  0.0302  0.2479  0.1676
23953W        W41477   0.736   7.011  12.026  0.0465  0.1813  0.1730
23954W        W41478   2.951   8.625   0.792 -0.0477  0.1114  0.1689
23955W        W41479   3.269   6.642   2.406 -0.2785 -0.0647  0.0301
23956W        W41480   6.660   4.876  11.020  0.1591 -0.0336  0.0060
23957W        W41481   7.280   4.250   0.557 -0.1034 -0.0635  0.0514
23958W        W41482   3.174  17.692  10.650  0.0146  0.4324  0.1837
23959W        W41483  17.723   3.512   4.049 -0.2048  0.2717 -0.0291
23960W        W41484  16.769  13.819  11.323  0.2137 -0.0146 -0.1768
23961W        W41485   9.577   9.054  14.051  0.0353  0.0042 -0.3657
23962W        W41486  12.404   9.494  11.389 -0.3613  0.1623 -0.3204
23963W        W41487   2.169  14.062   2.643 -0.1937  0.2820 -0.1203
23964W        W41488  12.905   9.008  13.434 -0.0166 -0.1173  0.2494
23965W        W41489   1.686   8.382   4.757  0.1247 -0.1228  0.1773
23966W        W41490  16.189  17.527   1.380 -0.1010 -0.1062  0.1799
23967W        W41491   6.779   3.913  11.729  0.1602 -0.0342 -0.0441
23968W        W41492   7.310  16.677  15.255 -0.1044 -0.1092  0.0089
23969W        W41493  16.961  11.720   0.953  0.2520  0.1449  0.4786
23970W        W41494  16.277  11.558  11.123  0.1680  0.1669 -0.0074
23971W        W41495  14.567  11.019   1.333 -0.1079  0.0245  0.2613
23972W        W41496  13.051   2.962   0.470  0.0742  0.2610  0.0716
23973W        W41497   2.526   8.776   0.643  0.1571 -0.1306 -0.0263
23974W        W41498   9.880   3.337   4.583  0.1835  0.1161 -0.0555
23975W        W41499  12.048  15.554   4.602  0.0584 -0.2823 -0.3273
23976W        W41500   1.886   3.025   4.020 -0.1486  0.0694 -0.2511
23977W        W41501  16.868  12.732   4.485 -0.5965 -0.1239 -0.0442
23978W        W41502   7.300   8.495   2.705 -0.1065  0.0559  0.0989
23979W        W41503   3.639   2.648   2.247 -0.1676 -0.0453 -0.1997
23980W        W41504  17.139   4.489   3.097  0.0459 -0.2724  0.0075
23981W        W41505  12.013   6.383  11.950  0.0892 -0.0467  0.2076
23982W        W41506   0.834  13.908   3.125  0.1743  0.0986  0.0627
23983W        W41507   8.605  10.659  15.063  0.0078 -0.1139 -0.1015
23984W        W41508  16.747   1.432  13.270 -0.0110 -0.2226 -0.3675
23985W        W41509  12.040   5.279  11.719 -0.2018  0.1747  0.1582
23986W        W41510   7.697  15.699  13.302  0.2035 -0.0113 -0.1088
23987W        W41511   2.312   5.669   1.632  0.0179  0.3871 -0.1498
23988W        W41512  14.262   1.198  11.156  0.1916  0.3696 -0.2353
23989W        W41513  14.722   8.738   2.409 -0.2064  0.0106 -0.2043
23990W        W41514   7.870  15.029  12.743  0.2874  0.0095  0.1563
23991W        W41515   3.023   3.827  12.401 -0.2783  0.2117 -0.0979
23992W        W41516   9.718   9.739  12.459  0.2425 -0.0153  0.0550
23993W        W41517  10.268   5.100  14.652  0.1832 -0.0473  0.0864
23994W        W41518   6.952  16.350  12.086  0.0167 -0.0228 -0.0324
23995W        W41519   7.919  14.670  15.832  0.0166  0.2045  0.1942
23996W        W41520   3.293   1.020  15.282  0.2267 -0.2514  0.3413
23997W        W41521   2.495   0.908  11.520  0.1913  0.2343 -0.1332
23998W        W41522  13.154  10.178  15.260  0.0365  0.1566 -0.1601
23999W        W41523   8.198   0.843  10.371 -0.3171  0.0618  0.0529
24000W        W41524   8.198   5.259  12.474  0.1560 -0.0085  0.1397
24001W        W41525   8.008   2.431   3.916  0.2774  0.0532 -0.0042
24002W        W41526   6.530   3.176  15.618 -0.1009 -0.2276  0.0596
24003W        W41527   3.428   2.873  10.754  0.2552 -0.0346 -0.0561
24004W        W41528   2.345   8.015   1.169 -0.4862  0.0256 -0.2817
24005W        W41529  15.450   1.491  13.856  0.0970 -0.1932 -0.1299
24006W        W41530  11.964   4.831   1.589 -0.2223  0.0809  0.2249
24007W        W41531   9.730   8.484   3.125  0.1436  0.0775 -0.3218
24008W        W41532   1.298   5.397   3.034 -0.1495  0.1885  0.0195
24009W        W41533  11.462   4.933  15.865  0.1558  0.0290 -0.1959
24010W        W41534   0.531   2.687  15.566  0.1044  0.0386  0.1858
24011W        W41535  11.926  10.925   0.876 -0.1283  0.1170  0.3320
24012W        W41536  11.872   2.701   2.487 -0.0896 -0.0157  0.3197
24013W        W41537   7.395  11.074   4.463 -0.2292 -0.0242 -0.0938
24014W        W41538   4.506  15.675  12.350 -0.3096  0.1355 -0.4050
24015W        W41539   7.974   0.093  13.641 -0.2410 -0.1407  0.4618
24016W        W41540   0.693  15.507  13.656  0.1111  0.0909 -0.2382
24017W        W41541   7.334   9.406  12.010 -0.2450 -0.1778  0.0191
24018W        W41542  11.880   1.886   3.612  0.2189  0.1509  0.0959
24019W        W41543   8.010  12.541   1.429  0.3225 -0.3623  0.0383
24020W        W41544  15.775   5.099   2.779  0.2336  0.1996  0.0728
24021W        W41545  13.393  12.299  15.986 -0.1193 -0.0902 -0.2816
24022W        W41546  13.638  13.391   2.378  0.0637 -0.0532  0.2937
24023W        W41547   8.758   0.533   4.486 -0.1107  0.0842  0.2180
24024W        W41548  16.445  15.619  13.353  0.0719 -0.0689 -0.0957
24025W        W41549  12.550   6.400  14.516  0.1882 -0.1939 -0.3172
24026W        W41550  13.807   7.380  15.160  0.1177  0.0454  0.0637
24027W        W41551  17.974  12.629   2.446  0.1320 -0.2243 -0.1633
24028W        W41552   8.568   6.249   2.871  0.1246  0.0161  0.0479
24029W        W41553   7.788   7.540  12.343 -0.1514 -0.2823  0.0122
24030W        W41554   1.883  12.958   1.765  0.0887 -0.0650 -0.0025
24031W        W41555   4.510  17.018  13.784  0.2131  0.1319  0.2666
24032W        W41556  17.230   5.737  13.413  0.0005  0.1064  0.1659
24033W        W41557  13.699   0.456   0.892 -0.0970 -0.3699  0.3811
24034W        W41558   1.425   5.093   4.470  0.0082  0.1748  0.2097
24035W        W41559  11.308   9.548  15.133  0.1208 -0.1008  0.0772
24036W        W41560   8.035  15.557  13.665  0.1711 -0.2901  0.3825
24037W        W41561  13.476  17.682   4.849  0.1297 -0.0841  0.1977
24038W        W41562  12.549  10.848   2.722  0.0575 -0.0701 -0.1749
24039W        W41563   1.026  14.018   0.784 -0.0103  0.0799  0.0541
24040W        W41564   4.724   3.381  11.519  0.0911  0.0223 -0.0282
24041W        W41565  10.424   6.687   4.242 -0.0268 -0.1881 -0.2712
24042W        W41566   3.999  10.714   5.054 -0.0782  0.1797  0.1135
24043W        W41567   3.122  15.586  12.305 -0.2739 -0.2223  0.0217
24044W        W41568  10.009   4.966  12.486  0.1374  0.1923 -0.0829
24045W        W41569   4.448   5.027  14.341 -0.2710  0.0645 -0.3576
24046W        W41570  11.987   4.725   5.716  0.1102  0.0980 -0.2240
24047W        W41571   5.198  11.281  10.796  0.1130 -0.1200 -0.2243
24048W        W41572   0.797   0.914  11.894  0.0520 -0.0088  0.2302
24049W        W41573   3.048   6.208  14.742  0.0441  0.2567 -0.0586
24050W        W41574   5.471  13.040   4.348 -0.2237  0.0304  0.0101
24051W        W41575   0.170   1.678   4.703  0.0133 -0.3209 -0.0261
24052W        W41576   0.772   5.718  13.549 -0.2459  0.0640  0.0204
24053W        W41577  17.965   3.510   0.748 -0.1139 -0.0525 -0.0002
24054W        W41578  16.978  10.494  14.128  0.3117 -0.0691  0.0951
24055W        W41579  15.619  13.370  13.733  0.3473 -0.2461  0.1691
24056W        W41580   3.681  11.008  10.704 -0.0850 -0.0746 -0.0192
24057W        W41581   1.456  10.175  15.869  0.2184 -0.1409 -0.1512
24058W        W41582  12.516   1.330  14.819 -0.1988  0.0281 -0.3034
24059W        W41583  14.844   3.735  13.719  0.2320 -0.2617 -0.1449
24060W        W41584   1.916   0.335  12.658  0.1887 -0.1137 -0.1161
24061W        W41585  12.187   9.543  12.206 -0.2501 -0.4262  0.0987
24062W        W41586   9.411  11.669  12.288 -0.1113  0.0060 -0.2219
24063W        W41587   1.944  13.824  14.993  0.1453  0.3647  0.2716
24064W        W41588   4.480   5.443  13.588 -0.0730 -0.1047  0.2477
24065W        W41589  12.561   5.238  11.647  0.1698 -0.0207  0.2762
24066W        W41590   4.681  11.484  10.899 -0.1978  0.2272  0.2810
24067W        W41591  15.398   1.631  15.165  0.0537 -0.2404  0.1672
24068W        W41592   2.839  15.118   4.681  0.0540 -0.2054 -0.3428
24069W        W41593  11.661  10.012   1.888 -0.1417  0.0065 -0.1324
24070W        W41594  13.916  10.390   2.204 -0.0578 -0.0624 -0.2186
24071W        W41595   0.082  13.119  14.175 -0.4579  0.0934 -0.2116
24072W        W41596  11.505  13.693  13.176  0.1241  0.2621 -0.0447
24073W        W41597   2.529  12.022   2.212 -0.1689  0.1968  0.1807
24074W        W41598   7.440   3.802   2.826  0.3441 -0.0365 -0.0943
24075W        W41599   8.620  15.792   0.120  0.0973  0.1029 -0.0074
24076W        W41600  12.926  12.974  15.534 -0.2419 -0.2294  0.3590
24077W        W41601   3.702   2.919  11.735  0.0981 -0.0767  0.1750
24078W        W41602  12.977  16.197  14.972  0.0900 -0.1411 -0.2707
24079W        W41603   3.314   1.571   4.260  0.1263 -0.0059 -0.1685
24080W        W41604   6.322  17.007  13.115 -0.0095  0.0430 -0.0452
24081W        W41605  15.618   8.361  11.843 -0.1256 -0.2465 -0.1167
24082W        W41606  10.082   7.547  13.797  0.1684 -0.3574 -0.0681
24083W        W41607  12.928  18.020   0.521 -0.1403  0.0652  0.1970
24084W        W41608   6.328   1.355   1.479 -0.0481  0.1055  0.2690
24085W        W41609  13.941  15.250   2.681 -0.1714  0.0592  0.0951
24086W        W41610   5.125   1.179  12.251  0.0740 -0.1117 -0.2444
24087W        W41611  16.864  10.837   3.264  0.1003 -0.0558  0.1113
24088W        W41612  13.458   5.407   3.735 -0.4205  0.0707 -0.1074
24089W        W41613   8.376   1.630   1.410  0.1369 -0.5994  0.0150
24090W        W41614   6.920  17.865   0.985 -0.2125 -0.0917  0.0890
24091W        W41615   2.560  15.156  15.340 -0.2164  0.0107  0.1356
24092W        W41616  14.833  17.735  12.070 -0.0929 -0.0487  0.0541
24093W        W41617   6.370   4.210  11.698  0.1211  0.1994  0.0406
24094W        W41618  17.033  16.856   1.049  0.3859 -0.1434  0.1749
24095W        W41619  14.004  15.684   0.450  0.1384 -0.2203 -0.3430
24096W        W41620   3.973  13.377  12.963 -0.2051 -0.1074 -0.1057
24097W        W41621   6.796   0.074   0.107 -0.2214 -0.2760  0.1759
24098W        W41622   6.590   6.708  12.507  0.0148 -0.0195 -0.1771
24099W        W41623  15.268   8.149  15.736 -0.1918  0.1043 -0.0141
24100W        W41624   9.027  17.478  11.754 -0.3287  0.1255  0.1144
24101W        W41625   0.749  16.196  11.318 -0.0512  0.0005  0.3157
24102W        W41626  13.740  16.114   4.941 -0.1717 -0.0103 -0.1834
24103W        W41627  10.312  11.610   4.729 -0.3069 -0.1826  0.1923
24104W        W41628   5.068  13.979   0.672  0.0337  0.1203 -0.1931
24105W        W41629  10.506   9.292  15.572  0.1778  0.0178 -0.0672
24106W        W41630  13.001  12.300   2.513 -0.3685  0.0645  0.0593
24107W        W41631  12.759   4.026  14.071 -0.1385  0.3292  0.2231
24108W        W41632   3.649   4.100   2.966  0.2161 -0.0430  0.0085
24109W        W41633   7.151  11.040  14.987 -0.4770 -0.0293 -0.2141
24110W        W41634  14.640  11.281   5.766 -0.0997 -0.2755 -0.1951
24111W        W41635  11.300  16.379  13.422  0.0374 -0.0516  0.2757
24112W        W41636  15.084   4.637   4.326  0.0281 -0.0133 -0.2994
24113W        W41637   6.587  17.168  14.156 -0.0202 -0.0606  0.2430
24114W        W41638  11.770  17.628  10.471  0.0086 -0.1215 -0.0194
24115W        W41639   1.481   2.766  15.303 -0.0911 -0.0900 -0.0996
24116W        W41640   1.759   8.608   1.851  0.2572  0.0801  0.0434
24117W        W41641   1.222  11.855   4.242  0.0719 -0.3891  0.1889
24118W        W41642   9.097   5.914  14.802  0.0418 -0.4096  0.1187
24119W        W41643   1.857   8.233   0.478 -0.0688 -0.1571 -0.1943
24120W        W41644   2.483   1.173  15.496  0.1838  0.0238  0.3042
24121W        W41645   9.593   5.234  12.239 -0.0096 -0.0893 -0.2920
24122W        W41646  14.149  10.842   3.494  0.0837 -0.0157 -0.1840
24123W        W41647  16.456   3.823   2.522 -0.1140 -0.0987 -0.0101
24124W        W41648  16.229   0.549   2.798  0.1129 -0.0438 -0.0352
24125W        W41649  10.273   0.320   1.186  0.1337 -0.2353  0.5386
24126W        W41650   6.098  13.343   2.076 -0.1311  0.1071  0.1052
24127W        W41651  12.389  16.462   2.734 -0.1581  0.0646 -0.1642
24128W        W41652  10.428   1.482   3.022  0.1212 -0.1747  0.1043
24129W        W41653  13.189  11.849   1.680 -0.1333 -0.2071 -0.1669
24130W        W41654   9.434  13.081  12.019  0.1724  0.0417  0.0927
24131W        W41655   8.313  12.536   4.201  0.1010 -0.2090  0.0952
24132W        W41656   1.967  13.539   4.560 -0.1010 -0.0360 -0.2024
24133W        W41657  11.059   5.499   2.950  0.2751 -0.0686  0.0281
24134W        W41658  13.364  10.479   1.943 -0.2406  0.0219 -0.2345
24135W        W41659  13.606  12.895   4.410  0.0523  0.0626  0.1705
24136W        W41660  13.659  11.321   4.013  0.1428  0.1469 -0.0121
24137W        W41661   0.035  16.453   4.886  0.1833  0.3524 -0.1739
24138W        W41662   6.830   2.351  11.995 -0.2683  0.1108  0.0792
24139W        W41663   3.059   8.783  14.876  0.1429  0.1146 -0.0773
24140W        W41664   8.069   0.416   1.098  0.3603  0.1443 -0.0033
24141W        W41665   8.871   6.853   3.389 -0.1917  0.0628 -0.1967
24142W        W41666   5.042  12.973  14.805 -0.2481  0.1763  0.1981
24143W        W41667  12.687   1.932  13.589  0.0732  0.1423  0.0932
24144W        W41668   4.039   5.513   1.355  0.0372  0.2171  0.2322
24145W        W41669  10.225  14.775  14.017 -0.1837  0.1347  0.1435
24146W        W41670  12.967  14.604  13.394  0.0507  0.0322  0.3901
24147W        W41671   5.103   8.845  12.415 -0.0614  0.0794 -0.2015
24148W        W41672   8.863   0.450   3.926  0.1295 -0.1411 -0.0514
24149W        W41673   5.895  16.843  12.965  0.0403  0.1608  0.0091
24150W        W41674   6.219  10.762   0.193  0.0100  0.0972 -0.2001
24151W        W41675   1.903   1.998  11.531  0.1106 -0.1559  0.0030
24152W        W41676  16.141   4.155  14.588 -0.2012  0.2465  0.1069
24153W        W41677  17.155   0.732  14.049  0.2459  0.0433 -0.1436
24154W        W41678  11.092   2.973  10.376  0.2627 -0.1011 -0.0838
24155W        W41679   2.963  12.614  12.542 -0.0851 -0.1029 -0.1516
24156W        W41680  10.775   0.792  15.071 -0.1112 -0.0730 -0.3807
24157W        W41681   8.869   8.297  11.921 -0.0308 -0.0645  0.0117
24158W        W41682   2.456  10.821  15.912 -0.0407 -0.0006  0.1814
24159W        W41683  11.256   9.786  14.122  0.0506 -0.0120  0.0251
24160W        W41684   6.807  15.489   0.210 -0.3134 -0.1476 -0.0038
24161W        W41685  13.769   8.135   1.380  0.1912 -0.0956  0.1730
24162W        W41686   4.775   6.274  15.602 -0.0804  0.0027  0.0807
24163W        W41687   9.193  14.425   1.748 -0.2220 -0.1244  0.0161
24164W        W41688   8.728   1.875  14.502 -0.0419 -0.1457  0.1029
24165W        W41689  12.462   7.517   3.634 -0.0181  0.3163 -0.4310
24166W        W41690  10.642   2.223  14.346 -0.1778  0.0722  0.1195
24167W        W41691  13.822   0.615   1.508 -0.1133 -0.2674  0.1016
24168W        W41692   6.889  11.643  13.758 -0.1486 -0.1993  0.0342
24169W        W41693  17.430   6.479  15.790  0.0901 -0.1737  0.0462
24170W        W41694  12.710   6.767  14.235 -0.0286 -0.3029 -0.0003
24171W        W41695   9.042   2.130  13.876  0.0291  0.4479 -0.0130
24172W        W41696  12.077  12.951   4.690  0.0947  0.2128 -0.2653
24173W        W41697  11.736  13.649  10.097 -0.2550  0.0164 -0.1293
24174W        W41698  15.082  13.412  14.904  0.2279 -0.0105 -0.1860
24175W        W41699   1.696  11.295  15.560  0.2964 -0.0533  0.2131
24176W        W41700  15.933   2.221  11.780 -0.0373  0.0726 -0.0348
24177W        W41701   3.562   3.620   3.018  0.1665 -0.0238  0.2404
24178W        W41702   8.238   0.412  11.841  0.1498 -0.0700 -0.1676
24179W        W41703  14.784  16.197  14.587  0.1207  0.0281 -0.3612
24180W        W41704   8.586  13.390  14.779  0.3746  0.0368 -0.0661
24181W        W41705   6.866   9.184   2.401 -0.2793  0.1214  0.0830
24182W        W41706  11.587  11.824  13.979 -0.0055  0.0204  0.0358
24183W        W41707  12.742   5.395  14.754  0.0658 -0.1770 -0.2569
24184W        W41708  14.392  16.780  14.088 -0.0530  0.2803 -0.0399
24185W        W41709   1.516   5.960  13.734 -0.1017 -0.4257 -0.2688
24186W        W41710  17.126  11.903   4.044 -0.0908 -0.2378  0.0008
24187W        W41711  10.099  15.908   1.025 -0.1705 -0.4219 -0.2747
24188W        W41712   8.434  14.276  12.152 -0.2898 -0.0340  0.0803
24189W        W41713  17.395   2.819  15.685 -0.0002 -0.1063 -0.1756
24190W        W41714  12.193  15.435  14.818  0.2483 -0.2023  0.2447
24191W        W41715  17.685   2.105  12.056 -0.3304  0.0028 -0.0158
24192W        W41716  13.389   5.508  11.905  0.0660 -0.0676  0.3274
24193W        W41717   1.667  17.672  12.608 -0.0223 -0.2719 -0.2350
24194W        W41718   2.935  14.039   2.516 -0.1811  0.1534 -0.1258
24195W        W41719   3.171   9.520  11.700  0.2125 -0.1583 -0.2375
24196W        W41720   6.553   2.014   0.686 -0.0310 -0.2452 -0.0839
24197W        W41721  10.205   2.712  13.067  0.0290  0.1390 -0.0089
24198W        W41722   7.434  11.070  11.058  0.0174 -0.1357  0.1572
24199W        W41723  16.261   7.388  14.327 -0.2667 -0.2039  0.1373
24200W        W41724   6.731  15.980  10.767 -0.2767  0.1381  0.2075
24201W        W41725   6.354   6.316   1.570  0.0867  0.2136 -0.2794
24202W        W41726  12.638   2.301   3.171 -0.1772  0.1763 -0.2316
24203W        W41727  15.510  16.340  10.713  0.1793 -0.0255 -0.0856
24204W        W41728  11.570  16.154  10.833  0.1174  0.1959  0.1677
24205W        W41729   5.870  17.192   1.330  0.0470  0.1302  0.3033
24206W        W41730   6.931  10.643   1.098 -0.3445 -0.0927  0.2517
24207W        W41731  14.048   9.236  15.845  0.2842 -0.0774 -0.0678
24208W        W41732   9.537   6.392  15.949  0.0631  0.1181 -0.0801
24209W        W41733   7.167  12.956  15.357 -0.4278 -0.0064  0.1786
24210W        W41734  15.259  10.675  15.574 -0.0149  0.1782 -0.2687
24211W        W41735   5.982  17.476  12.290 -0.0948 -0.1525  0.0455
24212W        W41736  17.323   0.442  14.803  0.0250 -0.1112 -0.0066
24213W        W41737   2.839   2.412   2.463 -0.0184  0.0264 -0.2946
24214W        W41738   4.141  14.892  10.273 -0.3566  0.0276 -0.1058
24215W        W41739   3.404   2.078  14.888 -0.0781 -0.3444  0.2267
24216W        W41740  17.249   1.872  13.779  0.1635 -0.1481 -0.1491
24217W        W41741   6.127  11.500   2.953  0.2954 -0.3309  0.0228
24218W        W41742   9.704   0.367   4.252  0.2524  0.1901  0.1718
24219W        W41743   1.643  12.485   2.687  0.1045  0.3341  0.1773
24220W        W41744  13.414   3.639  13.347  0.0941 -0.0874 -0.2359
24221W        W41745   4.583   7.227   1.198 -0.0618  0.2193  0.0125
24222W        W41746  13.379   0.910  14.049 -0.1469 -0.1099 -0.3054
24223W        W41747  17.049   8.959   1.037  0.1241  0.0356  0.2197
24224W        W41748   5.225   4.346   5.837  0.0402  0.0251  0.1769
24225W        W41749   6.888  16.728   3.117  0.0232  0.0060  0.0263
24226W        W41750   1.359   0.509   1.059  0.0073  0.1223 -0.0074
24227W        W41751   6.609   6.011  11.270 -0.1045 -0.0319  0.0768
24228W        W41752  14.410  12.900  11.715  0.2497  0.2132  0.0458
24229W        W41753  14.087   8.675  15.907  0.0705  0.0214  0.1187
24230W        W41754  17.723  17.344  13.881 -0.1708  0.0424 -0.0757
24231W        W41755   6.213   9.086   1.292 -0.3232 -0.0138 -0.3630
24232W        W41756   6.252   6.692   1.861  0.0351 -0.1673  0.1807
24233W        W41757  16.265   1.890   1.113 -0.0406  0.0923  0.0515
24234W        W41758   6.221   4.884   2.975  0.1785 -0.0723 -0.1386
24235W        W41759  15.418   5.616  15.333 -0.0867 -0.0907 -0.1184
24236W        W41760   2.603  14.778   2.052 -0.1753 -0.0845 -0.0392
24237W        W41761   5.585  14.430   5.805 -0.1563  0.1152  0.2524
24238W        W41762   1.227   3.783   1.071 -0.0551 -0.1705 -0.1416
24239W        W41763   1.607  15.943  10.990  0.0219 -0.3373  0.0546
24240W        W41764  11.285   8.768  15.603 -0.0941  0.2166 -0.1758
24241W        W41765   6.294   5.745  12.541  0.0385  0.0026  0.3367
24242W        W41766  12.627   3.641   1.037  0.0778 -0.1450  0.1704
24243W        W41767   3.186   1.628   3.128 -0.2218  0.0405  0.0501
24244W        W41768   4.106   3.703  15.902  0.1056  0.0783  0.0416
24245W        W41769   5.039   0.055   1.030  0.1580 -0.1426  0.0157
24246W        W41770  16.684   2.842  15.757  0.1709 -0.2584 -0.1993
24247W        W41771  10.153  12.336   1.836 -0.4709  0.2283  0.0837
24248W        W41772  10.817   3.655   1.863  0.1794 -0.0067  0.1506
24249W        W41773  11.273  15.479  14.340 -0.0381  0.1425  0.1681
24250W        W41774  10.189   8.332   1.901 -0.1859 -0.0955  0.0090
24251W        W41775   0.694  11.945   1.543 -0.0337 -0.1089 -0.0653
24252W        W41776  12.560   4.995  12.557 -0.1460 -0.1391  0.0184
24253W        W41777   0.269   6.972  13.310 -0.1485  0.1518 -0.1530
24254W        W41778   2.988   7.553   4.827  0.2277 -0.1711 -0.0821
24255W        W41779   5.399  11.476  13.497  0.2413  0.0411 -0.0137
24256W        W41780   4.612  15.422   1.264  0.2336  0.1792 -0.0436
24257W        W41781   4.317   6.836  14.819 -0.1353  0.2539 -0.1417
24258W        W41782   5.099  17.141  15.074  0.3655  0.2511  0.1253
24259W        W41783   6.840   8.219  11.420  0.2565  0.0724  0.3058
24260W        W41784   3.577   8.485  14.258 -0.2445 -0.1629 -0.1142
24261W        W41785  17.044   6.494  12.197 -0.0049 -0.0763  0.0989
24262W        W41786   0.189   0.467   4.403 -0.2052 -0.0913  0.1572
24263W        W41787   3.914  10.485  10.622 -0.0922  0.2601  0.1753
24264W        W41788   0.037   4.803   0.502  0.1340 -0.2777  0.1692
24265W        W41789  12.527  12.096   2.358 -0.2132  0.1444  0.0952
24266W        W41790   7.574   3.810   0.466 -0.0220  0.2541 -0.1042
24267W        W41791  16.008   5.994   0.075 -0.2008 -0.1006  0.0345
24268W        W41792  12.214   5.535   0.350  0.1177 -0.0090 -0.3184
24269W        W41793   9.989  10.615  15.550 -0.1286  0.0480 -0.2337
24270W        W41794   9.359  17.943   2.092 -0.0670 -0.0189  0.0743
24271W        W41795   1.723   5.783  14.188  0.2817  0.1831 -0.0410
24272W        W41796  16.306  15.509   5.248  0.0883  0.1014  0.1094
24273W        W41797  11.520  13.272  15.661 -0.0543 -0.1820  0.2624
24274W        W41798  10.551   6.344  14.878  0.2069 -0.0681 -0.0978
24275W        W41799  11.186   0.678  13.199 -0.3274  0.1873  0.2969
24276W        W41800   0.537   1.268  15.228 -0.2038  0.1470 -0.1121
24277W        W41801   6.370   7.085  14.495 -0.1040 -0.2281 -0.1842
24278W        W41802  11.468   0.411   0.804  0.0866  0.1980  0.1023
24279W        W41803   2.192   8.814  14.840 -0.2086  0.1570 -0.0515
24280W        W41804  16.237  17.588   4.697  0.2195  0.1371 -0.0282
24281W        W41805  17.770  11.905   2.343 -0.2411  0.1059 -0.1187
24282W        W41806   1.602   3.087  13.185 -0.0255 -0.0818 -0.1010
24283W        W41807  15.507   7.216   2.146 -0.1903  0.0089  0.0039
24284W        W41808   6.801   5.416  15.140 -0.0958 -0.1015 -0.3606
24285W        W41809  10.039   8.238   3.996 -0.1072  0.0600 -0.1351
24286W        W41810   6.655   2.497  13.705 -0.3000 -0.2782 -0.0072
24287W        W41811  11.686   0.099   2.278 -0.1361  0.0008  0.2539
24288W        W41812  15.493   3.924   2.767  0.0970 -0.0492 -0.0196
24289W        W41813   3.706  12.441   2.818  0.1849  0.1374  0.0881
24290W        W41814   9.953  17.022   3.642  0.3285  0.0129 -0.2324
24291W        W41815   4.823  17.493   2.710 -0.2758 -0.1247  0.0849
24292W        W41816  12.837  17.291  15.545  0.0280  0.0332 -0.0417
24293W        W41817  10.064  17.494  11.095  0.0203 -0.3649 -0.0574
24294W        W41818  11.261   8.430  14.362  0.2536 -0.1245  0.0564
24295W        W41819   9.782   4.573   4.650 -0.1524  0.0528 -0.1410
24296W        W41820  13.120   0.587   0.786  0.0353  0.2572 -0.2502
24297W        W41821  10.670  12.521  13.103  0.0887  0.0167  0.0841
24298W        W41822   5.226  11.412   0.127 -0.4486  0.1821 -0.1850
24299W        W41823   2.625   2.385   3.660  0.2067  0.1462  0.2020
24300W        W41824   7.065  15.577   2.713 -0.1604  0.0051 -0.1930
24301W        W41825  11.197  17.274  15.104 -0.1558 -0.0895  0.0867
24302W        W41826   2.900   3.393  13.216 -0.1930 -0.0975  0.1263
24303W        W41827   5.835  15.676  11.884 -0.0915  0.1930  0.0294
24304W        W41828  13.999   6.617   3.636 -0.1402 -0.1891  0.2637
24305W        W41829  15.988   7.409  10.759 -0.0624  0.0348  0.0987
24306W        W41830   7.474   0.818   0.873 -0.1067 -0.2809 -0.1366
24307W        W41831  16.935  15.754  13.142  0.0542 -0.3244  0.4113
24308W        W41832  11.915  10.157   3.743 -0.0032 -0.2378  0.1372
24309W        W41833  13.746   0.592  15.539  0.3611  0.0855  0.1654
24310W        W41834  11.260   3.338   4.163 -0.0704 -0.0473 -0.2831
24311W        W41835   1.632   2.767   3.460  0.2046  0.0218 -0.2343
24312W        W41836   9.701  17.214   3.235 -0.0954 -0.1465  0.0783
24313W        W41837  10.875   3.604   4.413 -0.0092  0.2530 -0.1183
24314W        W41838   0.395  12.399   4.514 -0.0727 -0.0845  0.3452
24315W        W41839   7.068   5.004  10.752  0.0055 -0.0738  0.0312
24316W        W41840   2.605   7.025   2.155 -0.1387 -0.0779 -0.1140
24317W        W41841  10.171   4.966   3.725  0.1848  0.1284  0.0418
24318W        W41842   0.543   3.087   4.569 -0.0819  0.2197  0.0958
24319W        W41843   1.804  12.311  13.214 -0.1481 -0.2848  0.0198
24320W        W41844   0.642   2.522   3.068 -0.4829 -0.2154  0.1464
24321W        W41845  15.153   6.292  12.921  0.2305  0.0715 -0.3560
24322W        W41846   9.874   8.847  15.467  0.1157 -0.1448 -0.1927
24323W        W41847  15.072   7.774   0.361  0.0835  0.1769 -0.0647
24324W        W41848  14.421  12.426  15.855 -0.2262 -0.1409 -0.1953
24325W        W41849  13.435   3.394  11.445  0.0727  0.0937 -0.4308
24326W        W41850  12.540   5.325   1.120  0.1234 -0.0226 -0.0212
24327W        W41851  10.845   1.813  12.698  0.2186  0.1776 -0.2333
24328W        W41852  15.974  17.350  14.467  0.1476 -0.2727 -0.2622
24329W        W41853   7.217   8.709  12.854 -0.0870  0.2805 -0.0755
24330W        W41854  15.981  12.526   5.705 -0.2533 -0.0882 -0.0484
24331W        W41855  16.726   9.472  15.489  0.1406 -0.1376 -0.4067
24332W        W41856  11.313   2.129  13.719 -0.3178 -0.0768  0.1461
24333W        W41857   8.041  11.404   0.623 -0.0188 -0.2214  0.2303
24334W        W41858   1.100  12.712   1.111 -0.1934  0.0635 -0.2940
24335W        W41859   5.858  11.544  14.835  0.2511  0.1825 -0.1509
24336W        W41860  13.858  14.173   4.176  0.1262 -0.0593 -0.2882
24337W        W41861  15.554  15.622   3.932  0.2558 -0.0010 -0.1046
24338W        W41862   5.872  16.340   5.280 -0.0830  0.0499  0.2533
24339W        W41863   9.817   9.245  11.504  0.0151  0.4500 -0.2231
24340W        W41864   8.284   8.136  11.122 -0.2319 -0.1137 -0.2140
24341W        W41865  14.276   6.576  14.949  0.0856 -0.2502 -0.0107
24342W        W41866   2.757   7.451  13.496  0.3564 -0.1675 -0.1799
24343W        W41867   2.917   5.895   3.686  0.0933  0.1501 -0.1201
24344W        W41868  17.401   1.205   1.716  0.1780  0.1976  0.1113
24345W        W41869  11.818  18.159  13.912 -0.2325 -0.2159  0.3197
24346W        W41870  13.814   2.825   1.083 -0.2263 -0.3597 -0.0259
24347W        W41871  13.982  14.497   0.597  0.1675 -0.0908 -0.1599
24348W        W41872   8.530  18.004  14.636  0.0856 -0.0255  0.0504
24349W        W41873   6.014   0.534  12.709  0.0547  0.1418 -0.3135
24350W        W41874  17.376   5.608   2.324  0.1512 -0.2613  0.2463
24351W        W41875   7.783   3.424   1.024  0.0202  0.2077  0.2326
24352W        W41876  10.729   4.436  14.606  0.2149  0.0340 -0.1926
24353W        W41877  11.222   4.710  12.810  0.3029  0.2790  0.1900
24354W        W41878   8.159  11.776  15.685 -0.0348  0.1353 -0.0913
24355W        W41879  17.034   2.138   3.119  0.0250  0.2830  0.1266
24356W        W41880   8.097  10.354  13.474  0.1490 -0.0189  0.3509
24357W        W41881   6.759  15.133  14.720  0.1328  0.0989  0.0778
24358W        W41882  17.020   7.071   1.264 -0.0643 -0.0452 -0.1358
24359W        W41883   5.550   9.036   5.867 -0.0196  0.0591  0.1421
24360W        W41884  14.146  15.529   3.464  0.1476  0.1696 -0.2143
24361W        W41885   6.651   4.098  14.794 -0.0924  0.1027 -0.3658
24362W        W41886   0.252  16.166   4.009  0.2830  0.2817 -0.1905
24363W        W41887  13.929   7.095   3.603 -0.0122  0.0185 -0.1347
24364W        W41888   7.796  10.854  15.398 -0.1809 -0.0222 -0.1912
24365W        W41889  12.821   8.399   0.223 -0.0960  0.2788  0.1169
24366W        W41890   5.092  10.418  12.377 -0.0294 -0.0754 -0.3897
24367W        W41891  13.755  15.178  13.487 -0.0125 -0.1102  0.2283
24368W        W41892   6.545   2.801   1.555  0.2904 -0.0002  0.0203
24369W        W41893   0.748   7.080   1.720  0.0017 -0.3007 -0.2936
24370W        W41894  12.317   1.152   3.303  0.0915  0.1536  0.0915
24371W        W41895   6.012   7.087   4.501  0.1596  0.1793 -0.3919
24372W        W41896  11.018  15.917  15.781  0.0815  0.0188  0.0824
24373W        W41897   3.078  17.336  14.808  0.1137 -0.2593 -0.1070
24374W        W41898  17.935   3.747   1.179  0.0154 -0.0750  0.3543
24375W        W41899   6.208   2.674   1.155 -0.3528 -0.1160  0.1837
24376W        W41900  13.286   3.966   3.104 -0.0345 -0.0869  0.1845
24377W        W41901   4.075  13.064   2.790 -0.0927 -0.1658 -0.0941
24378W        W41902  16.876   2.882  14.877  0.0022  0.1225 -0.1999
24379W        W41903  15.217  10.542  12.560 -0.0849 -0.1725  0.0983
24380W        W41904   0.711  13.728  12.377  0.1087 -0.4927 -0.2316
24381W        W41905   6.803  16.032  14.866  0.1422  0.2006 -0.1383
24382W        W41906  14.063   7.258  14.292  0.3087  0.2106 -0.0412
24383W        W41907   8.067  10.359   5.262  0.2146  0.0100 -0.1048
24384W        W41908   8.203   0.707   1.609  0.0447 -0.3331  0.4876
24385W        W41909   6.403   2.419  15.844  0.1753 -0.1380  0.0118
24386W        W41910   1.744  11.838  11.440  0.0727 -0.0965 -0.1172
24387W        W41911   3.040   9.348  13.357  0.1052 -0.1477  0.0117
24388W        W41912   1.867   4.938   3.339 -0.1326  0.3078 -0.1326
24389W        W41913   6.658   4.181   3.779 -0.0414 -0.0978  0.1503
24390W        W41914  13.760  10.495  13.634  0.3504  0.1516 -0.0908
24391W        W41915   4.981  12.381  13.961 -0.0688  0.2846 -0.0288
24392W        W41916   6.113   1.795   2.784 -0.0498 -0.2748  0.0228
24393W        W41917   8.828  14.649  12.069  0.1160  0.2262 -0.0667
24394W        W41918  15.133  15.415   1.522 -0.1299  0.1660 -0.1281
24395W        W41919   1.339   1.817   5.174  0.0231 -0.1333 -0.1480
24396W        W41920   3.378   5.905   1.115  0.0245 -0.2426  0.2428
24397W        W41921   8.075   1.444  14.172  0.1362 -0.2477  0.0384
24398W        W41922  13.694   6.543   2.816 -0.2148  0.0612  0.2793
24399W        W41923   4.274  14.563  11.898 -0.1765  0.2113 -0.0310
24400W        W41924   3.753  16.763   3.612 -0.0567  0.2971  0.2469
24401W        W41925   6.849  10.975  15.580  0.1684 -0.0652 -0.0199
24402W        W41926   0.640  15.389  14.187 -0.0670  0.2599 -0.0577
24403W        W41927  16.406   3.445  13.301 -0.1967  0.0895  0.1549
24404W        W41928   4.513  10.632  10.732  0.0997 -0.2223  0.1723
24405W        W41929  11.849  13.729   0.813 -0.0978  0.0514 -0.0588
24406W        W41930  11.018   8.471   2.489 -0.2276 -0.0633 -0.1103
24407W        W41931  16.809   6.348   2.672 -0.5529 -0.0051  0.0600
24408W        W41932   6.254  10.274  13.579  0.0701 -0.2267  0.3680
24409W        W41933  12.911  14.401  12.193  0.0822  0.1053  0.2691
24410W        W41934   7.149   5.148   1.330  0.2101  0.1388 -0.1014
24411W        W41935  17.572  15.995  15.874 -0.2984  0.0268 -0.0512
24412W        W41936  11.899  17.749  13.645  0.0550 -0.0289 -0.0487
24413W        W41937  13.471   7.921  13.300 -0.1981  0.0476 -0.0523
24414W        W41938  17.298  15.319   2.813  0.1092  0.0489 -0.1485
24415W        W41939  14.718  12.277   4.173  0.2579  0.2369  0.2936
24416W        W41940   2.762   6.678   0.830 -0.1596 -0.0408  0.1231
24417W        W41941   9.229   8.184  15.093  0.0235 -0.1610 -0.0405
24418W        W41942  11.599   3.371   0.738 -0.0400  0.3265  0.2504
24419W        W41943  10.405  13.060   2.586 -0.1892  0.0376  0.0063
24420W        W41944   7.265   7.733   3.327  0.0162 -0.0993  0.0373
24421W        W41945  11.913  16.102  11.764  0.1028  0.2046 -0.2374
24422W        W41946  13.785  10.778   2.015  0.1570 -0.1519 -0.1425
24423W        W41947  15.381   1.652  13.214 -0.3885  0.2914  0.1961
24424W        W41948  12.029   4.707  14.853 -0.5412 -0.0472  0.4138
24425W        W41949   6.653   1.694   0.167 -0.0944  0.0551 -0.2159
24426W        W41950   3.380   7.562   4.026  0.1500  0.1609  0.0240
24427W        W41951  12.293  11.770   2.743 -0.0840 -0.0859  0.3343
24428W        W41952  12.027  13.149   1.628  0.1759 -0.1951  0.2293
24429W        W41953  14.063  10.036   3.869 -0.1477  0.1451  0.2229
24430W        W41954  15.340  15.796   2.755 -0.2099 -0.1640 -0.0440
24431W        W41955  14.502  18.041  15.588  0.0325  0.2731 -0.0451
24432W        W41956  10.970   0.973   2.558 -0.2322 -0.0835 -0.0525
24433W        W41957   8.893  12.816  15.484  0.0086  0.1785  0.0441
24434W        W41958  10.298  17.535   1.016  0.2156 -0.2459 -0.2479
24435W        W41959   8.463   6.472  11.538 -0.0929  0.0800  0.0951
24436W        W41960  13.943  10.857   3.020 -0.1034  0.2266  0.2369
24437W        W41961   9.642   8.046  14.934  0.0290  0.2276 -0.0065
24438W        W41962  17.930  15.885   2.266  0.2588  0.0928 -0.0322
24439W        W41963  12.772  10.059   0.453  0.0049  0.1029  0.2855
24440W        W41964   8.302   1.964  14.147  0.1528 -0.0683  0.5047
24441W        W41965   8.675  17.504  12.644  0.0865 -0.2405 -0.3513
24442W        W41966   8.149  13.186   3.959  0.1017  0.3793  0.0217
24443W        W41967  17.894  12.393   0.635  0.0758 -0.0622 -0.0059
24444W        W41968  12.172   4.002   2.771 -0.0067  0.2294 -0.1232
24445W        W41969  14.369  15.020   5.162  0.2350  0.2193 -0.1333
24446W        W41970  16.037   7.426  13.437  0.0358  0.0296 -0.1634
24447W        W41971  16.317   4.613  15.868  0.0830  0.0549 -0.1221
24448W        W41972   0.610  16.617   4.758 -0.1497 -0.0207  0.0159
24449W        W41973   2.464  17.530  13.936  0.0150  0.2987 -0.2371
24450W        W41974   5.573   8.762   1.960 -0.0839  0.1199  0.0104
24451W        W41975  16.421  16.285   0.677  0.1166  0.1008 -0.1251
24452W        W41976   8.147   7.449   0.973  0.0549 -0.3166  0.2771
24453W        W41977  10.059   9.899   5.796 -0.2751  0.1525  0.3418
24454W        W41978   5.786   8.085  12.313 -0.2657 -0.1925 -0.0553
24455W        W41979   6.560   4.420   0.034  0.0507 -0.3649  0.0997
24456W        W41980  11.877   5.250  13.209 -0.2023  0.0520  0.0372
24457W        W41981   5.192   8.290  15.967 -0.1355 -0.4862  0.1569
24458W        W41982   9.994  12.731  11.221 -0.1818 -0.0508 -0.2624
24459W        W41983   7.372  16.841   4.377  0.0956  0.0117 -0.2359
24460W        W41984  16.228   9.296   5.336  0.3927  0.0123  0.3723
24461W        W41985   7.849  10.279  12.971 -0.1174  0.0019 -0.0664
24462W        W41986  12.190  13.836   4.286 -0.2225 -0.0544 -0.0829
24463W        W41987  17.473  13.179  13.089  0.0962  0.1215  0.1088
24464W        W41988  13.508  14.710  14.681 -0.0887  0.0761  0.3883
24465W        W41989   4.921  11.660   2.675 -0.2050  0.0264  0.0143
24466W        W41990   4.988   7.697   5.337  0.3725 -0.0843  0.0747
24467W        W41991  14.982   9.706   1.516 -0.0810  0.2456 -0.0945
24468W        W41992   2.821  10.534  16.022  0.0503  0.3217 -0.0938
24469W        W41993  16.420  17.062   3.285 -0.1158 -0.0464  0.0691
24470W        W41994  15.122  11.447  11.032 -0.0638  0.0416 -0.2328
24471W        W41995   7.276   5.947   0.192 -0.0417  0.1749 -0.0317
24472W        W41996   1.034  16.265  12.139  0.1378 -0.0987 -0.0915
24473W        W41997  13.132   4.936   0.319  0.1817  0.0035 -0.1176
24474W        W41998  17.433  11.090  15.172  0.3564  0.0548  0.0994
24475W        W41999  15.110   3.241  13.527 -0.0468  0.0469  0.5636
24476W        W42000  10.020   6.596   4.533  0.0534  0.1396 -0.0655
24477W        W42001   4.644  11.674   3.206 -0.1170 -0.2533 -0.0036
24478W        W42002   9.531   1.725   3.204  0.0990 -0.0719 -0.1390
24479W        W42003  16.597   9.540  12.368 -0.0101 -0.0592  0.1821
24480W        W42004  14.100   8.107   3.629 -0.0633  0.1218  0.1525
24481W        W42005  10.400  10.305  13.182 -0.2512 -0.0706  0.0717
24482W        W42006  11.397  17.852  15.788 -0.1730  0.2644 -0.0123
24483W        W42007   9.315   5.683  12.128  0.1311  0.2784  0.0917
24484W        W42008   7.324   4.413  12.815  0.0556 -0.1973  0.3049
24485W        W42009  13.578  10.705   0.944 -0.1650 -0.0517 -0.4399
24486W        W42010   4.366   4.889  13.102  0.1048 -0.0508 -0.2232
24487W        W42011  17.549  11.381  12.961 -0.1990  0.0413  0.1574
24488W        W42012  16.745  12.823   3.804 -0.1571  0.1787 -0.0514
24489W        W42013   5.088  13.389   2.852 -0.0037 -0.2409 -0.3251
24490W        W42014  16.753  14.093  15.626 -0.1876  0.2431 -0.2165
24491W        W42015   5.834   6.762   0.825 -0.0012  0.1520 -0.2165
24492W        W42016   1.604  10.197  14.429  0.0618  0.0389 -0.0419
24493W        W42017  11.070  17.979   3.718  0.2855 -0.1750 -0.1604
24494W        W42018   4.107   5.352  14.471  0.0580 -0.0223  0.1342
24495W        W42019   7.109   6.925  15.048 -0.1597 -0.1079  0.2838
24496W        W42020  13.591   3.876   2.298 -0.1236  0.0851 -0.4133
24497W        W42021   5.076  14.408  12.454 -0.1078 -0.0275 -0.1759
24498W        W42022  11.873   6.813   0.614  0.1396 -0.2878  0.1721
24499W        W42023  14.035  14.100   1.912  0.0971 -0.1102  0.0116
24500W        W42024   8.183   8.929   4.593 -0.0324 -0.2813  0.0583
24501W        W42025  15.283  14.387   4.895 -0.0779  0.2237 -0.2392
24502W        W42026  13.822  17.561  13.075 -0.2529 -0.1475  0.1505
24503W        W42027   8.432   1.083  15.803 -0.2570  0.1065 -0.2107
24504W        W42028  12.080   9.424  14.727  0.1073  0.0233  0.0167
24505W        W42029  10.516  14.417  12.317 -0.2628 -0.0127  0.0233
24506W        W42030  12.106  12.126  13.362  0.1770 -0.0334  0.2446
24507W        W42031   8.328  16.748  13.993 -0.0778  0.0262  0.1284
24508W        W42032   4.518   7.750   2.548 -0.0876  0.1150 -0.0405
24509W        W42033   1.505   5.839   0.554  0.0737 -0.0466  0.1701
24510W        W42034   0.944  15.517   2.803 -0.0026  0.2149  0.0555
24511W        W42035   8.790  16.367   3.084  0.0412 -0.0396 -0.1478
24512W        W42036   3.600  13.456  14.016  0.0967  0.0305 -0.0456
24513W        W42037   7.952  11.329   2.193 -0.1843  0.3761 -0.0555
24514W        W42038  14.723   6.211   2.416 -0.1139  0.0146  0.0030
24515W        W42039   7.593   0.236   3.481 -0.0036  0.0656 -0.0551
24516W        W42040   4.760  16.840   1.029 -0.2637 -0.1026  0.0813
24517W        W42041   0.302  17.314   2.107  0.0670  0.1942 -0.1615
24518W        W42042  17.272   7.445  11.437 -0.0788  0.1485 -0.0980
24519W        W42043  15.464  15.886  10.880 -0.2488 -0.0503  0.2845
24520W        W42044   5.919  13.984  10.725 -0.1372 -0.1920  0.2028
24521W        W42045  12.224   7.317   0.407  0.2873 -0.1185 -0.2322
24522W        W42046   7.159  11.652   5.666  0.2171  0.0984 -0.2246
24523W        W42047   0.262   5.331   0.635 -0.0209  0.0094 -0.3670
24524W        W42048   8.272  17.556  15.724  0.3381 -0.0638  0.2671
24525W        W42049   5.211   9.528   4.523 -0.0038 -0.1544 -0.0123
24526W        W42050   1.578   8.778  13.355 -0.2243 -0.1163 -0.3753
24527W        W42051  13.238  11.779   4.586  0.1073 -0.0045 -0.1810
24528W        W42052  14.924  14.817   0.462 -0.1993  0.0629  0.1654
24529W        W42053   5.892   7.622   2.792 -0.1993  0.1891  0.0185
24530W        W42054   9.120   2.535  11.110 -0.1708  0.1131 -0.0883
24531W        W42055  11.774   5.865  15.444  0.1712  0.2278  0.0610
24532W        W42056  10.566  11.819  12.809 -0.0294 -0.0767  0.0346
24533W        W42057  12.064   0.701  11.107 -0.0624  0.0765 -0.2776
24534W        W42058   3.266   5.669   0.193  0.3160  0.0702 -0.1637
24535W        W42059  17.186  12.015  15.862 -0.1511 -0.1928  0.2779
24536W        W42060   6.484   2.727  15.388 -0.0660  0.0568  0.0279
24537W        W42061   8.156   3.495   1.333 -0.0012 -0.3228 -0.3792
24538W        W42062  17.255  15.845  15.445 -0.5595 -0.0194  0.0441
24539W        W42063   5.439  10.032  14.175  0.0316  0.0597 -0.0332
24540W        W42064  16.829   6.111   4.685 -0.0340 -0.0404 -0.0735
24541W        W42065   3.990  10.369  13.293 -0.2770  0.2044  0.3122
24542W        W42066   7.297   3.207   2.060  0.0765 -0.1808  0.0696
24543W        W42067   3.822   3.204   1.819  0.1141 -0.1656  0.1170
24544W        W42068  17.373   4.550   5.045  0.0036 -0.1086 -0.0468
24545W        W42069   4.508   6.760  15.772  0.1363 -0.0906  0.0043
24546W        W42070   0.161  15.231  14.360  0.0197 -0.0730  0.1715
24547W        W42071   6.909  10.383  12.525 -0.0275  0.1438  0.1207
24548W        W42072   7.584   3.101  13.079  0.2417  0.0152  0.3760
24549W        W42073   3.405   2.918   0.965  0.0652 -0.2051  0.1502
24550W        W42074   9.553   0.533  13.822 -0.2582 -0.1774 -0.0188
24551W        W42075   6.219  15.237  15.307 -0.0308  0.0973  0.1348
24552W        W42076  12.660   9.472   1.162  0.1136 -0.2609 -0.2034
24553W        W42077   5.692  10.345   5.494 -0.1560  0.2956 -0.0375
24554W        W42078  10.610   5.518   3.183  0.2733 -0.3329 -0.0801
24555W        W42079   6.215   4.892  14.661 -0.1075 -0.1161 -0.1547
24556W        W42080   2.653   5.079  13.966 -0.0116 -0.0454  0.0813
24557W        W42081   6.938  12.938   3.444  0.1500 -0.0186  0.0611
24558W        W42082   8.588  15.518   2.696 -0.0279 -0.4526  0.0999
24559W        W42083  10.685  11.867   0.226 -0.2421  0.1470  0.2956
24560W        W42084   4.405  11.734  14.089 -0.2255  0.2845 -0.2030
24561W        W42085   3.986  15.913   1.713 -0.3168 -0.2553 -0.0219
24562W        W42086  15.608   6.466   4.579 -0.1195  0.0529 -0.0498
24563W        W42087   7.977  15.943  15.501  0.1699 -0.3082  0.1461
24564W        W42088  14.941   1.147   3.115  0.1448  0.0646  0.0652
24565W        W42089   6.757   0.292  15.005  0.0789 -0.0023  0.2056
24566W        W42090  16.420   3.377  14.396  0.0904  0.0489  0.1472
24567W        W42091  16.730   7.577  14.397 -0.1922 -0.0810 -0.4157
24568W        W42092   4.193  16.008  12.172 -0.0049 -0.0061  0.0707
24569W        W42093  10.427   0.465  13.817  0.2681  0.2823 -0.1027
24570W        W42094  15.843   9.443   3.681  0.0626 -0.3775  0.3821
24571W        W42095  16.015   7.107  15.729 -0.1590 -0.0414 -0.3930
24572W        W42096   4.984  14.827  13.377 -0.0013  0.0014  0.4107
24573W        W42097  12.240  13.381   0.786  0.1480  0.2460 -0.0759
24574W        W42098  12.944  11.955   3.772 -0.1811 -0.0328  0.3025
24575W        W42099  12.420  16.058   1.462  0.0623  0.0814  0.1380
24576W        W42100  14.746  12.820   2.456  0.1380  0.0060 -0.0398
24577W        W42101  12.746   0.355   4.011  0.3502 -0.1730  0.2151
24578W        W42102   9.272   8.421  11.687 -0.2819  0.0199 -0.0551
24579W        W42103   3.211  16.555   4.984  0.1077  0.0389  0.2085
24580W        W42104  12.289  15.605   3.180  0.0558 -0.0808  0.2649
24581W        W42105   3.225   6.371  15.596  0.0150 -0.1471 -0.0093
24582W        W42106   1.466   1.584   4.241  0.0225  0.1083  0.0219
24583W        W42107   6.951   7.088   5.695 -0.2285  0.0526  0.2818
24584W        W42108  10.881   6.907   2.590  0.0095  0.2262 -0.0004
24585W        W42109   0.363   1.431   0.453 -0.2023 -0.2175  0.0485
24586W        W42110   6.019   2.333  11.622 -0.3425 -0.3111  0.2472
24587W        W42111  13.096  10.947   1.833 -0.0496  0.2504  0.2463
24588W        W42112   1.014   7.384  12.128 -0.0892 -0.2607 -0.2691
24589W        W42113  13.740  15.256  12.760  0.0026 -0.0435  0.0606
24590W        W42114   0.544   0.804  16.013  0.2568  0.0933  0.0158
24591W        W42115  15.877   3.092   3.120 -0.0390  0.0795  0.1401
24592W        W42116  16.792   0.019   4.286  0.0787 -0.0878  0.2611
24593W        W42117   2.941  14.140   1.154 -0.0304  0.0869  0.2523
24594W        W42118  11.445  12.718  14.021 -0.1541 -0.1909  0.0823
24595W        W42119   2.049   5.710   0.457 -0.3206 -0.1682  0.1756
24596W        W42120   5.608   4.650   0.423 -0.3178  0.2094  0.1975
24597W        W42121  11.495   0.665   3.308 -0.3283 -0.1335  0.0824
24598W        W42122  15.394  12.475  14.753  0.0734 -0.0458 -0.0510
24599W        W42123   7.978   9.696   3.249  0.1022 -0.2531  0.3577
24600W        W42124   8.557   4.285  14.303  0.2278  0.1394 -0.1533
24601W        W42125   4.275  13.088  11.529  0.1310 -0.1630  0.1996
24602W        W42126  13.037   9.159   0.250  0.0470  0.0677 -0.1032
24603W        W42127   3.211   1.413   2.688  0.1909 -0.1186 -0.2071
24604W        W42128  13.912  14.698   0.045  0.0815  0.1321  0.2933
24605W        W42129   1.440  10.151  11.441 -0.3389  0.1568 -0.0062
24606W        W42130   2.944  17.621  13.821  0.0813  0.0406  0.1864
24607W        W42131  12.242   2.740  11.951 -0.1221  0.4350  0.0362
24608W        W42132   7.215   8.730  14.605 -0.3416  0.0588 -0.0254
24609W        W42133   8.344  13.095   0.899 -0.1100 -0.0587 -0.0676
24610W        W42134   1.173   0.485  12.472 -0.1816  0.0761  0.4388
24611W        W42135   8.005   7.900   3.047  0.0013 -0.0725 -0.1279
24612W        W42136  13.396  14.539   0.059 -0.2688  0.1569  0.1174
24613W        W42137   4.547  10.004   1.416 -0.0437 -0.1153  0.2757
24614W        W42138  17.248   4.428   0.367 -0.0409  0.0532 -0.1287
24615W        W42139  10.680   8.564   0.615 -0.2287  0.1347  0.0640
24616W        W42140  15.971   4.390  13.301 -0.1967  0.2420 -0.0847
24617W        W42141   6.889   8.454   0.506 -0.2231  0.0207 -0.0790
24618W        W42142   2.101   4.361   3.382 -0.0537 -0.1284  0.0571
24619W        W42143   0.864  17.122   0.246  0.2337 -0.1649 -0.1415
24620W        W42144   1.001  14.391  11.661  0.3024  0.0460 -0.1711
24621W        W42145  12.374  15.111   1.380  0.1491  0.0803  0.1586
24622W        W42146   0.244   5.782  13.725  0.2846  0.1251  0.2324
24623W        W42147  13.430   9.159  15.033  0.0317 -0.1314 -0.1847
24624W        W42148  13.918  12.969  11.889 -0.2697  0.4788 -0.1862
24625W        W42149  12.744  11.239  14.159  0.1250  0.3476  0.2178
24626W        W42150   3.281   4.681  13.681 -0.1731 -0.0939  0.0049
24627W        W42151  12.822  12.911   4.704 -0.1862 -0.1353 -0.0868
24628W        W42152  10.941  10.133   4.653 -0.0245 -0.2448  0.1260
24629W        W42153  14.692   3.755   1.417  0.0787 -0.0248 -0.3071
24630W        W42154  13.646  14.638   1.693 -0.1898 -0.2218 -0.2019
24631W        W42155  17.404   7.698  12.937  0.1120  0.0361  0.1833
24632W        W42156   7.674  14.104   1.853  0.0643  0.0451  0.0347
24633W        W42157   0.219  17.896   4.872 -0.0972 -0.3154 -0.4193
24634W        W42158   4.645   3.682   1.962 -0.0297 -0.3378  0.0584
24635W        W42159   7.675   2.748  13.812  0.0486  0.0568 -0.0104
24636W        W42160   1.118   4.609   6.012 -0.1144 -0.2082  0.0114
24637W        W42161  12.486  10.158   4.922 -0.5226  0.1197  0.0088
24638W        W42162   9.835  10.916   2.001  0.0935 -0.0579 -0.0004
24639W        W42163   9.938  16.158  14.387  0.0240 -0.1731  0.1816
24640W        W42164   2.854  13.284   1.848 -0.0461  0.0352 -0.0622
24641W        W42165   3.457  13.852   2.501  0.0488  0.1642 -0.2383
24642W        W42166   2.473  12.518   0.930  0.2189 -0.1460 -0.0949
24643W        W42167   6.125  12.340  12.756  0.1253 -0.0232 -0.1586
24644W        W42168   9.623   7.546   2.153  0.1594  0.1618  0.0240
24645W        W42169   6.454   2.478  10.340  0.1915  0.2347  0.2030
24646W        W42170   2.467  11.424  11.523 -0.4542 -0.1258 -0.0349
24647W        W42171  10.209   6.643  15.733  0.3291  0.0835  0.2262
24648W        W42172  14.334  10.375   3.459 -0.0265  0.1495 -0.2125
24649W        W42173  12.839   4.176   1.895 -0.0438 -0.0674  0.1060
24650W        W42174   0.298   5.980  13.198  0.1608 -0.1067  0.1700
24651W        W42175  11.307  14.232  11.224  0.0949  0.0109 -0.0895
24652W        W42176  10.516  11.835   5.450  0.2499  0.1185 -0.1085
24653W        W42177   3.268  10.342   1.570  0.3437  0.1035 -0.0741
24654W        W42178   6.414  11.635  15.084  0.1984  0.2504 -0.2918
24655W        W42179   4.783   4.278   3.509  0.2562  0.2996 -0.0567
24656W        W42180   7.362  17.875   0.039 -0.3268 -0.0472 -0.3462
24657W        W42181  12.414   0.850   4.345 -0.2869 -0.0626  0.0018
24658W        W42182  11.787  13.617  14.822  0.2004 -0.0697 -0.1440
24659W        W42183   5.286  15.660   5.733 -0.1304 -0.1847 -0.1016
24660W        W42184   9.652  17.972  16.002  0.0402  0.0175  0.0336
24661W        W42185   2.782   4.294  15.396 -0.3154 -0.2951  0.2170
24662W        W42186   9.546  14.802   0.025  0.1550  0.1395  0.2213
24663W        W42187   4.726   0.270   2.931 -0.2825  0.2211  0.0535
24664W        W42188   3.641  14.561   0.786 -0.0798  0.2080  0.2251
24665W        W42189  16.867  13.429   5.031 -0.0574 -0.1422  0.4941
24666W        W42190  10.146   0.751  11.119 -0.0383  0.1713 -0.3201
24667W        W42191   2.036  13.215   2.158 -0.1530 -0.4382  0.0005
24668W        W42192  15.982   9.306   4.395  0.1308  0.1968  0.2433
24669W        W42193   7.927   9.493   2.009  0.2243 -0.0414  0.0619
24670W        W42194   7.785  14.397   2.679 -0.0671 -0.2507 -0.0763
24671W        W42195   2.570   6.623  14.527 -0.1597  0.2511  0.1876
24672W        W42196   8.185   6.153   0.263 -0.4351 -0.2779  0.1705
24673W        W42197  16.849   1.107  11.913 -0.3429  0.0181 -0.3015
24674W        W42198  11.993  14.857   1.591  0.3379 -0.0898 -0.0700
24675W        W42199  16.348  10.861   1.397 -0.3531 -0.1217  0.1845
24676W        W42200   2.983  14.163  10.450  0.1254  0.0173  0.0116
24677W        W42201   3.427  13.347  15.378 -0.1037  0.0843  0.0465
24678W        W42202  12.389   0.101  15.713 -0.1496 -0.0191 -0.2671
24679W        W42203   5.835  15.458  14.402 -0.0374 -0.1631 -0.1703
24680W        W42204  16.197  10.994   2.547 -0.1609  0.1978  0.1351
24681W        W42205   6.103   5.194  12.941  0.0911  0.0018  0.3987
24682W        W42206   1.488   7.244  15.764  0.1895 -0.2550 -0.0177
24683W        W42207  12.827   5.823  12.267 -0.3165  0.1288  0.2936
24684W        W42208   2.808  17.344  12.460 -0.3016  0.4481 -0.1189
24685W        W42209  15.680   3.438   6.127 -0.0566 -0.2618  0.1877
24686W        W42210   5.324  15.374   3.553  0.0719 -0.1019 -0.0482
24687W        W42211   2.392   9.030   4.955 -0.0771  0.0243 -0.1238
24688W        W42212  10.765  15.264   1.393  0.0848 -0.3737  0.0844
24689W        W42213  17.524  17.518   4.683 -0.0670  0.2853  0.1384
24690W        W42214   4.305  14.352   1.629 -0.1112 -0.1116 -0.0331
24691W        W42215  10.788   2.303   3.357 -0.0313 -0.0759  0.0141
24692W        W42216   4.528   2.060   4.063 -0.0021 -0.1344 -0.1945
24693W        W42217   6.333  13.528   2.460 -0.2994  0.2698 -0.0029
24694W        W42218   3.845  13.962  10.259  0.1208  0.1297 -0.2927
24695W        W42219   4.956  16.922   1.969 -0.3353 -0.3286  0.2894
24696W        W42220   4.499   9.818  14.609 -0.0144 -0.4920 -0.0663
24697W        W42221   7.355  16.917  13.982 -0.0327 -0.0568 -0.1264
24698W        W42222  14.400   3.207   3.003  0.0198  0.3205  0.0104
24699W        W42223   7.580  13.626   1.981 -0.2797 -0.0633  0.3243
24700W        W42224   6.082   6.617   1.297  0.5399  0.0606  0.1849
24701W        W42225   6.336   7.554   4.585 -0.3909  0.2334  0.1113
24702W        W42226  12.156   9.890  11.858  0.2911  0.1044  0.2609
24703W        W42227  15.536  13.016   0.015  0.2606  0.0984  0.0702
24704W        W42228   0.119   1.434   2.179  0.1389 -0.0108 -0.0337
24705W        W42229  13.478  12.956  14.292 -0.2174  0.2686 -0.2237
24706W        W42230   9.272  18.170   3.975  0.4009 -0.0564  0.1743
24707W        W42231   8.818   1.697   4.606 -0.1538  0.2301 -0.0898
24708W        W42232   9.646   7.196  13.687  0.6066  0.0889  0.0027
24709W        W42233   4.200  16.446  11.962 -0.1124 -0.1511 -0.1192
24710W        W42234  17.236   9.608  15.296  0.3564 -0.0225  0.0162
24711W        W42235   9.672  15.877  10.517  0.2646 -0.0848  0.2069
24712W        W42236   7.341   2.360  14.953  0.0778  0.0286  0.1380
24713W        W42237   5.821  16.432   0.129  0.0786  0.1933 -0.0965
24714W        W42238   8.576  12.950  11.225 -0.2429 -0.0694 -0.1436
24715W        W42239  13.266   1.168  12.638  0.1066 -0.0614  0.1824
24716W        W42240   2.083  15.161   3.914 -0.0840 -0.1217 -0.1458
24717W        W42241   1.989   3.651  15.407 -0.0178 -0.2812 -0.0169
24718W        W42242   7.771   0.775   1.357 -0.3462 -0.0426 -0.2217
24719W        W42243  15.596  14.921  12.287  0.2418  0.2495  0.4444
24720W        W42244  13.590  18.024   0.778 -0.3291  0.2104  0.1877
24721W        W42245  13.635   6.787  12.724  0.0196  0.1456 -0.0204
24722W        W42246  17.015   8.461   1.813 -0.4756 -0.1275  0.1590
24723W        W42247  13.438  12.290   6.330  0.1284  0.1171  0.1128
24724W        W42248   5.709  14.162   1.870 -0.2024 -0.1208  0.0917
24725W        W42249   2.297   4.711   0.819 -0.2882  0.0585 -0.1797
24726W        W42250  10.461  12.095  15.562 -0.1886 -0.1096  0.0399
24727W        W42251  14.753   7.275   2.626  0.0866  0.1158  0.1441
24728W        W42252  16.748   3.661  11.916 -0.0900 -0.1354  0.1258
24729W        W42253   7.378   0.011  13.515  0.1162  0.0349  0.1569
24730W        W42254   3.422  17.543   1.696 -0.1128 -0.0828 -0.1521
24731W        W42255  10.314  11.934   3.348  0.1211  0.1287  0.0725
24732W        W42256  15.248  14.338  15.962 -0.2864  0.2303  0.0369
24733W        W42257  11.299  15.090   4.522 -0.1163  0.0326  0.0546
24734W        W42258   2.529   5.978  14.058  0.1023  0.2501 -0.0458
24735W        W42259   6.147   7.931  14.626 -0.2921  0.4035 -0.0949
24736W        W42260  15.248   8.873   4.451 -0.1379 -0.0622  0.0948
24737W        W42261   1.504   3.805   1.870  0.2527  0.0484  0.2265
24738W        W42262  13.807   6.716  13.467  0.5925 -0.0459 -0.1319
24739W        W42263   5.345   8.863  15.869  0.2807  0.2461 -0.1312
24740W        W42264  11.309   0.120  13.452 -0.2473 -0.3119  0.1089
24741W        W42265   6.516  13.698  11.102  0.0214  0.2545  0.0609
24742W        W42266   5.390  14.034   2.320  0.0438 -0.1295 -0.0864
24743W        W42267   7.196   5.963  12.216  0.2271 -0.0225  0.0328
24744W        W42268   6.896   2.359  14.597  0.1212 -0.0229 -0.1116
24745W        W42269   7.867   0.264  12.865  0.1559  0.0603  0.0186
24746W        W42270  13.743  13.425  14.410  0.2498  0.1204  0.1325
24747W        W42271   5.362   0.175  11.485  0.1040  0.1634 -0.0347
24748W        W42272   1.412   2.414   0.212  0.2299 -0.1706 -0.2217
24749W        W42273   4.314   3.361   4.520 -0.1211  0.0540 -0.2134
24750W        W42274   0.729   5.461   0.437 -0.2082 -0.0428 -0.4826
24751W        W42275  10.222   6.676  14.350  0.0393  0.0322 -0.0091
24752W        W42276  14.320   5.471  11.773 -0.0944 -0.0672  0.0094
24753W        W42277   4.983   8.068   3.792  0.0854 -0.0024  0.1053
24754W        W42278   8.182   6.050   4.066  0.0018  0.0168 -0.3704
24755W        W42279  14.330  14.815   2.394 -0.0521  0.2506  0.1712
24756W        W42280   5.723   8.067   2.660 -0.0724  0.0811 -0.1365
24757W        W42281  16.893   0.061  12.881  0.1068 -0.1850 -0.1033
24758W        W42282  17.996  10.805   3.897 -0.5235 -0.3645 -0.0081
24759W        W42283   2.330  12.926   0.357 -0.0585 -0.0369 -0.0562
24760W        W42284   4.533   1.107   1.876 -0.0683  0.1139  0.6308
24761W        W42285  15.480  14.434  13.002  0.1236 -0.3510  0.0707
24762W        W42286   6.673   4.377   4.514  0.2092 -0.1303 -0.0873
24763W        W42287  11.628   0.426  15.089  0.1835 -0.1260  0.0345
24764W        W42288   4.417   9.024   5.273 -0.0469 -0.2000  0.0702
24765W        W42289  12.412   4.219  10.887  0.0725 -0.1141  0.2481
24766W        W42290  17.174   2.983  12.755  0.2645  0.1468  0.2986
24767W        W42291  16.386   6.133   4.456 -0.0102 -0.0692 -0.0229
24768W        W42292  15.546  13.545   4.499 -0.2138 -0.1162 -0.0746
24769W        W42293  11.840   4.677  13.234 -0.1870  0.1982 -0.4949
24770W        W42294   1.385  17.672   1.345  0.0551  0.0997 -0.1062
24771W        W42295  13.077  11.898   0.143  0.3936  0.2051 -0.1818
24772W        W42296  12.678  12.364   3.933  0.3641  0.0730  0.0401
24773W        W42297   8.762   5.206   3.453 -0.2724 -0.0218 -0.1490
24774W        W42298  13.368  12.363   0.774 -0.1049 -0.0716  0.0661
24775W        W42299   8.462   4.886   4.427  0.1374  0.1130 -0.0744
24776W        W42300   6.214  14.177   1.832 -0.1506  0.3334  0.3202
24777W        W42301  17.724  15.580   4.052 -0.0367  0.7089  0.2267
24778W        W42302  12.750   8.699   3.565  0.2254 -0.0477  0.0775
24779W        W42303   9.696   6.843  14.063  0.0789  0.3401 -0.1350
24780W        W42304   8.032  14.643   1.661 -0.0474  0.0494 -0.1782
24781W        W42305   7.698  12.793   0.240 -0.0422  0.1592  0.2452
24782W        W42306   6.307   3.441   0.008  0.0467  0.0134  0.0449
24783W        W42307  14.087  11.774   4.547  0.3642  0.0424  0.0141
24784W        W42308   3.234  12.541   2.636 -0.0336 -0.2218 -0.1495
24785W        W42309   6.887   0.670  13.133  0.1537  0.1717 -0.1592
24786W        W42310  17.630   8.354   4.973 -0.3384 -0.0586  0.0992
24787W        W42311  16.708   4.559  13.864 -0.1159  0.0416 -0.1230
24788W        W42312   5.643   9.315   4.697  0.0196  0.1750  0.0683
24789W        W42313  14.461  14.654  11.265 -0.0722  0.1125  0.0919
24790W        W42314  14.236   6.298   1.162 -0.4911  0.1372 -0.0502
24791W        W42315   6.653   1.920  14.371  0.4008  0.0850  0.0798
24792W        W42316   6.871   1.708  12.766 -0.1812  0.1790  0.3450
24793W        W42317  17.064   4.121   4.853 -0.0115 -0.1639  0.1537
24794W        W42318  17.777  13.110  13.476 -0.0013 -0.1647 -0.2602
24795W        W42319  11.411  14.632  12.634  0.0610  0.0503  0.0616
24796W        W42320  15.198  10.610   4.730  0.0546 -0.1587  0.3511
24797W        W42321  17.091  16.043  16.017  0.1591  0.2024 -0.1522
24798W        W42322   7.506   6.689   2.251  0.2833 -0.1262 -0.1984
24799W        W42323   2.670  11.989  12.865  0.3718 -0.2057 -0.0832
24800W        W42324  11.237   8.098  12.817  0.0910 -0.1932  0.1662
24801W        W42325   0.873  12.690   4.122 -0.0118 -0.1997  0.0556
24802W        W42326   5.151   0.807   2.445  0.0284 -0.2499  0.2784
24803W        W42327   2.404   9.785  13.967  0.0021  0.0399  0.1669
24804W        W42328  15.632   6.856  16.081 -0.3375  0.1476 -0.0052
24805W        W42329  13.186   3.989  12.644  0.0271  0.2621  0.1736
24806W        W42330   8.359   0.660  10.803 -0.0142  0.2405  0.1966
24807W        W42331   5.383   1.250   3.239  0.0518  0.1055  0.5664
24808W        W42332   3.850  15.291  15.233  0.2653  0.2734 -0.1078
24809W        W42333  15.361   0.772  15.850  0.0395 -0.2035 -0.0050
24810W        W42334  18.012   2.610   1.817  0.0759 -0.1350 -0.1903
24811W        W42335  16.304  11.116  13.127  0.1076  0.0726  0.2588
24812W        W42336   3.319  17.909  11.154 -0.0855  0.3289  0.0185
24813W        W42337  12.755   1.650   2.498  0.1703 -0.0327  0.0924
24814W        W42338  15.348   4.373  12.135 -0.0975 -0.0593 -0.3361
24815W        W42339   4.690  12.514  10.898 -0.3577 -0.0347 -0.1666
24816W        W42340  13.930   8.665   1.976  0.3776  0.2542  0.1472
24817W        W42341   2.349  18.038  14.613 -0.2934 -0.5207  0.0314
24818W        W42342   7.659  12.081  11.179 -0.1236 -0.1366  0.1714
24819W        W42343   4.580  14.292  12.512  0.1709 -0.0197 -0.1058
24820W        W42344   5.090  12.684   0.658  0.1642  0.2539 -0.3125
24821W        W42345   5.033   1.037   0.011  0.0176 -0.0269  0.0843
24822W        W42346   7.985   0.655  14.480 -0.0236  0.1772 -0.1058
24823W        W42347   2.953   3.562   0.318 -0.2692 -0.1921 -0.2573
24824W        W42348   1.946  16.776   1.428  0.3967  0.1459 -0.1923
24825W        W42349   2.925  18.109   0.579 -0.3405 -0.1862  0.0940
24826W        W42350   6.892   3.958   4.445  0.0858 -0.1099  0.0826
24827W        W42351   5.076   8.235  13.199 -0.3630 -0.1550 -0.2772
24828W        W42352  14.954  15.541   0.490 -0.0257  0.2011  0.1931
24829W        W42353  17.596   9.303  13.128  0.0838 -0.2397 -0.2435
24830W        W42354  11.779   7.799  14.274 -0.1908  0.1865 -0.1804
24831W        W42355  15.863  15.126  15.691  0.2002  0.0532  0.0291
24832W        W42356   0.275   0.057  13.605 -0.2891 -0.2523 -0.2363
24833W        W42357   5.985  10.587  14.517  0.0736  0.2364 -0.0271
24834W        W42358   3.179  16.407   0.158 -0.3718 -0.0602  0.1205
24835W        W42359  10.323  18.025   1.054  0.2025 -0.2503 -0.0068
24836W        W42360  12.551  17.845  14.449 -0.2490  0.0171  0.1108
24837W        W42361   8.524   2.272  12.924 -0.1939 -0.2795 -0.2714
24838W        W42362   8.889   3.801   3.001  0.1415 -0.2027  0.1258
24839W        W42363   2.893  14.628  13.391  0.1330 -0.1771  0.0199
24840W        W42364  12.497  17.791   0.346  0.0449 -0.0197  0.0746
24841W        W42365   1.497   9.757   4.117  0.0961  0.1533  0.3496
24842W        W42366  13.943   7.298   1.313  0.0283  0.1850  0.2104
24843W        W42367   7.272  16.367  14.829 -0.0838  0.1903 -0.3208
24844W        W42368   6.701   7.655  15.351  0.2029  0.0950 -0.0935
24845W        W42369  11.127   7.811   0.123 -0.0081 -0.3702  0.1646
24846W        W42370  10.770  16.984   3.055  0.1350 -0.2366 -0.0689
24847W        W42371  10.021   8.520  14.355  0.1312  0.0966  0.1329
24848W        W42372   9.676  14.058   1.080  0.0115 -0.2549  0.1838
24849W        W42373   6.437  13.043   3.207  0.0098 -0.2235 -0.0319
24850W        W42374   6.606   6.968   3.554 -0.0693  0.1230 -0.0693
24851W        W42375  10.355   8.278   4.935  0.0356  0.0124  0.1431
24852W        W42376   7.808   2.935   3.735 -0.1560 -0.1541  0.2179
24853W        W42377  12.130   5.558   0.859  0.2100  0.2945  0.0833
24854W        W42378   4.001  17.087   4.438  0.1554  0.0546 -0.2331
24855W        W42379  10.804   6.841   3.118 -0.0992 -0.1678 -0.1851
24856W        W42380   3.913   0.993  13.586 -0.0171 -0.1729  0.1521
24857W        W42381   9.392   4.348   4.469  0.1063  0.3038 -0.1134
24858W        W42382  17.274   9.414   1.932  0.3653 -0.2459 -0.0590
24859W        W42383   3.935  11.643   5.253 -0.1113  0.3189  0.2800
24860W        W42384   5.854   9.740  15.014 -0.4110  0.0658  0.0154
24861W        W42385   1.860   6.639   0.242  0.0054  0.2009 -0.1589
24862W        W42386  11.850   3.831  15.170  0.0562 -0.0006 -0.1830
24863W        W42387  16.148   0.418   5.692  0.3045 -0.1063 -0.1021
24864W        W42388  12.320  13.110   3.650  0.3146 -0.0927  0.0099
24865W        W42389   6.455   4.696   9.686  0.2192 -0.1239 -0.2733
24866W        W42390   3.323  10.091  11.490 -0.0811 -0.1133  0.1144
24867W        W42391   0.376  10.302  11.197  0.1059  0.1535 -0.0905
24868W        W42392  15.852   2.186   0.240 -0.0340  0.1114  0.1441
24869W        W42393  10.927   0.951   1.451  0.0773 -0.2114  0.1403
24870W        W42394  18.162  14.136  12.126  0.1079  0.0300  0.1205
24871W        W42395   5.225   1.284  13.226  0.0554  0.1001 -0.1087
24872W        W42396  15.707   1.526  16.000 -0.0541 -0.2207 -0.2472
24873W        W42397   6.351   8.886   6.161  0.0848  0.0138 -0.0124
24874W        W42398   9.851   0.289   2.557 -0.1376  0.0955 -0.0665
24875W        W42399  13.044   2.438   0.490 -0.1063 -0.1018  0.1390
24876W        W42400  13.498  17.955  11.796 -0.0662 -0.5439  0.1884
24877W        W42401   7.312   1.328  12.873 -0.0229 -0.3300  0.1012
24878W        W42402  15.308  15.248  11.847  0.1900 -0.0313 -0.1302
24879W        W42403   9.882   2.493  13.420  0.0173  0.0091  0.1685
24880W        W42404  12.305   9.095  12.850  0.2331 -0.0086  0.0658
24881W        W42405   7.648  16.240  13.454  0.1027  0.2099  0.0275
24882W        W42406   7.211  10.786  15.869  0.1704 -0.0157  0.0336
24883W        W42407   3.752   1.395  14.442  0.0269  0.1607  0.2091
24884W        W42408   8.926   9.063   1.133 -0.3399 -0.2696 -0.0933
24885W        W42409  13.509  12.131  13.519  0.2040 -0.0841  0.1986
24886W        W42410  17.616  13.124  12.172  0.2001 -0.3328 -0.0080
24887W        W42411   9.201   1.282  12.724  0.0021  0.0670  0.4970
24888W        W42412   2.605   3.695   2.423  0.0463 -0.1218  0.2287
24889W        W42413   8.661   8.144   4.763 -0.3618  0.1504 -0.0253
24890W        W42414  16.931   0.529   3.449  0.1179  0.2027  0.1974
24891W        W42415  18.046   8.042  15.457 -0.0711 -0.1185 -0.2569
24892W        W42416   6.145   2.467  13.699 -0.5020 -0.0846  0.0534
24893W        W42417  12.258  11.220   1.551 -0.1133 -0.2982 -0.2218
24894W        W42418   8.375  12.520  15.081 -0.1090  0.0914 -0.2146
24895W        W42419   0.901   4.247  14.443 -0.1512  0.2397  0.0377
24896W        W42420  13.225   3.318  14.741  0.1082 -0.3203 -0.0409
24897W        W42421  15.983   3.884   0.430  0.1376  0.2173  0.0375
24898W        W42422  14.827  15.548  10.089  0.0490 -0.0057  0.1250
24899W        W42423   8.459   7.851  13.621  0.2124  0.1660 -0.2025
24900W        W42424  14.199  14.914  14.815  0.2083 -0.0800  0.1770
24901W        W42425  15.267   5.552  12.589  0.1322  0.1023  0.1634
24902W        W42426  13.296  17.481   4.374  0.1751 -0.0137 -0.0874
24903W        W42427  11.774   4.420  12.093 -0.2935 -0.0579 -0.0703
24904W        W42428   1.054   6.664   0.085  0.1491 -0.0852  0.0351
24905W        W42429  12.583   6.595   4.623  0.1931 -0.0247 -0.2386
24906W        W42430  11.627   7.579  11.956  0.1237  0.2021  0.0214
24907W        W42431   5.303  12.575  14.644 -0.2956  0.0380 -0.0731
24908W        W42432  10.860   9.982   1.080 -0.0684 -0.3130 -0.1462
24909W        W42433   4.309   9.392   3.478 -0.2179  0.1212  0.2865
24910W        W42434  14.937  11.179   3.308 -0.1281 -0.2906  0.1826
24911W        W42435   7.928   9.686   4.206 -0.1816  0.0050  0.0975
24912W        W42436   9.888  15.180   4.123  0.1520 -0.3290  0.0693
24913W        W42437  11.017  11.492  14.665 -0.0472 -0.1144  0.0489
24914W        W42438   1.775  15.386  15.832 -0.2379 -0.1274  0.0378
24915W        W42439   8.078   8.198   5.487 -0.2011 -0.1942  0.0357
24916W        W42440  15.433   7.679  15.155  0.2581  0.1571  0.0178
24917W        W42441  16.502   5.754  14.741 -0.2105 -0.3260 -0.2169
24918W        W42442   1.016   6.172  13.824  0.2500 -0.1091 -0.0948
24919W        W42443  11.948   4.334  15.215 -0.1620  0.0055  0.4259
24920W        W42444   4.166  17.014   2.620  0.1804  0.1328 -0.1573
24921W        W42445   2.593   7.618  13.058 -0.2005  0.1012 -0.2602
24922W        W42446  10.521  14.089   4.809  0.0361  0.1055 -0.1558
24923W        W42447   3.124   3.632   2.783 -0.0547 -0.1257 -0.0125
24924W        W42448  14.854  16.466   2.042  0.0050  0.0082  0.0015
24925W        W42449  15.361  12.394  14.243  0.0767  0.3180  0.0664
24926W        W42450   6.640   1.842  12.071 -0.2590 -0.0128  0.0061
24927W        W42451  16.822   2.704   0.293 -0.1118  0.1270  0.2062
24928W        W42452  12.316   4.547  11.301  0.0915 -0.0599 -0.1991
24929W        W42453   1.389   8.438   1.190  0.3688  0.0345 -0.3454
24930W        W42454  16.016  14.579   4.546 -0.0081  0.0035 -0.1264
24931W        W42455   2.476  11.013   5.144  0.0969 -0.0752  0.2644
24932W        W42456  15.212  12.537   3.908 -0.4510 -0.0028 -0.0752
24933W        W42457   4.403  12.587  15.570  0.3109 -0.2838 -0.2627
24934W        W42458  15.222  12.024  15.393  0.1985  0.3815  0.2899
24935W        W42459   2.335   1.153   3.012  0.2477 -0.1214  0.1013
24936W        W42460   8.064   2.962   2.123  0.0433 -0.1148  0.1038
24937W        W42461   9.429   5.105  15.596  0.0026 -0.1079 -0.0143
24938W        W42462  12.502   1.931  11.458  0.0430  0.0474  0.1314
24939W        W42463   7.923   1.303   4.354  0.0928  0.4418 -0.1066
24940W        W42464  16.703   3.364  14.846  0.3755  0.0143  0.3696
24941W        W42465  16.245  10.894   0.513 -0.0325  0.0726  0.3273
24942W        W42466   8.060   8.436   1.090  0.3503  0.2772  0.1136
24943W        W42467   5.829   7.391   1.013 -0.1944  0.0909  0.0820
24944W        W42468   5.595   4.429   2.751  0.2818  0.0252 -0.3673
24945W        W42469   3.771   3.470   1.400  0.2619 -0.1557  0.2954
24946W        W42470  12.012   0.863  12.822 -0.0881 -0.3112  0.3075
24947W        W42471   8.131   7.531   5.218  0.0021 -0.2203 -0.1063
24948W        W42472   4.279   3.832   3.702 -0.1577 -0.2884 -0.3476
24949W        W42473   5.915  13.283  15.684  0.2033  0.0321 -0.0512
24950W        W42474  16.670  14.339   3.950 -0.0861  0.0455  0.1740
24951W        W42475   8.778  14.096   1.311  0.1151  0.2864  0.0157
24952W        W42476  12.641   5.422  14.260 -0.2033 -0.0047 -0.0545
24953W        W42477  16.694  13.259  11.758 -0.0733  0.1345 -0.1171
24954W        W42478   4.872  13.891  14.843 -0.0669  0.0251 -0.0423
24955W        W42479   6.870   4.494   4.988 -0.2007 -0.0677  0.0769
24956W        W42480   8.500   2.192  13.669 -0.0607  0.0610  0.1009
24957W        W42481   8.579  14.683   0.756 -0.2698 -0.0118  0.1292
24958W        W42482   4.732   9.687   3.667  0.0818  0.1709  0.0038
24959W        W42483  16.361   2.287  13.598 -0.0654 -0.0151  0.1258
24960W        W42484  12.079   7.618   2.876  0.0214 -0.1645  0.1968
24961W        W42485  14.098   6.319   1.610  0.1504 -0.3651 -0.2732
24962W        W42486   9.764   2.318   3.084 -0.0186 -0.2167  0.1029
24963W        W42487   1.243   3.786   2.538 -0.0204  0.0096 -0.2369
24964W        W42488   5.370  14.216  11.069  0.1100  0.3970  0.1937
24965W        W42489   0.574   4.672  13.806 -0.1481  0.2108  0.2860
24966W        W42490   3.664  10.717  14.569 -0.1977 -0.2399 -0.1052
24967W        W42491   9.105  13.963   3.484  0.2265 -0.0191 -0.0878
24968W        W42492   0.495   5.456  14.942 -0.0238 -0.0249  0.0791
24969W        W42493   2.601   3.788   3.577 -0.0077  0.0891 -0.1333
24970W        W42494   0.433  14.193  12.313 -0.0731 -0.4150 -0.0495
24971W        W42495   5.214   3.499  11.384 -0.0750 -0.0426  0.2960
24972W        W42496  11.645  14.692  15.338  0.0049  0.0747  0.0180
24973W        W42497  14.126  10.643  11.772 -0.2545  0.2068 -0.0131
24974W        W42498   2.428  16.976   2.279 -0.1446 -0.0320  0.1780
24975W        W42499  15.895   1.948   4.522 -0.2523  0.1615  0.0161
24976W        W42500   7.103  13.337   2.426 -0.3581  0.1208  0.1933
24977W        W42501   7.377   2.986   0.121 -0.2122 -0.0732 -0.0135
24978W        W42502  11.740   9.110  12.900  0.0053  0.1740 -0.0301
24979W        W42503   4.105  15.708  15.881  0.2510  0.1666  0.2151
24980W        W42504   3.139   2.604   3.927 -0.1332  0.3092 -0.0741
24981W        W42505   9.436   6.384  12.984 -0.0111 -0.0647  0.1935
24982W        W42506   7.289   2.973  12.038  0.1817  0.2778 -0.1795
24983W        W42507  12.789   6.193  11.842  0.0808  0.3709  0.2603
24984W        W42508   2.651  15.402  12.104 -0.0734 -0.0099  0.0719
24985W        W42509  15.247  16.595   0.548 -0.0249  0.1179  0.0479
24986W        W42510   4.357   4.007   0.489 -0.2016  0.1075 -0.1957
24987W        W42511   5.877  10.321  16.059 -0.2821 -0.1327  0.4243
24988W        W42512   9.544   2.549   1.503 -0.0873 -0.0166 -0.1666
24989W        W42513   0.530   1.478  13.682  0.2934  0.3160 -0.0463
24990W        W42514  16.846   4.787  15.769 -0.0722 -0.2603  0.0184
24991W        W42515  17.182  17.297   2.069  0.0359 -0.0291 -0.1755
24992W        W42516   8.645   1.411  13.480  0.1603 -0.1829  0.2289
24993W        W42517  17.204   7.772  14.677 -0.1323  0.0325  0.1303
24994W        W42518   9.022   6.986   3.887 -0.2316  0.0567  0.0331
24995W        W42519   2.359   4.686   3.180 -0.1675 -0.0203  0.1529
24996W        W42520   4.817  10.270   1.780 -0.0972  0.1154  0.1525
24997W        W42521  14.433  11.566  15.547  0.1370 -0.2094  0.0970
24998W        W42522  12.231  17.669   1.346  0.0756  0.0476 -0.1040
24999W        W42523  14.585  16.419   3.044 -0.2016  0.2198 -0.0431
25000W        W42524  11.819   1.347  12.848  0.2364 -0.0781 -0.1998
25001W        W42525  17.945   0.598   4.684 -0.1031  0.3535  0.1163
25002W        W42526   2.830  11.463  12.955  0.1465  0.2928  0.3055
25003W        W42527   1.167  17.013  15.804 -0.0781  0.0498 -0.0004
25004W        W42528   6.215   0.176  14.340  0.0266 -0.0870  0.0658
25005W        W42529   4.493   8.981   1.105  0.1021  0.0390 -0.1704
25006W        W42530   3.538  15.707   1.451 -0.1210 -0.1313 -0.0768
25007W        W42531   3.344   5.357  12.356 -0.1918 -0.0669 -0.2369
25008W        W42532   8.799  15.151  12.545  0.1390 -0.0494  0.0872
25009W        W42533  11.209   6.597  11.996 -0.0965  0.0182 -0.0523
25010W        W42534  10.421   0.942   1.959 -0.1400  0.0825 -0.1975
25011W        W42535   5.583  11.436  14.360 -0.1611 -0.2076 -0.3219
25012W        W42536   0.075  17.635  12.624  0.3849 -0.0372 -0.1030
25013W        W42537  16.808   6.206   4.142 -0.1177 -0.1542 -0.0837
25014W        W42538  13.771   3.899   5.648  0.1838 -0.1188  0.0899
25015W        W42539   9.441  14.017   4.193  0.2553  0.2187  0.0337
25016W        W42540  16.407  15.997  11.707  0.1754  0.0155 -0.2171
25017W        W42541   7.469   8.587   2.181  0.3663 -0.0583  0.1118
25018W        W42542  11.750  15.638  11.646 -0.2563  0.3107  0.0337
25019W        W42543  14.485  12.588  11.314  0.1831 -0.3104 -0.1205
25020W        W42544   8.930   8.203  14.335 -0.0688 -0.1934  0.3367
25021W        W42545  10.276  17.173  15.726 -0.4380  0.0152 -0.2835
25022W        W42546   7.977  14.402  13.573  0.1192 -0.4193 -0.0601
25023W        W42547   0.830  14.924   2.201  0.2384 -0.2529 -0.3460
25024W        W42548  10.193  13.149  14.985  0.2422  0.0823 -0.1038
25025W        W42549  13.348  17.860   0.348  0.0920  0.0939 -0.3366
25026W        W42550   3.571   1.652  12.654  0.1855  0.1604  0.1634
25027W        W42551   7.184   7.608   0.084 -0.0069  0.1694  0.1424
25028W        W42552   7.948  14.991  12.211  0.0624 -0.0371  0.3143
25029W        W42553  15.431   3.842   0.529 -0.3967 -0.0375 -0.2449
25030W        W42554  16.158   3.101  12.442 -0.0574  0.0107  0.5671
25031W        W42555  16.465   4.955   0.309 -0.0940  0.3257 -0.3133
25032W        W42556  16.903  12.870   0.473 -0.0518 -0.0547 -0.0026
25033W        W42557  18.050   7.082   1.163 -0.0139  0.2704  0.0175
25034W        W42558   3.560  10.929  13.216  0.1713 -0.2257 -0.0999
25035W        W42559   7.473   6.024  11.221  0.1177 -0.1242  0.0544
25036W        W42560   7.406   5.924  14.027 -0.1838  0.0468  0.3075
25037W        W42561  13.322  15.615   4.424 -0.3835 -0.0206 -0.0466
25038W        W42562  10.141  15.085  11.702 -0.3534  0.2771  0.2313
25039W        W42563  17.875   6.432   2.983  0.0864  0.0087  0.0832
25040W        W42564   1.838   2.103   0.332 -0.0410  0.0455  0.0944
25041W        W42565  10.284   1.052  15.987  0.1395  0.3129 -0.1169
25042W        W42566   2.327  14.836  13.990  0.2786 -0.1574  0.2690
25043W        W42567   7.447  14.242  13.179  0.0128  0.1247  0.2375
25044W        W42568   4.527   0.420  11.696  0.1633  0.2985  0.0614
25045W        W42569   2.582  10.736  13.729 -0.2247 -0.0731 -0.0109
25046W        W42570  16.424  15.067   4.134 -0.1843  0.0158 -0.0821
25047W        W42571  11.488   0.450   1.877  0.2631  0.0310 -0.0354
25048W        W42572   1.858   2.641   0.419 -0.3834 -0.0917 -0.2595
25049W        W42573  17.290  16.852  14.664  0.3019 -0.3965 -0.2239
25050W        W42574   7.478   0.077  12.476  0.0409  0.2438  0.3102
25051W        W42575  14.887  16.315  11.480  0.0968 -0.1478 -0.0049
25052W        W42576  11.007  17.094  13.752  0.0773  0.0111 -0.2225
25053W        W42577   2.852  11.714  15.859  0.0284  0.2837  0.3535
25054W        W42578   0.606   0.907   4.455  0.1975  0.3324  0.0956
25055W        W42579  14.777   1.016   3.934 -0.0284  0.0956  0.3524
25056W        W42580   9.767   9.891   3.144  0.1407  0.1025 -0.2592
25057W        W42581  10.852  13.861   2.959 -0.2848 -0.1510 -0.4227
25058W        W42582  11.776  11.737  13.492  0.1243 -0.0174  0.3130
25059W        W42583   5.967   9.572   2.150 -0.0965  0.0186 -0.4341
25060W        W42584   7.654   4.653   3.884  0.0655 -0.0251  0.0709
25061W        W42585  10.780  16.682   0.229  0.1561 -0.1602  0.1689
25062W        W42586  13.656  15.017   0.395 -0.0237 -0.0030  0.1814
25063W        W42587  12.162  12.473  13.880  0.0435 -0.1901 -0.1102
25064W        W42588   4.756  17.815   1.917  0.3580  0.2109  0.1107
25065W        W42589   2.514  11.329  15.799  0.4512 -0.0207 -0.0095
25066W        W42590   5.768  12.301   0.040 -0.0494 -0.2776  0.3863
25067W        W42591   9.356  13.558  15.280 -0.0081 -0.0784 -0.0805
25068W        W42592   9.643  11.355   1.196  0.0764  0.1078  0.1775
25069W        W42593  17.481  16.773   0.794 -0.3239  0.0569 -0.0242
25070W        W42594  18.132  12.584  12.570  0.0501 -0.0561  0.0855
25071W        W42595  11.521   6.097   4.901  0.0481 -0.1578  0.2008
25072W        W42596  17.225   6.594  13.009  0.1399  0.2357  0.3203
25073W        W42597   1.297  14.877   1.988 -0.2516 -0.3476 -0.2222
25074W        W42598  17.179   5.395  14.411  0.0655 -0.1592  0.0797
25075W        W42599   5.557   6.121   2.492  0.2233 -0.4475  0.2176
25076W        W42600  16.320  12.461   1.433 -0.1576 -0.0669 -0.4018
25077W        W42601   3.384   3.117   2.101 -0.3533 -0.0565  0.3210
25078W        W42602  11.338   2.663  12.016 -0.1992  0.0060  0.2985
25079W        W42603  12.022   1.772   1.943  0.0514  0.0485  0.3643
25080W        W42604  12.346   8.949   4.947  0.2259  0.1525  0.1185
25081W        W42605   0.332  17.299   5.210 -0.0218  0.0519 -0.0637
25082W        W42606   6.817  16.693  15.052  0.2394  0.0183  0.1798
25083W        W42607   5.496  18.035   1.191  0.0980  0.0090  0.1770
25084W        W42608  10.993   9.969   2.737  0.1448  0.2001  0.2699
25085W        W42609   1.930  10.593   3.907 -0.0100 -0.1043  0.0380
25086W        W42610   5.279   7.236  11.530 -0.4898  0.6155 -0.1620
25087W        W42611  17.317  16.958   3.711  0.0259  0.0187 -0.1151
25088W        W42612  11.864   7.691   0.671  0.0688 -0.1343  0.1206
25089W        W42613  14.892   0.780  13.079 -0.2266  0.1733 -0.1563
25090W        W42614   3.824   7.843  14.928  0.0781 -0.5796 -0.0834
25091W        W42615  12.527  10.272   5.432 -0.2248 -0.0230  0.1737
25092W        W42616  10.225   0.688   2.382  0.0204  0.1540 -0.0723
25093W        W42617  17.281  11.290   0.716 -0.1489 -0.0888 -0.0561
25094W        W42618   0.951  12.700   3.610  0.0173  0.2295 -0.2344
25095W        W42619   4.184  12.181   0.307 -0.0140  0.1570  0.0319
25096W        W42620  15.187   7.297  15.326 -0.2964 -0.2843  0.0118
25097W        W42621   3.963  15.303  11.165 -0.1050  0.1201  0.2993
25098W        W42622   1.111  14.351  13.411  0.3870  0.0887 -0.1357
25099W        W42623   5.637   7.479   3.197 -0.0962 -0.1164  0.0473
25100W        W42624   2.523   1.567   1.660  0.2491 -0.1124  0.0235
25101W        W42625   7.944  15.199  15.565  0.0365 -0.1082 -0.0179
25102W        W42626  14.548  15.325  14.815  0.0255 -0.0011 -0.1829
25103W        W42627  18.108  14.546  13.971  0.0590  0.1735  0.1486
25104W        W42628   2.215   1.848   0.578 -0.2462  0.1318  0.0892
25105W        W42629   7.565  17.372   1.996  0.0297  0.2321 -0.0705
25106W        W42630   0.550   5.015  15.328 -0.0479 -0.0408 -0.0187
25107W        W42631   7.345   0.238   1.751 -0.0382  0.0297 -0.0186
25108W        W42632   3.940   5.269  15.243 -0.2387  0.1873 -0.4262
25109W        W42633  15.169  13.016  13.062 -0.1659 -0.0333  0.1192
25110W        W42634  16.965  10.948   0.970 -0.1079 -0.1028  0.0977
25111W        W42635   1.653   0.670  12.362 -0.0932 -0.0260  0.0778
25112W        W42636  16.228  10.200  14.059 -0.0728 -0.0108  0.0005
25113W        W42637   7.978  10.861  12.204 -0.0696  0.2698  0.0364
25114W        W42638  13.566   7.366  12.766 -0.3079  0.0373 -0.1268
25115W        W42639  13.470  16.543  11.528  0.0252 -0.0448  0.1571
25116W        W42640  14.875  17.248  11.765 -0.1637 -0.4115  0.1983
25117W        W42641   2.575   8.372  12.669  0.2009  0.0251  0.0508
25118W        W42642   5.623   0.615   2.457  0.1535 -0.1500  0.1849
25119W        W42643  11.449   9.367  12.553  0.1165  0.1904 -0.2208
25120W        W42644  11.730  13.556   2.933  0.2104 -0.0170 -0.1237
25121W        W42645   3.577   8.023   0.815  0.1931 -0.1339  0.2217
25122W        W42646  13.571   4.032   0.987  0.1972 -0.4680  0.1030
25123W        W42647   4.809  16.938  13.209  0.2396 -0.1396  0.0614
25124W        W42648   0.476  12.221   0.220 -0.1270 -0.3748 -0.3272
25125W        W42649   6.855   2.061  15.030 -0.1277  0.1154 -0.0192
25126W        W42650   5.366   9.582  12.101 -0.0718  0.0375 -0.0486
25127W        W42651  13.254   1.635  12.741  0.2581 -0.3209 -0.1688
25128W        W42652  10.704  17.338   3.419  0.2637  0.0025  0.1060
25129W        W42653   0.759   1.561  13.234 -0.0443 -0.1284 -0.0138
25130W        W42654   9.352  16.708  12.361  0.0016 -0.1234 -0.0927
25131W        W42655  12.633   9.624   0.693  0.0583 -0.1513  0.0479
25132W        W42656  15.144  15.571  13.172  0.0842 -0.1657 -0.2556
25133W        W42657  10.173  13.927   1.159  0.0788  0.2837 -0.1379
25134W        W42658  10.818   6.377   4.339 -0.0290 -0.1584 -0.1554
25135W        W42659  10.175   3.131   2.455 -0.2550  0.1648  0.0927
25136W        W42660  15.471  11.125  13.657  0.1398  0.1344 -0.0209
25137W        W42661  16.026  17.525   5.791 -0.2048  0.1968  0.2166
25138W        W42662  11.569  17.009  14.767  0.1390  0.3165  0.2405
25139W        W42663   7.966   0.833  14.018  0.0259 -0.1606  0.3273
25140W        W42664   8.666   1.935  11.361  0.3931  0.1206 -0.0302
25141W        W42665   0.936   3.098   3.903  0.2254  0.1936 -0.1022
25142W        W42666  16.005   3.003  15.186  0.2912 -0.0051 -0.2503
25143W        W42667   7.784   1.377  11.372  0.0235 -0.1772  0.0535
25144W        W42668   2.383   4.672  11.739 -0.3860 -0.0529  0.1199
25145W        W42669  10.212   4.022  11.989 -0.0277 -0.2292  0.1448
25146W        W42670  10.264  10.154  11.938 -0.1953 -0.1831  0.0887
25147W        W42671  10.382   1.123  10.799  0.3112 -0.5652  0.0845
25148W        W42672   7.651   6.238  11.896 -0.4611  0.0579  0.0006
25149W        W42673   8.559  11.603  14.634  0.1616  0.0576 -0.1146
25150W        W42674   2.775   2.833   1.961 -0.0650  0.3903 -0.2184
25151W        W42675  11.676  12.017   0.184  0.4561 -0.0307 -0.0825
25152W        W42676  10.980   7.546   3.390 -0.3591 -0.1749  0.0687
25153W        W42677   7.049   4.825   3.962 -0.0452  0.0594 -0.1187
25154W        W42678   6.031   2.814   0.648  0.2648  0.0943 -0.2833
25155W        W42679   8.011   9.869  13.239  0.3253 -0.0117  0.0409
25156W        W42680   3.449  18.070   4.242  0.2883 -0.0084 -0.1432
25157W        W42681   8.743  10.928   2.918  0.0951  0.0803  0.0917
25158W        W42682   9.414  16.240   0.497  0.0100 -0.1783 -0.0100
25159W        W42683   7.031   9.062  15.612  0.1414  0.3755 -0.0693
25160W        W42684   6.586  14.057  11.453 -0.2292 -0.1392 -0.0229
25161W        W42685  16.349   6.690   5.774 -0.0569 -0.1481  0.1911
25162W        W42686   5.371  17.716  16.012 -0.3044  0.0029 -0.1898
25163W        W42687  11.620  15.817  12.934  0.3176  0.3683  0.1041
25164W        W42688  15.606  13.531  14.868 -0.0943  0.1781 -0.1625
25165W        W42689   5.343  10.891   0.428  0.1614 -0.0990 -0.1370
25166W        W42690  11.476   5.957  12.687 -0.1216 -0.0332  0.0078
25167W        W42691   6.016  10.288  11.769 -0.1384  0.2892  0.1253
25168W        W42692   8.328   0.455   0.670 -0.0368  0.2710 -0.0686
25169W        W42693  13.550  10.784   4.158  0.1567 -0.1098 -0.1148
25170W        W42694   4.271   5.086  13.885  0.0413 -0.2291  0.1715
25171W        W42695   2.991   0.862  15.666 -0.2674 -0.0226  0.0236
25172W        W42696  11.470  10.606   2.642 -0.0296 -0.2085 -0.0175
25173W        W42697  12.863   3.224   4.643 -0.2080  0.0409 -0.0522
25174W        W42698   1.700   7.246   2.220 -0.0972 -0.0484  0.0952
25175W        W42699  10.007   6.824   3.917  0.0842 -0.1535 -0.1634
25176W        W42700   5.842   0.976   5.004 -0.1377  0.0098 -0.1117
25177W        W42701   9.050  14.510   0.808 -0.1748 -0.3416 -0.1539
25178W        W42702  13.714   6.995   2.637 -0.2685 -0.1720  0.0783
25179W        W42703  11.018   5.721   0.789  0.0935 -0.3169 -0.1976
25180W        W42704   9.493   5.743   0.613  0.2694  0.0498 -0.2545
25181W        W42705   1.599  12.830  15.633  0.0667 -0.0892  0.3063
25182W        W42706  14.812  12.224  12.768  0.2088  0.1137  0.1180
25183W        W42707   5.697  16.597   4.792 -0.0640  0.0304 -0.1401
25184W        W42708   5.637   9.824   3.352  0.1669 -0.1497 -0.0393
25185W        W42709   9.285   6.787  13.764 -0.2089  0.1379  0.1785
25186W        W42710  13.847   0.114  11.935 -0.1090  0.5556  0.1605
25187W        W42711  14.062  17.836   4.472 -0.2594 -0.0558  0.0869
25188W        W42712  13.602   5.011  11.827  0.0945  0.2469 -0.1384
25189W        W42713   2.084   7.421   0.989  0.1219  0.2843 -0.1698
25190W        W42714   3.777   7.474   0.712 -0.1114  0.0079  0.0151
25191W        W42715   4.788   2.690  15.463 -0.0670 -0.1928  0.0326
25192W        W42716   8.601   6.663  12.985 -0.0551 -0.3686  0.1357
25193W        W42717   6.169   0.079   4.196  0.0034 -0.0608  0.1784
25194W        W42718  10.249   0.838   4.893 -0.2495  0.2348 -0.1346
25195W        W42719   6.489  13.329   3.667  0.0333 -0.0293  0.1255
25196W        W42720   6.307   2.241   4.310  0.2303 -0.1649  0.2053
25197W        W42721   9.480  10.114   2.194  0.0462  0.0559  0.1772
25198W        W42722   9.785  17.999   0.458 -0.0392  0.1311  0.2243
25199W        W42723  17.622  14.686   1.461  0.0652  0.0211  0.0235
25200W        W42724   7.487  17.085   0.373  0.2943 -0.0690 -0.1725
25201W        W42725   9.057   8.043   4.362  0.2846 -0.0166 -0.1519
25202W        W42726   7.050   5.528   4.768 -0.3186  0.2704 -0.2336
25203W        W42727  12.004  12.644   1.502 -0.0534  0.1442  0.2623
25204W        W42728  13.409  12.922  13.805 -0.0515 -0.1270  0.1627
25205W        W42729   5.287   7.232   2.734 -0.2593  0.0629 -0.2745
25206W        W42730   6.115  14.854  11.683 -0.2120 -0.2255  0.1609
25207W        W42731   9.018   6.032   4.435 -0.3156  0.2842  0.1702
25208W        W42732  12.320   9.265  10.730  0.0476 -0.0156  0.4203
25209W        W42733  12.417   1.684   1.551 -0.0920 -0.2131  0.1091
25210W        W42734   8.149   1.077  12.218 -0.3004 -0.1359 -0.1406
25211W        W42735  14.460   2.076   0.673  0.0225  0.1183  0.2926
25212W        W42736  13.461  14.232   4.533 -0.0130  0.0811  0.0456
25213W        W42737   6.986   7.543   3.850  0.0940  0.2377 -0.1990
25214W        W42738   0.324  12.076   4.136 -0.1864  0.3868 -0.0806
25215W        W42739   1.092   3.555  14.269  0.1958 -0.2812 -0.1270
25216W        W42740  17.597  16.399  11.761 -0.1945 -0.2188  0.0584
25217W        W42741  10.847   2.326   2.434  0.1287  0.0574  0.1749
25218W        W42742  13.219   9.101  15.509 -0.0627 -0.0251  0.0651
25219W        W42743   3.275  18.158  13.079  0.0451 -0.3176  0.1374
25220W        W42744   6.675  18.082  12.603  0.0372 -0.0117 -0.1220
25221W        W42745  14.504  15.018  13.057  0.1685 -0.1960  0.1305
25222W        W42746   5.519   6.383   4.895 -0.2488  0.3157 -0.0865
25223W        W42747   7.151  16.362   2.210 -0.2068  0.0980 -0.0148
25224W        W42748  14.352  10.357   1.893  0.2809  0.1864 -0.0392
25225W        W42749   2.839  15.183  13.140  0.0940  0.0196 -0.2455
25226W        W42750  11.643   1.048  13.202  0.2609 -0.3608  0.0801
25227W        W42751   4.955   6.558   3.148  0.0793 -0.3356 -0.1395
25228W        W42752  12.167   3.985  14.814  0.1311  0.0408 -0.1957
25229W        W42753  15.467  13.886  11.848  0.4959 -0.2299 -0.0736
25230W        W42754  17.726  11.845  12.687 -0.0439  0.0055 -0.0044
25231W        W42755  11.549  11.746  11.686 -0.1854  0.1288  0.0495
25232W        W42756   0.704   8.024   5.152 -0.0866 -0.2019 -0.1102
25233W        W42757   4.151   4.500  15.191 -0.0707  0.1274  0.0880
25234W        W42758   9.330  14.071  12.252  0.1261  0.0071  0.1129
25235W        W42759  11.693  17.078  16.088  0.0182 -0.2074 -0.2065
25236W        W42760   9.031   4.689  13.513 -0.2343  0.0692  0.0578
25237W        W42761   3.636   5.732   2.390  0.2234  0.0319 -0.1818
25238W        W42762   3.886   6.926   2.487 -0.3880  0.0304  0.0630
25239W        W42763  13.695   0.060   0.275  0.1768  0.1592  0.0226
25240W        W42764   4.199  13.354  15.011  0.1667  0.0905  0.1468
25241W        W42765   1.227  16.085   0.714  0.0017  0.3629 -0.2515
25242W        W42766  14.009  13.586   2.057  0.1500  0.1175  0.0257
25243W        W42767  15.231  13.999  13.215  0.2450  0.2939 -0.1005
25244W        W42768   5.140   6.209   1.252  0.1505 -0.1229  0.1222
25245W        W42769   2.035   2.218   2.995  0.0333 -0.0881 -0.1055
25246W        W42770   0.960   9.407  11.024 -0.1765  0.0648  0.1809
25247W        W42771   4.591  16.413  12.338  0.0955 -0.0236 -0.0499
25248W        W42772   2.553   9.860   0.626  0.2421  0.0795  0.0068
25249W        W42773   4.978   7.834   1.251  0.0947  0.0818  0.1790
25250W        W42774   7.793  17.948  12.737  0.1527  0.1735 -0.2970
25251W        W42775   2.849  17.110  13.802 -0.1041 -0.4680 -0.0232
25252W        W42776  17.240  11.306   4.731 -0.1826  0.0747  0.0862
25253W        W42777   2.178  14.538   0.923  0.2203  0.2068  0.3695
25254W        W42778  17.457  12.190   1.784 -0.1871 -0.0900 -0.1563
25255W        W42779  11.556   3.910  12.213  0.1335  0.0061  0.0090
25256W        W42780   9.081  11.439   4.824  0.0450 -0.2581 -0.1079
25257W        W42781   6.193  10.569  15.748  0.0440 -0.0854 -0.2258
25258W        W42782   9.235  14.125  15.192 -0.0099 -0.0670  0.2100
25259W        W42783  16.546  16.938   1.363 -0.0187  0.1048 -0.0138
25260W        W42784  16.002  10.997   4.065  0.0927  0.0674 -0.1625
25261W        W42785  11.344   5.423   5.590  0.0356 -0.3438  0.1702
25262W        W42786   3.994  17.965   4.079 -0.3396 -0.0186  0.0648
25263W        W42787   1.744  12.737   1.127  0.1500 -0.1497 -0.0327
25264W        W42788   1.481  17.361  11.861 -0.4133  0.1265  0.0796
25265W        W42789   5.958  10.082  12.755  0.1270  0.2115  0.3814
25266W        W42790  12.269   9.686   3.543  0.1745 -0.1396 -0.0554
25267W        W42791  13.842  16.620   1.838 -0.0409 -0.0885 -0.5186
25268W        W42792   5.242  12.668  15.233 -0.0825  0.2469  0.0127
25269W        W42793  17.074   7.132  12.799 -0.0113  0.1993  0.1031
25270W        W42794   8.648  11.910   3.685  0.2275 -0.2178 -0.0653
25271W        W42795   8.147   5.865   3.582  0.1752 -0.0676  0.0938
25272W        W42796  12.296  10.306   0.378 -0.0961 -0.0598  0.0634
25273W        W42797  10.160   3.038  15.067  0.0200 -0.0504  0.1727
25274W        W42798   2.700  17.841   0.930 -0.1650  0.0363  0.0030
25275W        W42799  10.574   4.935   4.062  0.1380  0.0467  0.0504
25276W        W42800  18.043  11.310   3.213  0.1561 -0.0156 -0.0099
25277W        W42801   0.963   7.945   0.062  0.1051 -0.3457 -0.0278
25278W        W42802   6.538  13.864   0.670 -0.2829  0.0434  0.2254
25279W        W42803   1.257  14.947  10.088 -0.1341 -0.1010  0.2929
25280W        W42804  16.585  13.548  14.145 -0.0271  0.0015  0.2193
25281W        W42805  16.491   1.551  11.894 -0.1442 -0.0875 -0.1189
25282W        W42806   4.371  11.593   1.797 -0.0206 -0.0644 -0.1255
25283W        W42807   5.123   3.876   4.155 -0.1776  0.0010  0.2030
25284W        W42808   7.751  10.822   1.617 -0.0480 -0.0139  0.1879
25285W        W42809  11.629   1.756  14.985 -0.2184 -0.1493  0.1765
25286W        W42810  10.706  11.232  11.470 -0.1737  0.1355  0.0100
25287W        W42811  17.507  11.505   0.253 -0.3508 -0.0975 -0.3639
25288W        W42812  12.893   9.299  13.902  0.2266  0.3000  0.0580
25289W        W42813  16.744  14.246   1.858  0.0664 -0.2139 -0.2499
25290W        W42814  12.066  14.581  15.016  0.0917  0.1124 -0.1453
25291W        W42815   6.085  13.085   2.521  0.0173  0.3111  0.4804
25292W        W42816  11.617  13.281   3.755  0.1934  0.0052 -0.1200
25293W        W42817  12.683   6.922  15.761 -0.0035  0.1595 -0.0363
25294W        W42818  16.476   3.818   0.495  0.0915  0.2170  0.1966
25295W        W42819   0.668   9.421  15.172 -0.0135  0.0249  0.0724
25296W        W42820  13.221   8.044   0.342 -0.0471  0.0488  0.2109
25297W        W42821  11.529   8.755   0.488 -0.5022  0.1141  0.0397
25298W        W42822   0.270   6.020  12.168  0.1240  0.2049  0.2362
25299W        W42823  14.873  11.369   5.254  0.0834  0.0472  0.0205
25300W        W42824   7.754   6.663   4.208  0.3770 -0.0007  0.1253
25301W        W42825  14.017  16.998  13.727 -0.0244 -0.0153  0.1613
25302W        W42826   3.809  13.567   1.195  0.1290  0.1642  0.0630
25303W        W42827  13.590   0.282   3.471  0.1196  0.2737 -0.1699
25304W        W42828   4.474  13.172   1.011 -0.3115 -0.1244 -0.0785
25305W        W42829   6.806  11.647  12.297 -0.0099 -0.1137 -0.0526
25306W        W42830   1.184  16.995  11.685 -0.2472  0.0089  0.1138
25307W        W42831   6.203   4.576   0.999  0.0552  0.2350  0.1307
25308W        W42832  13.442   1.441  14.150  0.1288 -0.0006  0.0642
25309W        W42833   1.380  14.904   1.416 -0.1522 -0.2263  0.1697
25310W        W42834   0.372   5.221  13.928 -0.0019 -0.1218  0.0239
25311W        W42835   1.226   0.321   1.539  0.1284  0.0363 -0.0572
25312W        W42836  17.893  16.091   4.719  0.0358 -0.0345  0.0047
25313W        W42837   3.859  13.207   3.337 -0.0700 -0.0406 -0.3386
25314W        W42838   8.805  14.355  14.592 -0.2471 -0.0984 -0.2105
25315W        W42839   3.551   5.211  15.595  0.0955  0.0537  0.0314
25316W        W42840   3.799  15.251   1.391  0.1208 -0.2276  0.1739
25317W        W42841  12.940  12.441   4.951  0.1801  0.1671 -0.1369
25318W        W42842  14.178   6.206  12.966 -0.1017  0.0665 -0.2104
25319W        W42843  15.591  13.308  15.712 -0.1824  0.2292  0.0082
25320W        W42844   6.762   9.664  10.403  0.1077 -0.3336 -0.1438
25321W        W42845   9.774   7.532   0.267  0.0149 -0.2489  0.1933
25322W        W42846  16.751   1.577  12.699  0.2510  0.0893  0.0801
25323W        W42847   2.987  10.020  11.846  0.2180  0.0692  0.0283
25324W        W42848   9.101  14.025   4.720 -0.0959  0.0136  0.2143
25325W        W42849   8.374   8.470  13.504 -0.0350 -0.0729 -0.0474
25326W        W42850   0.603   7.884  11.999  0.2108  0.2710  0.4975
25327W        W42851  11.333  10.167   5.616 -0.3154  0.2914  0.2999
25328W        W42852   6.744  12.985  11.632  0.0794 -0.2896  0.0985
25329W        W42853   9.072  14.716  14.317  0.1069 -0.0913  0.1096
25330W        W42854  14.037  13.845  11.940 -0.5092  0.2078 -0.3503
25331W        W42855  14.287   6.731  12.191 -0.1696 -0.0839  0.0545
25332W        W42856   3.887  10.866  14.070 -0.1914  0.0785 -0.0390
25333W        W42857   6.826   4.899  15.375 -0.3069 -0.2193  0.3770
25334W        W42858   2.740  16.937  12.777  0.3516 -0.0833 -0.0590
25335W        W42859   1.370   1.558  13.923 -0.3762 -0.0755 -0.0973
25336W        W42860   9.372   9.855  14.462 -0.0466  0.1461  0.1892
25337W        W42861   0.669  15.879   4.978  0.2823 -0.0139  0.1301
25338W        W42862   4.857   4.041  13.438  0.0991  0.2774 -0.0295
25339W        W42863  14.440  11.746   2.051 -0.1252  0.3151 -0.1556
25340W        W42864  13.781   9.236  11.805 -0.2152  0.0284 -0.1976
25341W        W42865   4.687  12.380   4.859 -0.0898 -0.2701 -0.0380
25342W        W42866   8.809   3.969  15.650 -0.0810 -0.0364  0.0938
25343W        W42867   9.335   3.440   4.728  0.1460 -0.2902  0.1510
25344W        W42868  17.367  12.654   0.666  0.0549 -0.2135 -0.0821
25345W        W42869   2.311   6.600  11.705  0.1244 -0.1248 -0.0436
25346W        W42870   0.953   8.419  12.152 -0.1357  0.0972 -0.2345
25347W        W42871  14.644  15.685   3.627 -0.0694  0.1742 -0.3027
25348W        W42872  16.705  15.741   2.097 -0.0919 -0.0050  0.3151
25349W        W42873  13.033  17.813  13.098  0.0028  0.1664  0.4447
25350W        W42874   8.369   5.947   2.423  0.2106 -0.2481  0.1032
25351W        W42875   7.001  13.764  11.316 -0.1439  0.1420 -0.0231
25352W        W42876   4.334  17.923   0.142 -0.0819 -0.0227 -0.4601
25353W        W42877   7.710   9.264   3.121 -0.3554 -0.0917  0.1671
25354W        W42878  12.750   8.259  13.307 -0.1436  0.1064 -0.4465
25355W        W42879  11.065  13.095  15.710  0.0673 -0.1600 -0.1909
25356W        W42880  15.700   7.906  14.192  0.2091  0.1908  0.0485
25357W        W42881   3.567  18.185  14.236  0.0478  0.1172 -0.2141
25358W        W42882   7.058   8.720  11.100  0.3084  0.2164  0.1460
25359W        W42883  10.429   9.673  15.909 -0.2622  0.0775 -0.1949
25360W        W42884  10.912   9.960   2.258  0.4231  0.0297  0.2618
25361W        W42885   2.894   8.245  12.336  0.1206  0.2929 -0.0642
25362W        W42886   0.682   7.917   0.557  0.1779  0.0433  0.0909
25363W        W42887   1.457   7.967  14.188 -0.2293 -0.1374 -0.2752
25364W        W42888  10.802  11.787   2.167  0.0237  0.2742  0.3676
25365W        W42889   2.008  12.698  14.671  0.2990 -0.3686 -0.1282
25366W        W42890  17.409   0.346  13.944 -0.0748  0.3452 -0.2245
25367W        W42891  14.998  11.298  16.031  0.0049  0.1657 -0.0350
25368W        W42892  11.445   7.852   4.245  0.1436  0.2713  0.2034
25369W        W42893   3.491   9.536  15.288 -0.1186 -0.0042 -0.0301
25370W        W42894   6.317   5.857   0.647  0.2597  0.1115  0.2424
25371W        W42895  14.823   1.935  13.926  0.0519 -0.1665  0.1045
25372W        W42896  12.855  11.360  12.409  0.1510 -0.3294  0.0811
25373W        W42897   5.477  12.540   4.508  0.2509  0.0777 -0.0115
25374W        W42898   5.564  14.819  13.335 -0.0238  0.2842 -0.4343
25375W        W42899   1.384   7.010  14.479  0.4860  0.0593 -0.3609
25376W        W42900   7.710   9.243   2.522 -0.0502  0.1051 -0.3634
25377W        W42901   6.506  12.748   5.564 -0.0885  0.4874  0.2293
25378W        W42902   9.935   0.537  12.775  0.3980  0.1606 -0.4295
25379W        W42903  16.208   4.616  14.589 -0.1324 -0.0878 -0.2215
25380W        W42904  17.398  17.654   5.711  0.0914  0.1646 -0.3947
25381W        W42905   0.209   4.973  14.941  0.1182  0.4320  0.0283
25382W        W42906  13.545   5.606   1.703 -0.3219  0.1121  0.0581
25383W        W42907   3.852   2.769  13.487 -0.1256 -0.0885  0.1534
25384W        W42908  16.084   1.967   2.845  0.3830  0.2554  0.0628
25385W        W42909   2.076  11.046  12.394 -0.1216 -0.1608 -0.0410
25386W        W42910   9.916  17.090   2.351 -0.2446  0.2817 -0.0667
25387W        W42911  15.791   4.580   5.105 -0.2837  0.4851  0.0832
25388W        W42912  12.825  15.083   0.081  0.1847  0.0230 -0.1618
25389W        W42913   7.838   9.932   1.120 -0.2113  0.2798 -0.1006
25390W        W42914  16.074   6.637   4.240 -0.0301 -0.2754  0.0066
25391W        W42915  17.170  15.562  14.509 -0.1056 -0.2700 -0.1202
25392W        W42916  17.983  16.851   4.292 -0.0248  0.0141 -0.2009
25393W        W42917  12.132  13.281  14.969  0.1921 -0.0732 -0.0600
25394W        W42918   7.406   2.175  11.451 -0.0444 -0.1574  0.2017
25395W        W42919   9.867   2.866   1.266 -0.0983 -0.1637  0.1115
25396W        W42920   7.298   1.434   1.622 -0.0043  0.1231  0.4138
25397W        W42921  13.540   8.280   2.178 -0.0409 -0.0414  0.2208
25398W        W42922  11.897   3.849  11.845 -0.1428 -0.1215 -0.3732
25399W        W42923  10.178  17.699  12.782 -0.1436  0.1040 -0.4837
25400W        W42924   8.436   6.486  13.431 -0.2952  0.0101  0.5971
25401W        W42925  15.351  16.582   5.304  0.2695 -0.4582 -0.2428
25402W        W42926  14.136   8.182  15.655  0.4061 -0.2683  0.1659
25403W        W42927   0.576   2.448  12.581  0.2240 -0.1091 -0.3683
25404W        W42928   8.317  18.073  14.112  0.0780 -0.2328  0.0825
25405W        W42929  14.885   8.629   0.204 -0.2758 -0.0606 -0.2863
25406W        W42930   2.099  10.134  15.908  0.1033 -0.2629  0.0196
25407W        W42931  11.129   9.047  12.770 -0.0758  0.0443  0.0525
25408W        W42932   1.051  17.084   0.781 -0.2163 -0.2525  0.0456
25409W        W42933  14.693   8.251   2.746 -0.1687  0.1393  0.1373
25410W        W42934   0.432   7.102   5.233 -0.0406 -0.0112  0.3481
25411W        W42935  13.693  12.718   3.439 -0.2772 -0.2620  0.3221
25412W        W42936  15.859  11.447  11.298  0.0585  0.1175 -0.2550
25413W        W42937  12.458   2.572   2.029  0.1389  0.3240 -0.0982
25414W        W42938  12.695  11.886  12.503 -0.3021  0.0463  0.1996
25415W        W42939   9.930  17.513  16.034  0.2404 -0.0538  0.1994
25416W        W42940   1.434   1.895  11.723 -0.0307  0.1866  0.3107
25417W        W42941  10.199   4.625   0.955  0.0032  0.1050 -0.0733
25418W        W42942  14.169   5.123  15.743  0.2630  0.0637  0.1267
25419W        W42943   7.344  11.661   2.441  0.1015 -0.0873  0.5548
25420W        W42944   1.467   0.210   2.023 -0.3251  0.1835 -0.1724
25421W        W42945   7.382  11.424  11.538  0.0180  0.1637 -0.0482
25422W        W42946   4.821   6.930  14.975 -0.1747 -0.0353 -0.0911
25423W        W42947   5.711  13.782  15.680  0.1553  0.1021 -0.0670
25424W        W42948  11.080   9.082  10.936 -0.0726 -0.2155  0.1621
25425W        W42949  12.118  18.086   1.017 -0.1689 -0.0567 -0.0488
25426W        W42950   9.534  17.498  11.802 -0.1716  0.2860  0.1801
25427W        W42951   0.562   7.878  12.588  0.1239 -0.0966 -0.1763
25428W        W42952  11.768  10.670  14.929 -0.0512 -0.3100  0.0772
25429W        W42953   6.856  12.438   2.149  0.2470  0.1125 -0.0820
25430W        W42954   2.534  10.946  11.343 -0.2159 -0.3579 -0.2867
25431W        W42955  15.088  12.816  12.484 -0.1291 -0.0253 -0.0722
25432W        W42956   1.940  16.790   2.379  0.2118  0.0729 -0.0326
25433W        W42957  11.966  15.842   1.434 -0.1731  0.1608  0.3348
25434W        W42958   3.365   6.495  12.540 -0.2571  0.0589  0.2685
25435W        W42959   8.512  17.045   2.674 -0.2050  0.2396  0.1595
25436W        W42960  15.809   5.606   2.879 -0.0302  0.1300 -0.0600
25437W        W42961  12.673   3.812  15.038  0.1361  0.1082 -0.0527
25438W        W42962   3.037  13.937   1.647 -0.0328 -0.2334 -0.1030
25439W        W42963  10.845  17.131  14.253 -0.0096 -0.3990  0.0549
25440W        W42964   3.920  12.690  12.045 -0.1219  0.1798  0.0669
25441W        W42965   3.387  17.867  13.936  0.0207 -0.1831  0.4115
25442W        W42966   2.988   8.529  11.927 -0.0615 -0.0968 -0.3494
25443W        W42967   6.644  11.339  14.239 -0.0365 -0.1337  0.2939
25444W        W42968  17.128   2.420  14.148 -0.2588  0.1301 -0.1687
25445W        W42969  12.880  14.844  11.234 -0.1541  0.0532 -0.1030
25446W        W42970   1.927   9.010   0.137  0.0225 -0.1763 -0.0029
25447W        W42971  17.132   6.869   2.216 -0.1488  0.1807  0.4599
25448W        W42972  12.120  11.835   0.335  0.0689  0.1796  0.1945
25449W        W42973   2.216   2.560   4.090  0.0378 -0.1544 -0.0585
25450W        W42974   4.133   4.050  11.726  0.2310 -0.2685  0.1418
25451W        W42975   2.400   4.223  11.317 -0.0213  0.0093 -0.0699
25452W        W42976   7.815   4.399   0.995  0.1896 -0.2049  0.1441
25453W        W42977  15.219   9.271   2.759 -0.0943 -0.1324 -0.0461
25454W        W42978  10.774   9.668  15.273 -0.2058  0.2228 -0.2524
25455W        W42979   4.948   5.777   4.472  0.4027  0.2445 -0.0292
25456W        W42980   2.565   5.997  12.550 -0.2509  0.1751  0.2415
25457W        W42981  11.690  13.724  15.383  0.2627  0.1862  0.2995
25458W        W42982  13.626   4.188  12.536 -0.1960 -0.0261  0.0065
25459W        W42983  12.349   5.718   4.357  0.0021 -0.2007 -0.0257
25460W        W42984   1.599  15.382  14.346  0.2442 -0.0104  0.1060
25461W        W42985  16.222  10.115  15.830  0.0646  0.0788 -0.1211
25462W        W42986  13.065  13.516  15.347  0.4254 -0.0959 -0.0626
25463W        W42987  11.356   0.800  14.105 -0.0115  0.0112  0.0684
25464W        W42988  16.980   5.608  15.499 -0.3436 -0.2051  0.3345
25465W        W42989  12.335   2.189  15.978  0.0204 -0.1505  0.2740
25466W        W42990   5.875   1.250   1.906 -0.0665  0.0428  0.0147
25467W        W42991   3.842  16.018   0.692  0.0107 -0.0026 -0.3033
25468W        W42992   5.577   6.638   0.394 -0.1122 -0.1294 -0.1723
25469W        W42993   0.905  10.642  14.595  0.2505 -0.1024 -0.1829
25470W        W42994   9.514   3.713  13.101  0.2719  0.1241  0.0488
25471W        W42995   4.727  10.329   2.828 -0.0784  0.4119  0.0975
25472W        W42996   0.797  12.791   1.493  0.1054 -0.1944  0.2283
25473W        W42997   3.538   8.100  15.847 -0.0592 -0.0945  0.0945
25474W        W42998  18.042  17.053   1.990 -0.0635  0.0124  0.1541
25475W        W42999  17.574  11.695  15.849  0.2093  0.0773 -0.4009
25476W        W43000  13.846   8.151  13.570  0.2244 -0.2766 -0.1019
25477W        W43001   8.648   5.304   4.030 -0.3180 -0.1952  0.3368
25478W        W43002   9.476  10.304   3.055 -0.2492 -0.2096 -0.0990
25479W        W43003   1.680   9.816  13.007 -0.1151  0.0252 -0.1924
25480W        W43004  10.748   4.936  14.829 -0.3169 -0.0753  0.0465
25481W        W43005  18.126  13.736   0.739 -0.1687 -0.1958 -0.3943
25482W        W43006   5.653   2.528  13.496  0.0017  0.0644  0.1346
25483W        W43007  16.250  14.219   3.743 -0.0740  0.0299 -0.1121
25484W        W43008   7.591  16.837  11.564  0.1170  0.1392 -0.0014
25485W        W43009   4.522  17.796   2.434  0.1254 -0.2920 -0.2911
25486W        W43010  17.893  11.291  16.059 -0.0531  0.0503 -0.2026
25487W        W43011  14.027  14.442  11.709  0.0558 -0.3939  0.0279
25488W        W43012   0.533  11.284   1.019 -0.2523 -0.1607 -0.1584
25489W        W43013  10.843   5.349   5.693  0.1024  0.0244  0.4834
25490W        W43014   3.329   0.305  12.519  0.1700  0.0882 -0.1983
25491W        W43015   0.314   1.490  14.797  0.1415  0.1631 -0.1558
25492W        W43016  10.179  14.632  10.721 -0.1391  0.2049  0.1380
25493W        W43017  13.855  14.421  12.688  0.0610 -0.0802 -0.1705
25494W        W43018  10.426  17.168  13.493 -0.0868  0.2746  0.0127
25495W        W43019  12.050   8.236  13.307  0.3369 -0.4785 -0.1106
25496W        W43020   1.883  13.533   1.831 -0.0815 -0.2707 -0.0663
25497W        W43021   3.837  14.898  14.874 -0.2989 -0.0135  0.0307
25498W        W43022   8.881   6.299   3.372  0.2090  0.1174 -0.0590
25499W        W43023  15.195   1.355  11.199 -0.0373 -0.0119 -0.3724
25500W        W43024   0.438   1.335   6.259 -0.1783 -0.0054  0.1145
25501W        W43025  17.793  14.726   4.671  0.1548 -0.1779 -0.2411
25502W        W43026   3.726   4.770   4.753  0.0106  0.1313  0.0829
25503W        W43027  10.310   1.505  14.684  0.0648 -0.2634  0.0042
25504W        W43028   9.352  15.690   3.833  0.0361  0.0992  0.2079
25505W        W43029   9.700  17.759  11.326  0.0290  0.4653  0.0139
25506W        W43030  11.456  15.611  13.772  0.0187  0.0299  0.0556
25507W        W43031  16.932  12.894  15.257 -0.0170 -0.0181 -0.3331
25508W        W43032  16.686  14.128   3.498  0.1130  0.0395  0.1258
25509W        W43033  10.514  13.779  10.407 -0.2464  0.0106 -0.1444
25510W        W43034   6.258   3.404  13.488  0.1056 -0.2556 -0.0115
25511W        W43035   8.790  10.189   2.595 -0.0902  0.1618 -0.2451
25512W        W43036   1.125   7.125  11.697  0.0831 -0.3254 -0.0874
25513W        W43037  14.261   4.706  13.045 -0.2597  0.6045 -0.0395
25514W        W43038   2.271  17.615  11.720 -0.1077 -0.2162 -0.1490
25515W        W43039   7.329  11.870   0.631 -0.1680  0.3126  0.1538
25516W        W43040  17.552   7.576   0.578  0.1145  0.3016 -0.2108
25517W        W43041   1.236   4.297  12.370 -0.4194  0.0081 -0.0061
25518W        W43042   9.319  10.255  10.871  0.1878 -0.0026 -0.0237
25519W        W43043  12.550   6.323   0.918  0.2113 -0.2167  0.1027
25520W        W43044   7.417   1.630   3.610  0.1471 -0.3381  0.3868
25521W        W43045  16.206   5.450   1.387  0.0725  0.3746 -0.1002
25522W        W43046   8.202   4.573  12.200 -0.2882  0.0060 -0.1788
25523W        W43047   8.783  15.645  15.726  0.0380 -0.0109  0.3105
25524W        W43048   5.416  17.669   3.262  0.2083 -0.1134  0.0986
25525W        W43049   1.179   6.055   0.230  0.4060  0.1962 -0.1058
25526W        W43050  14.778   7.606   4.831  0.0840 -0.2881 -0.0022
25527W        W43051   4.943  17.931   4.469 -0.0309  0.0885 -0.1526
25528W        W43052   2.084  11.995  13.435  0.1314  0.0145 -0.0877
25529W        W43053   9.202  10.305  15.002 -0.0878  0.2387  0.1439
25530W        W43054  18.017  17.698  15.803 -0.0463 -0.0053  0.0599
25531W        W43055   6.968   9.006   1.942 -0.1597 -0.0274  0.1697
25532W        W43056  13.317   1.153  10.979 -0.2999  0.0690  0.4009
25533W        W43057   7.081   4.534  15.093 -0.3326  0.3792  0.1533
25534W        W43058  13.152  12.290   2.055 -0.0707  0.1624  0.0260
25535W        W43059  10.338   0.829  12.769  0.1645 -0.2580  0.1065
25536W        W43060   7.947   2.122   2.425  0.0569  0.0062 -0.3287
25537W        W43061  15.373  18.053  15.964  0.1276  0.0987 -0.2116
25538W        W43062  10.496   0.800   4.439 -0.0185  0.0511  0.2117
25539W        W43063   2.307   3.737  11.568  0.0658  0.3955  0.1551
25540W        W43064  16.666   4.027   0.058 -0.1185 -0.0653 -0.0746
25541W        W43065   8.849   6.783  11.575 -0.0400 -0.1226 -0.0360
25542W        W43066   4.452   0.856   3.797  0.2271 -0.2180  0.2828
25543W        W43067   3.652  13.536   4.552 -0.0005 -0.1770 -0.0841
25544W        W43068   8.578   1.440  14.259 -0.1494  0.0435  0.0143
25545W        W43069  18.007  13.402  11.464 -0.1363  0.0435 -0.3262
25546W        W43070  17.864  12.226   2.762 -0.2515  0.0014 -0.2172
25547W        W43071  11.654  11.998  14.728  0.2632 -0.0905 -0.1088
25548W        W43072   9.080   4.937   1.583  0.0087  0.1168  0.1824
25549W        W43073   3.914  12.901   4.134  0.1749 -0.0692  0.0529
25550W        W43074  14.475   0.540   0.744  0.1661 -0.2513 -0.2030
25551W        W43075  16.958  16.136   2.442 -0.1321  0.2599  0.0432
25552W        W43076   3.525   5.132  13.494 -0.0287 -0.0101  0.0741
25553W        W43077   6.856  15.637  15.846 -0.1126 -0.0480  0.2271
25554W        W43078   1.799   6.824  15.809 -0.2733  0.1040 -0.1647
25555W        W43079   6.218   0.761   0.982 -0.4980  0.1083  0.2879
25556W        W43080   3.554  15.071   2.747 -0.0220  0.3068 -0.0620
25557W        W43081  16.478  12.497  13.017  0.1080  0.0414 -0.0103
25558W        W43082  13.484  10.271   1.323 -0.2240  0.2058  0.1512
25559W        W43083  12.204   7.184  15.871 -0.1466  0.1838  0.0503
25560W        W43084   5.570  17.791   2.101 -0.1166  0.0700 -0.2797
25561W        W43085  13.940  13.055  13.395 -0.0523  0.1058 -0.0461
25562W        W43086  17.187   0.366   3.038  0.1089  0.3386  0.1109
25563W        W43087   9.166  16.840  14.501 -0.0834  0.3308  0.0699
25564W        W43088   3.820  14.179  13.962  0.1217 -0.2324  0.2212
25565W        W43089   2.541  10.360   0.536 -0.0084 -0.0724 -0.1651
25566W        W43090   8.726  16.615   0.407 -0.0609  0.1596  0.1455
25567W        W43091   3.279   6.136   2.389  0.5569 -0.2402  0.1888
25568W        W43092   2.609  17.755  12.499 -0.0308 -0.0135  0.0606
25569W        W43093  12.314   6.143   1.301 -0.2305 -0.1677 -0.0990
25570W        W43094  14.789  12.284  13.389 -0.0116  0.0398  0.1464
25571W        W43095  14.441   0.704  12.927 -0.3700 -0.0474 -0.3259
25572W        W43096  14.306   8.335   4.619  0.1120 -0.1202 -0.1014
25573W        W43097  10.630   9.169   4.412  0.0714 -0.0337  0.2456
25574W        W43098   8.810  10.484   4.158  0.1850  0.1296  0.2334
25575W        W43099   2.682  14.720   3.080 -0.2095  0.2762 -0.0834
25576W        W43100   0.702  15.377   4.428  0.2219  0.3090  0.2709
25577W        W43101   0.394  17.517   3.909 -0.0443 -0.0913  0.2612
25578W        W43102  12.829   0.134  13.629 -0.1717  0.2258  0.2072
25579W        W43103   6.770   6.325   5.136  0.0520 -0.2287  0.0249
25580W        W43104  17.781   3.807  12.404  0.0199 -0.0105  0.0892
25581W        W43105  13.387  17.352  15.585 -0.3091  0.2003  0.3447
25582W        W43106  12.734   2.934  15.632 -0.1565  0.2430  0.3107
25583W        W43107  10.756  17.451   4.196 -0.0898 -0.1125  0.2977
25584W        W43108   7.354  12.511   2.333  0.2124  0.1127  0.1639
25585W        W43109  11.550  18.046   0.650 -0.2624 -0.0844  0.0897
25586W        W43110  15.154   2.206  14.570 -0.0833 -0.1014 -0.2302
25587W        W43111   2.197   2.022  16.068  0.1055 -0.1094 -0.1051
25588W        W43112  17.583   2.542  10.787 -0.1758  0.1503 -0.1615
25589W        W43113  16.875  16.433   3.184 -0.0836  0.1644  0.0726
25590W        W43114  17.212  16.470   3.643  0.2227  0.2189 -0.1711
25591W        W43115  17.312  10.551  13.692 -0.0036 -0.0397 -0.2504
25592W        W43116   1.069  10.462   3.721  0.0621 -0.3025 -0.1941
25593W        W43117   7.424   9.553  13.087  0.3369  0.1414  0.1836
25594W        W43118   7.049  16.276   5.531  0.3250 -0.0129 -0.1609
25595W        W43119   8.144   4.351   0.089 -0.0941  0.0329 -0.0302
25596W        W43120  15.532  15.121  13.192 -0.1362  0.0728 -0.0445
25597W        W43121  13.089  11.638  12.038  0.0571  0.0257  0.1676
25598W        W43122   0.162   6.616   1.171 -0.0198 -0.0826 -0.0841
25599W        W43123   7.688  15.089   3.571  0.0420 -0.0480  0.3957
25600W        W43124   6.160  13.676  15.367  0.0891 -0.2543 -0.1940
25601W        W43125  13.402  11.694  11.258  0.2052  0.0223  0.0047
25602W        W43126   9.364  17.856  14.446 -0.2488  0.0223  0.1133
25603W        W43127  15.821  12.165  14.352 -0.1064  0.1477  0.2920
25604W        W43128   0.039   0.645   5.221  0.2694  0.0858  0.1659
25605W        W43129   3.092   9.861   4.267  0.1139 -0.0162 -0.1428
25606W        W43130  18.151   5.400  12.334 -0.1689  0.1693 -0.0283
25607W        W43131  11.738  11.084  14.147  0.2167  0.0591 -0.1329
25608W        W43132  16.368  14.336   0.873  0.5590  0.0976  0.2255
25609W        W43133  13.589  11.951   0.889  0.0424  0.0670  0.1275
25610W        W43134   5.910   8.212  10.525  0.4776 -0.1450  0.1780
25611W        W43135   4.593   9.077  13.175  0.2827  0.0059  0.2948
25612W        W43136  11.534   6.436   3.368 -0.0247 -0.0563  0.0491
25613W        W43137   7.138  10.684   0.353 -0.2713 -0.0515 -0.0786
25614W        W43138   7.718  14.853   4.483 -0.0823 -0.3793  0.1279
25615W        W43139   3.021   3.146  14.421 -0.2205 -0.0247  0.1487
25616W        W43140   7.105  12.175  15.825 -0.0370  0.0160 -0.0959
25617W        W43141   2.539   1.042   3.838  0.2142 -0.1026 -0.2186
25618W        W43142  15.115  13.027  15.832 -0.1825 -0.1803 -0.2035
25619W        W43143   8.336  17.668   0.442 -0.0577  0.0182  0.4614
25620W        W43144  10.818  11.292  12.411  0.0064 -0.2700 -0.0859
25621W        W43145   7.718  10.755  13.337 -0.2202 -0.0744  0.0466
25622W        W43146  15.905   4.145   4.564  0.1138  0.1881 -0.4041
25623W        W43147  15.818  16.635   3.769  0.0807  0.0356 -0.1596
25624W        W43148   9.591   1.983  10.925  0.0172  0.0976  0.1217
25625W        W43149   3.819  10.412  15.112  0.0567  0.1439  0.4146
25626W        W43150   5.347  13.983  11.606 -0.2722  0.0646 -0.0116
25627W        W43151   2.442   4.515  15.115  0.1876 -0.3220  0.2964
25628W        W43152  17.005   3.593   4.777  0.1234 -0.1637  0.0562
25629W        W43153   2.049  16.180   0.453  0.1344  0.1896 -0.1034
25630W        W43154   3.786   1.244  15.618 -0.0941 -0.2220  0.0599
25631W        W43155  11.284   3.432   4.759  0.1443  0.0541 -0.2379
25632W        W43156  16.041  10.233  12.103 -0.1179  0.1005  0.1780
25633W        W43157   0.983   7.754   4.757  0.0240  0.1708 -0.0106
25634W        W43158   6.532  11.253   1.539  0.1045 -0.4646  0.0077
25635W        W43159   6.756   8.126  12.476 -0.0478 -0.1174 -0.3186
25636W        W43160   5.412   3.637  12.926  0.1531  0.0921  0.2473
25637W        W43161   9.674  16.095   1.834  0.1606 -0.1200 -0.2861
25638W        W43162   8.515   2.312  15.714 -0.0085 -0.0482 -0.1484
25639W        W43163  10.521   3.761   3.546  0.0912  0.1407  0.2905
25640W        W43164   5.925  10.722  10.663  0.0270  0.1739 -0.1593
25641W        W43165  17.797   1.438   1.531  0.0536 -0.2996  0.0311
25642W        W43166  11.651  14.215   0.645  0.1434 -0.1621 -0.1989
25643W        W43167   9.749   2.769  12.855  0.2582  0.1174  0.5146
25644W        W43168   9.416   1.002   9.995 -0.1446 -0.1381  0.0765
25645W        W43169   4.260  14.523   3.519  0.3437  0.2321  0.0707
25646W        W43170   0.317  10.597  11.781 -0.0462  0.0849 -0.0546
25647W        W43171   8.458  13.884  15.671  0.0679  0.0587 -0.0202
25648W        W43172  16.725  15.873  13.662  0.1614 -0.0190 -0.1672
25649W        W43173  14.576  17.829   4.381 -0.2287  0.2088 -0.3307
25650W        W43174  14.837   4.812  15.456  0.0454 -0.0680 -0.0805
25651W        W43175  16.564  12.681  12.164 -0.0325  0.1876  0.0278
25652W        W43176   8.704  16.807  11.552  0.1981 -0.0664 -0.0707
25653W        W43177   7.760  15.386  11.946  0.3764 -0.0845  0.1103
25654W        W43178   7.740   5.368  15.536 -0.1009 -0.0213  0.0347
25655W        W43179  10.694   1.131   1.029 -0.1292 -0.0703 -0.1743
25656W        W43180  14.560  11.356   2.731 -0.1201  0.2946  0.1716
25657W        W43181   0.448   9.983   4.881 -0.0781 -0.2182 -0.0908
25658W        W43182   7.293  12.686  11.889  0.0089  0.1719 -0.1080
25659W        W43183  14.501   3.939   0.936  0.0902  0.0835 -0.1969
25660W        W43184   7.801   5.678  15.042 -0.0108  0.0063  0.0831
25661W        W43185  13.114  10.279   2.856 -0.1544 -0.0162  0.0633
25662W        W43186   7.761   2.736  12.103 -0.2630  0.1706  0.0306
25663W        W43187  11.636   8.089  11.980  0.2185 -0.0722 -0.2678
25664W        W43188   1.609   8.040   0.896  0.3255  0.2342  0.3579
25665W        W43189   1.634   8.895   0.943 -0.0474 -0.0741  0.1081
25666W        W43190   5.131   2.335  15.336 -0.2712 -0.2281 -0.1328
25667W        W43191  11.576  16.912  15.270 -0.2966 -0.0294 -0.3228
25668W        W43192   4.350  11.642   0.347  0.1952 -0.4704 -0.2092
25669W        W43193   0.838   5.253  12.476 -0.2462  0.0579 -0.2365
25670W        W43194  16.252   7.150   4.376  0.2631  0.0136  0.1359
25671W        W43195   0.706   3.651   4.590 -0.2169  0.5405  0.1333
25672W        W43196   6.506   3.107   4.290  0.1420  0.1407 -0.1470
25673W        W43197  10.856  16.571   4.745  0.2430 -0.0899 -0.0717
25674W        W43198  10.312   6.256   2.138  0.3680  0.0458 -0.0604
25675W        W43199  17.059  14.002  14.853 -0.2042 -0.0666 -0.2296
25676W        W43200   1.188   0.899   3.570 -0.3890 -0.1406  0.3100
25677W        W43201  14.034   3.809   0.854 -0.1574 -0.1402  0.3285
25678W        W43202  11.918   1.170  11.355  0.1257  0.0121 -0.1810
25679W        W43203  17.202  10.406   3.363 -0.2723  0.1668  0.0897
25680W        W43204   3.923  12.124   0.773 -0.1600  0.0565  0.1944
25681W        W43205  15.623   6.674   5.008 -0.2962  0.1406 -0.1733
25682W        W43206   1.341   6.715   2.427  0.3859  0.0020  0.1648
25683W        W43207   7.569  12.771   4.534 -0.2121  0.1676  0.1649
25684W        W43208  13.158  13.980  11.031 -0.1292 -0.3295  0.1458
25685W        W43209  10.600  10.804  12.418  0.1250  0.2436 -0.0547
25686W        W43210  12.004   4.211   0.254  0.1748  0.1753  0.1088
25687W        W43211   4.018   7.701  13.841 -0.0698 -0.1456 -0.0595
25688W        W43212   9.217   0.385   4.376 -0.2253 -0.0221  0.0590
25689W        W43213  14.705  14.447  11.684  0.3434  0.0463  0.1526
25690W        W43214   2.509  14.940   1.404  0.0692 -0.2060 -0.0413
25691W        W43215   4.044  13.788  14.201  0.2579 -0.0332  0.1961
25692W        W43216  12.268  12.651  12.886 -0.2122 -0.0748 -0.1074
25693W        W43217   0.185   7.365   4.805  0.2195 -0.1740  0.0336
25694W        W43218   6.998  17.286   2.975  0.3823 -0.0970 -0.1006
25695W        W43219   4.520  13.621  15.323  0.2422 -0.0305 -0.3095
25696W        W43220   2.847  14.714   5.786  0.1596  0.1469 -0.1853
25697W        W43221  15.070   3.373  14.109 -0.0231 -0.0526 -0.0856
25698W        W43222   9.792  10.204  12.590 -0.0219 -0.1504 -0.0471
25699W        W43223  12.512   5.811   0.980  0.1007 -0.0978  0.0650
25700W        W43224  17.188   6.127   5.532 -0.3803 -0.1552  0.1952
25701W        W43225   0.473  16.473   2.317 -0.2265  0.1348  0.3013
25702W        W43226   3.010  11.330  11.967  0.2474 -0.0991  0.2127
25703W        W43227  13.856   7.713  13.118  0.1804  0.1475 -0.0091
25704W        W43228  13.541  17.180  14.144  0.2687 -0.0050  0.1872
25705W        W43229  14.374   0.272   2.202 -0.0871 -0.0245  0.1619
25706W        W43230   7.926  13.805  11.885 -0.0774  0.0185  0.0707
25707W        W43231   0.914  17.867   1.453  0.0554  0.1179  0.0625
25708W        W43232  11.503  11.177   0.985  0.1617 -0.0254 -0.0477
25709W        W43233  13.550   6.461  11.706 -0.0970  0.2292 -0.0644
25710W        W43234  12.089   1.323   2.237 -0.1646 -0.1394  0.0336
25711W        W43235   2.560   2.923  11.438  0.2845 -0.0428  0.0672
25712W        W43236  14.290  10.675  13.295  0.4108  0.0422 -0.0293
25713W        W43237  11.930  17.847   3.953 -0.0418 -0.1942 -0.3589
25714W        W43238   0.526   2.167   4.844  0.0523  0.1097  0.3452
25715W        W43239   4.735  10.432  13.873 -0.1663  0.0231  0.1380
25716W        W43240   1.056  16.889   3.435 -0.2272  0.1127 -0.1621
25717W        W43241   1.301  15.504   3.670  0.0339 -0.0490  0.0498
25718W        W43242  10.788   6.474   1.323 -0.1231  0.1942 -0.0907
25719W        W43243  17.078  10.301   4.608  0.0049  0.2543 -0.2216
25720W        W43244   0.649   8.656   1.146 -0.2132  0.0626 -0.4453
25721W        W43245   3.693   0.576  14.208  0.0948  0.2178  0.0967
25722W        W43246   4.893   0.683  13.440 -0.0349 -0.0557  0.3969
25723W        W43247  12.096   0.506  15.744  0.0640  0.0920 -0.0673
25724W        W43248   0.359  17.877   1.125  0.0297 -0.0247  0.0003
25725W        W43249  10.956   3.453  14.582 -0.0850 -0.2704 -0.4830
25726W        W43250   1.109  13.869  15.101 -0.0271 -0.3123 -0.1173
25727W        W43251  10.998  11.564  12.902 -0.2138 -0.0169 -0.0856
25728W        W43252  16.145   0.516  14.579 -0.2432  0.0284  0.0847
25729W        W43253   1.163   5.238  11.634 -0.1609 -0.0174 -0.2992
25730W        W43254   9.237   4.537  12.814  0.0131  0.1418 -0.0871
25731W        W43255   3.973  12.234  11.169 -0.2632  0.3325 -0.3464
25732W        W43256  17.940   3.224   3.116  0.0222 -0.0002  0.3098
25733W        W43257  13.600  10.739   1.513 -0.0417  0.3821  0.1667
25734W        W43258   6.086   6.834   2.361 -0.0920  0.1854 -0.2361
25735W        W43259  12.741  13.299  13.792  0.2629 -0.0589  0.0573
25736W        W43260   3.055  10.882  13.484 -0.0433 -0.0129 -0.1011
25737W        W43261   2.205   7.288   4.546 -0.0492  0.2358 -0.2847
25738W        W43262   1.085   4.690  14.488  0.1579  0.0921  0.2763
25739W        W43263   1.441  17.808  15.911  0.4575  0.1172 -0.3695
25740W        W43264   7.338  10.862   1.964 -0.0911  0.3054  0.2135
25741W        W43265   5.036  17.827   3.654  0.1314 -0.0881 -0.0837
25742W        W43266   4.851   3.581  13.275 -0.1498  0.0793 -0.0067
25743W        W43267  16.043   1.191  15.188 -0.2528  0.3593  0.0076
25744W        W43268  16.600  15.323  15.132 -0.0228  0.2015 -0.0259
25745W        W43269  10.862  11.344   0.173  0.0474  0.1080 -0.0632
25746W        W43270  16.543  13.971  14.774  0.0507 -0.1938  0.2199
25747W        W43271   2.857  17.405   4.464 -0.1531  0.1584 -0.1970
25748W        W43272  17.123  13.313   5.436  0.0548  0.1530 -0.0851
25749W        W43273   2.265   0.795   2.034  0.0058 -0.2501 -0.1500
25750W        W43274   9.258  12.235  11.438  0.1733 -0.0157 -0.0903
25751W        W43275  12.964   1.915  11.137 -0.1384 -0.0285  0.0325
25752W        W43276  11.854  18.067   4.487  0.1411 -0.1107 -0.4460
25753W        W43277  16.448   7.549   3.204  0.0740  0.2639  0.0732
25754W        W43278   7.981  15.429  12.408 -0.1338  0.2111  0.0002
25755W        W43279  11.094  14.185   5.665  0.1015 -0.0463 -0.0362
25756W        W43280  12.153  15.602  11.957  0.1380 -0.0247 -0.1552
25757W        W43281   6.332   8.371  11.499 -0.2373  0.0414 -0.0138
25758W        W43282   1.418   3.998   3.663 -0.0020  0.0000  0.0243
25759W        W43283   2.553  15.378  14.017  0.1591 -0.0401 -0.0908
25760W        W43284   7.516   2.225   4.944 -0.1297  0.1100  0.0346
25761W        W43285   8.950  17.534   0.295 -0.1429 -0.0464 -0.4362
25762W        W43286   6.471  10.447  11.504 -0.1203 -0.1187 -0.1939
25763W        W43287  16.237  10.585  15.566  0.1915  0.1096 -0.0316
25764W        W43288   6.585  10.689   2.789  0.1740 -0.0179 -0.0378
25765W        W43289   8.236   1.931  15.899 -0.0943  0.1099  0.1646
25766W        W43290   5.363   9.439   0.869 -0.1811 -0.1581 -0.0802
25767W        W43291  13.641  11.861  15.987  0.1037  0.1100  0.0903
25768W        W43292  16.607   3.115   1.042  0.1156  0.1706  0.2372
25769W        W43293   1.825  15.151  12.534  0.0798 -0.1929  0.1563
25770W        W43294  16.027  11.529   5.168 -0.2118  0.0588 -0.0404
25771W        W43295   9.653   0.492  15.721  0.0875  0.1321 -0.0363
25772W        W43296   6.949   7.667  12.540  0.1339  0.1812  0.3537
25773W        W43297  16.956  10.861  13.803  0.2163 -0.1691 -0.2224
25774W        W43298   2.250  17.444   2.864  0.0669 -0.0527 -0.0498
25775W        W43299  13.500   8.001   3.953 -0.2528 -0.2701 -0.1811
25776W        W43300   0.749   7.620  15.796 -0.1316 -0.0177 -0.1908
25777W        W43301  11.858   0.441   1.279  0.3530  0.2306 -0.2805
25778W        W43302   6.146  16.308   2.455  0.1902  0.0250  0.3297
25779W        W43303   1.185  13.295  12.459 -0.2629 -0.0379 -0.2204
25780W        W43304   6.915   6.790   4.867  0.0235 -0.2399  0.0895
25781W        W43305   3.768  11.322   1.064 -0.0577  0.4585 -0.2839
25782W        W43306   4.652  12.086   0.331 -0.1495  0.2996 -0.1828
25783W        W43307  10.599   8.917  14.742  0.0828  0.0411 -0.1337
25784W        W43308  15.426   6.098  13.410 -0.2492  0.0298  0.1085
25785W        W43309  17.423   5.092  10.911 -0.0912  0.0409 -0.3087
25786W        W43310   8.168  11.826   2.115  0.1531  0.3951  0.0313
25787W        W43311   0.865   2.825   2.590  0.2736 -0.0365 -0.0647
25788W        W43312  15.121   6.473   0.847 -0.0113 -0.0397 -0.1842
25789W        W43313   2.577   9.687   2.568 -0.1693 -0.1804  0.3451
25790W        W43314   0.005  13.208  15.895  0.2485  0.0719 -0.2530
25791W        W43315   2.926  12.586  16.034 -0.0849 -0.0823 -0.2578
25792W        W43316   8.979   0.533   2.441  0.1792 -0.0828 -0.1749
25793W        W43317   9.090   5.355   2.010 -0.0365  0.3433 -0.0441
25794W        W43318   5.012   1.942   0.561 -0.0660 -0.0095 -0.1644
25795W        W43319   5.664   0.469  13.095  0.2945 -0.0578  0.1356
25796W        W43320   5.769   1.000  11.981 -0.0273 -0.1171 -0.0243
25797W        W43321   9.384  17.740   2.566 -0.1371  0.0657 -0.2005
25798W        W43322  13.912  16.259   2.220  0.1311  0.1168 -0.0131
25799W        W43323   2.180  13.607   0.975 -0.0039  0.0949  0.1892
25800W        W43324  15.625   2.665  11.883  0.0901  0.1229 -0.0001
25801W        W43325   8.438  14.210  13.336  0.1103 -0.0923  0.0221
25802W        W43326  15.080  10.446   2.559  0.0065 -0.0098 -0.0974
25803W        W43327  10.591  16.064  12.304 -0.1683 -0.2745 -0.0970
25804W        W43328   6.547   8.120   2.999  0.1013 -0.5049  0.0774
25805W        W43329  14.378  17.318   3.490  0.1430 -0.3806 -0.1554
25806W        W43330  13.572  12.260   2.407  0.3416  0.1438  0.0688
25807W        W43331  16.940  16.191  13.316 -0.1147 -0.0546 -0.1589
25808W        W43332  12.915  14.710   2.731  0.0697  0.1554 -0.0111
25809W        W43333   5.254   7.097  12.567 -0.3408  0.1498 -0.0003
25810W        W43334  14.120   7.030  14.757 -0.3025  0.0409  0.0478
25811W        W43335   3.244   6.512  11.694 -0.1653  0.1461 -0.0221
25812W        W43336   9.981  15.509  14.318  0.0016 -0.0119  0.2299
25813W        W43337  17.842   3.933  15.250  0.1162 -0.0023  0.1209
25814W        W43338   5.275  16.799   4.897 -0.0476 -0.0293 -0.1481
25815W        W43339  13.449  11.907   3.637  0.2819  0.0008 -0.0476
25816W        W43340   1.403   9.138   0.595 -0.0904 -0.1122  0.0956
25817W        W43341  11.336  10.385   4.468 -0.2480 -0.2056 -0.0514
25818W        W43342   4.526   3.712  14.821  0.2288  0.1132  0.2454
25819W        W43343  18.069   0.651  13.199  0.4099 -0.0006 -0.3234
25820W        W43344  15.069  15.225  14.591 -0.4382 -0.1856  0.1009
25821W        W43345   8.198   8.831   1.338 -0.1669 -0.0880 -0.3416
25822W        W43346  12.940   5.272  13.088  0.0181 -0.1288  0.1482
25823W        W43347  14.231   3.417   4.175 -0.3003 -0.3013 -0.0481
25824W        W43348  17.335   6.708   4.886 -0.2678  0.0992  0.0169
25825W        W43349  12.774   0.790  14.404 -0.1991  0.2476 -0.0847
25826W        W43350   3.786   6.116   3.702 -0.0029  0.0990  0.1473
25827W        W43351   6.805  13.557   1.028 -0.0447 -0.0608 -0.0904
25828W        W43352   9.508   5.523  14.974 -0.4557  0.2174 -0.0068
25829W        W43353   7.741  11.093  14.117  0.2723 -0.2409 -0.1826
25830W        W43354  13.086  16.472  13.587  0.4192 -0.0650  0.0990
25831W        W43355   6.122  17.216   3.435  0.0174  0.2522  0.0832
25832W        W43356   7.587   0.874   4.463  0.3077  0.1750 -0.2995
25833W        W43357   9.272   7.222  13.990 -0.1620  0.2823 -0.2890
25834W        W43358   4.776  17.549  15.765 -0.1703  0.0454 -0.0641
25835W        W43359  10.509   5.304   4.785  0.0507 -0.1194  0.2214
25836W        W43360   4.257   6.288  14.096 -0.1180  0.2182  0.0173
25837W        W43361  13.137   8.844   1.550  0.0121  0.1112  0.3982
25838W        W43362  17.630  12.374  12.903 -0.1373  0.0201 -0.0783
25839W        W43363   4.970   8.574  15.066 -0.0247  0.1717 -0.2239
25840W        W43364   3.622   6.347  15.878  0.0688 -0.0804 -0.0526
25841W        W43365   5.879   1.039   2.343  0.3405 -0.0218 -0.0375
25842W        W43366  16.978  11.641   5.017 -0.0735 -0.0732  0.0785
25843W        W43367  17.040  11.397  11.619 -0.1772  0.1324 -0.1781
25844W        W43368  16.093   2.174   3.371  0.1107 -0.2570 -0.3975
25845W        W43369   2.728   2.261   3.103  0.3569 -0.1236 -0.0966
25846W        W43370   0.578   6.346  14.754  0.1037 -0.0581  0.3659
25847W        W43371   5.141   7.244  15.263 -0.0215  0.1248 -0.0184
25848W        W43372  13.637   3.423  12.860 -0.1302  0.0003 -0.0415
25849W        W43373   6.189  17.862   0.166 -0.0149  0.0566 -0.2894
25850W        W43374  15.853  17.458   4.416  0.1678  0.1765  0.1915
25851W        W43375  11.287   4.446   3.490 -0.1395 -0.1109 -0.0700
25852W        W43376   1.273   3.941   3.004  0.1312  0.0083 -0.1494
25853W        W43377   6.797   4.561  10.046 -0.1209  0.1093 -0.1476
25854W        W43378   5.216  14.395  11.957 -0.3814  0.0931 -0.0823
25855W        W43379  16.160   7.072   3.198 -0.1324  0.1618  0.2621
25856W        W43380  10.526   2.598  11.719  0.0048  0.2275  0.0065
25857W        W43381   1.209   4.174   1.395 -0.0158 -0.0886 -0.0412
25858W        W43382   1.835  16.523   5.446 -0.1162 -0.0265 -0.2889
25859W        W43383  12.061   1.679  14.764  0.0297 -0.1972  0.2048
25860W        W43384  11.149   6.239   1.069  0.1047  0.0102 -0.1152
25861W        W43385   0.935   0.253  13.578  0.0746  0.4244 -0.0737
25862W        W43386   9.497  13.670   1.851 -0.1982  0.2950 -0.2093
25863W        W43387  12.036  16.130   3.887 -0.0502 -0.0477  0.2639
25864W        W43388  16.150   6.644  12.035  0.2883 -0.0172 -0.0885
25865W        W43389  13.405  15.427  13.205 -0.2977  0.1999  0.0116
25866W        W43390  11.638  12.792   0.787  0.3792  0.1155  0.3467
25867W        W43391   6.641  18.149   2.588 -0.1812  0.1511 -0.4080
25868W        W43392  11.799  14.743  14.176 -0.0277 -0.0498  0.0256
25869W        W43393  13.202   6.227  15.752  0.1561 -0.0355 -0.2028
25870W        W43394   0.491  11.849  12.985 -0.3239 -0.2028 -0.0626
25871W        W43395   1.977  11.078   3.019 -0.2277  0.2372 -0.0483
25872W        W43396   4.674   1.800  11.511 -0.1906 -0.0558 -0.1192
25873W        W43397   2.367   3.004  10.918  0.2420 -0.1287 -0.0870
25874W        W43398   7.205  12.402   3.271 -0.1813 -0.1058 -0.1185
25875W        W43399  12.957   0.574  11.522  0.1297  0.2365  0.0827
25876W        W43400   4.703  13.725   3.391  0.1456 -0.1480  0.1784
25877W        W43401   2.006   5.289  11.986 -0.0813 -0.0855 -0.0710
25878W        W43402  11.174   1.960  12.254 -0.1916 -0.0030  0.0253
25879W        W43403  14.557   3.871  12.816 -0.0796 -0.1106 -0.1834
25880W        W43404  14.051   5.745   2.327 -0.0052 -0.0207  0.2159
25881W        W43405   8.894   2.555   0.886 -0.2972 -0.0029 -0.1429
25882W        W43406  15.366  17.772   1.053 -0.2744 -0.0207  0.1232
25883W        W43407  17.382  17.832   0.346  0.1812  0.1173  0.2014
25884W        W43408   0.626  15.822  14.533  0.0149 -0.3211 -0.6755
25885W        W43409   5.130   4.497  14.363  0.1868  0.2031 -0.0901
25886W        W43410   5.520  14.900  15.785 -0.0763  0.0652  0.0232
25887W        W43411  12.035  10.801   2.662  0.5096  0.2092 -0.2131
25888W        W43412   7.326   2.222  15.904  0.0602  0.0593 -0.0514
25889W        W43413  18.183  12.376  14.952  0.0291  0.0289  0.2902
25890W        W43414  15.850  10.307   3.403  0.1147  0.1569 -0.0472
25891W        W43415   3.664   2.559  12.928 -0.0009 -0.1036 -0.0349
25892W        W43416   4.503  16.651  15.954 -0.0644  0.2720 -0.0882
25893W        W43417  14.667   6.783  10.955  0.0163  0.0840  0.0368
25894W        W43418   6.810   9.944  14.476 -0.0218 -0.1788 -0.0458
25895W        W43419  13.015  13.758  11.914  0.1104  0.1573  0.0023
25896W        W43420  15.854   2.499  12.346 -0.0140  0.3333 -0.1011
25897W        W43421   5.000   6.645   0.622 -0.0363  0.1115 -0.0318
25898W        W43422  16.516   4.781  12.114  0.0995 -0.2527 -0.2383
25899W        W43423   7.433  15.728   3.086 -0.0184 -0.0006 -0.0214
25900W        W43424   1.904   5.405   4.445 -0.3308 -0.0802 -0.4064
25901W        W43425   5.356  10.501  16.034 -0.1989  0.1217  0.1066
25902W        W43426   7.067   6.362  11.195  0.0328 -0.2506  0.0275
25903W        W43427  16.629  13.424   1.483 -0.1941  0.0104  0.0068
25904W        W43428   2.123   0.908  12.407 -0.1340  0.2999  0.1493
25905W        W43429   1.036   4.294  14.961  0.1478  0.6219 -0.0632
25906W        W43430   4.068   4.966   5.077  0.3935 -0.0364 -0.1532
25907W        W43431  17.331  13.045   3.157 -0.2418 -0.1904  0.1833
25908W        W43432   0.919  15.180  15.772 -0.1377 -0.3073  0.1110
25909W        W43433  13.107  18.181  12.609  0.2161 -0.1302  0.1360
25910W        W43434   0.387  13.947  14.069  0.0370 -0.1348 -0.4318
25911W        W43435  13.605  12.276  12.007  0.1070 -0.0821  0.0261
25912W        W43436  15.713   4.869  11.071  0.1221  0.0969 -0.1664
25913W        W43437   9.125   6.232   2.949 -0.0600 -0.1133 -0.1683
25914W        W43438  17.307  14.897   4.260  0.2196 -0.1100  0.0950
25915W        W43439  14.922  12.457   2.079 -0.1168  0.1358 -0.2713
25916W        W43440  14.568   1.705   0.310  0.0094  0.1083 -0.0653
25917W        W43441   7.027   4.994  14.886 -0.0498  0.3089 -0.1365
25918W        W43442  15.364  13.817   3.636 -0.1404 -0.0590 -0.1243
25919W        W43443   7.359  11.190   0.961 -0.1165  0.0586 -0.1069
25920W        W43444   9.491  13.731   3.696 -0.0221  0.0790  0.0314
25921W        W43445   3.709   9.374  15.961  0.2943  0.2036 -0.0710
25922W        W43446  17.612  11.751   2.973 -0.0986 -0.1707 -0.2850
25923W        W43447  12.957   9.541  11.600 -0.0544  0.0756 -0.0951
25924W        W43448   1.424   1.937   0.070  0.0656  0.0007  0.1530
25925W        W43449  17.821   4.278   4.169  0.1318 -0.1022  0.0973
25926W        W43450   1.653   8.055  14.684 -0.0812  0.1275  0.3925
25927W        W43451   3.074  16.787   3.628  0.0812  0.0409 -0.1003
25928W        W43452   5.881   0.531   3.638  0.1644 -0.1745 -0.0011
25929W        W43453   8.008  12.597   3.765  0.2736  0.2684 -0.1049
25930W        W43454  14.024  14.148   5.240 -0.0409 -0.0688 -0.1381
25931W        W43455   8.964   3.382  13.494  0.1301 -0.2478 -0.0739
25932W        W43456  12.926  12.934   0.413 -0.2731  0.2274 -0.0728
25933W        W43457   7.295   9.942   1.888  0.0652  0.0141  0.0963
25934W        W43458   6.543  12.191  15.125 -0.6169 -0.4690  0.1843
25935W        W43459   5.755  10.585  12.731  0.2165  0.3127 -0.0555
25936W        W43460  17.901   6.326  11.102 -0.0839 -0.3373 -0.1381
25937W        W43461  10.445  16.479   5.014  0.1035 -0.1796  0.3090
25938W        W43462  16.192  17.965  13.398  0.0790  0.2387  0.0816
25939W        W43463   3.777  18.074  13.247 -0.1817 -0.0247  0.1446
25940W        W43464   5.692   2.048   1.209 -0.1167 -0.1788 -0.0559
25941W        W43465   4.214   0.540   5.475  0.1841 -0.0980  0.0132
25942W        W43466   3.229  14.883  13.713 -0.1663 -0.0575  0.1996
25943W        W43467  14.772  11.537  15.093 -0.0926 -0.1258  0.1157
25944W        W43468   1.678  17.537   1.719 -0.0047  0.0030  0.1388
25945W        W43469  17.425   4.369   4.530 -0.1154  0.0303  0.0352
25946W        W43470  13.998  15.847   2.532 -0.0272  0.1032  0.0498
25947W        W43471   0.586   4.934   0.352  0.2001  0.2823 -0.1123
25948W        W43472   1.090   9.494  12.204  0.1362  0.1062  0.0387
25949W        W43473  13.097   3.100  11.664  0.1091 -0.1002  0.0150
25950W        W43474   3.864   8.894   4.354 -0.1381  0.0954  0.2185
25951W        W43475  10.419   5.596  11.805 -0.0356  0.4388 -0.2562
25952W        W43476  17.101   9.420   0.434 -0.2124 -0.0144  0.0098
25953W        W43477  10.376  10.263   3.872  0.0330  0.0390  0.2145
25954W        W43478  10.267   7.164   4.244  0.2353 -0.1784  0.4353
25955W        W43479   2.989   3.502   5.014 -0.1559  0.3266  0.0258
25956W        W43480  14.744  10.200   1.530 -0.0840 -0.0155  0.2001
25957W        W43481   2.741   9.558  11.909  0.0497 -0.0101 -0.2494
25958W        W43482   2.363  16.473   2.517  0.1413 -0.2014  0.0774
25959W        W43483   0.802  12.217   4.290  0.4845 -0.0044 -0.1121
25960W        W43484   9.384   9.068   3.610  0.1080 -0.0510  0.0122
25961W        W43485   5.118   2.884   0.538 -0.1720 -0.2309  0.0995
25962W        W43486  12.576  16.004  14.721  0.2113 -0.0553  0.4033
25963W        W43487   8.654   4.413  16.037 -0.0120 -0.2693  0.1204
25964W        W43488   8.034   6.843   2.230  0.0844 -0.3628 -0.0959
25965W        W43489  17.708   8.378   3.053 -0.0243  0.2393 -0.0753
25966W        W43490   3.713   3.522  15.741 -0.1911 -0.0674  0.1823
25967W        W43491   6.109   8.665   3.118  0.3513  0.1173  0.0684
25968W        W43492   1.363  12.651   4.744 -0.2207 -0.0942 -0.2284
25969W        W43493  16.615  16.372  14.597  0.3040 -0.0823 -0.2677
25970W        W43494   3.091  17.195   2.333 -0.0505 -0.1239 -0.0293
25971W        W43495   2.474   5.938  12.042 -0.1509  0.0911 -0.1012
25972W        W43496   3.582  15.333  12.484  0.0611 -0.1121  0.1077
25973W        W43497   2.388  13.970   2.152  0.1110  0.2335 -0.0240
25974W        W43498   5.449   5.638   2.314 -0.3510  0.1710 -0.0246
25975W        W43499   5.931   7.573   3.615 -0.1327 -0.2183 -0.0409
25976W        W43500  16.822   8.830  11.798  0.1010  0.1196 -0.1467
25977W        W43501  14.962   9.689   2.620 -0.2596  0.1760 -0.1494
25978W        W43502   2.792   1.884   3.566  0.1030  0.0523  0.1349
25979W        W43503   6.529  16.952   1.309 -0.4258  0.1601 -0.0656
25980W        W43504  13.273   0.616   2.129 -0.0737  0.0692  0.1527
25981W        W43505  16.739   6.676   0.608  0.1763 -0.1753  0.3123
25982W        W43506   5.179   6.050  13.740 -0.1848  0.1084  0.1995
25983W        W43507   3.176  10.301   4.105 -0.0096 -0.1283  0.1230
25984W        W43508   1.647   0.510   2.739 -0.0993 -0.1377  0.2910
25985W        W43509  12.581   2.980   1.632 -0.0359  0.0273 -0.0706
25986W        W43510  13.904   9.852   2.665 -0.2754 -0.0884  0.2928
25987W        W43511   0.919   1.506  14.043  0.0908 -0.0494 -0.2863
25988W        W43512   0.758  14.953  13.971 -0.0239 -0.1229 -0.0238
25989W        W43513  14.895   1.372  11.738  0.0576 -0.0070  0.4105
25990W        W43514  15.528  11.608   3.579 -0.0968 -0.2301 -0.0110
25991W        W43515  13.028   3.074   2.590  0.2715  0.0634  0.0904
25992W        W43516   6.877  16.514   1.009  0.0299  0.0272 -0.0883
25993W        W43517   9.305   8.314   0.766 -0.0191  0.0663  0.0166
25994W        W43518   3.889   8.107  12.107 -0.0480 -0.2388  0.1102
25995W        W43519  15.625  13.259   2.941 -0.3357  0.1530  0.3435
25996W        W43520  13.939   8.508   0.994  0.0971  0.1573 -0.0686
25997W        W43521  12.739   5.838   2.751 -0.2623  0.1605 -0.0092
25998W        W43522   3.735   8.135  12.667  0.1405 -0.0373 -0.2081
25999W        W43523  10.304   8.792  15.766 -0.2643  0.0247 -0.0819
26000W        W43524   0.659  12.573   3.214 -0.0893  0.5414 -0.1327
26001W        W43525  11.338   4.286  12.612  0.3326 -0.0650  0.1254
26002W        W43526  13.586  17.467  13.672  0.1276  0.2737 -0.0897
26003W        W43527  12.188   8.115  14.288 -0.0895  0.0649  0.1110
26004W        W43528  14.474  13.936  14.250  0.4224  0.0545 -0.1752
26005W        W43529   6.901   8.268  10.819 -0.0469 -0.1794 -0.3329
26006W        W43530  15.762   8.721   3.668  0.0005  0.1742 -0.3374
26007W        W43531   2.731   4.473   1.037  0.0161 -0.0174 -0.0983
26008W        W43532  16.077  17.090  13.504  0.0829 -0.1987  0.1776
26009W        W43533   4.702   8.398  15.978 -0.0069  0.0506 -0.2831
26010W        W43534  14.333   9.707  14.254 -0.2456  0.1055 -0.0857
26011W        W43535   7.121   9.485  15.365  0.0337  0.2402 -0.0148
26012W        W43536  15.674  13.407   3.862  0.2207  0.2180 -0.2270
26013W        W43537  13.789   2.531  11.724 -0.0724 -0.0170  0.1378
26014W        W43538   9.343  13.154   2.060  0.2708  0.3751  0.1096
26015W        W43539  16.217   6.104   3.530 -0.3645 -0.3116  0.2700
26016W        W43540   3.486  14.023  11.270 -0.0113 -0.0449  0.0632
26017W        W43541  14.530  11.713   5.407  0.1555  0.0682 -0.2662
26018W        W43542   0.673  17.251   3.481 -0.0676  0.0423 -0.0766
26019W        W43543   5.768  17.652  14.745 -0.0597  0.2737 -0.3112
26020W        W43544  11.447  15.345   4.138 -0.1623 -0.0960  0.1980
26021W        W43545  18.128   2.831  12.067 -0.3456 -0.1602  0.0008
26022W        W43546  10.581   8.742   4.837 -0.0509  0.0231  0.2088
26023W        W43547   6.317   4.720  11.343 -0.1671  0.3783  0.2666
26024W        W43548  13.015  13.020  14.178  0.0592 -0.1082  0.0407
26025W        W43549   7.536  13.628  14.822  0.1760 -0.1040 -0.3716
26026W        W43550   8.708  12.403   3.895 -0.2327 -0.2701 -0.0989
26027W        W43551   1.460   3.677   5.117 -0.1754  0.1933 -0.2681
26028W        W43552   7.505   4.835   1.125  0.0568  0.0290 -0.0731
26029W        W43553   3.297   7.836  10.969  0.0926  0.0095 -0.1025
26030W        W43554   7.914   3.734   2.785 -0.2441 -0.0593  0.0695
26031W        W43555  10.420   7.490   3.330  0.3528  0.3254 -0.0695
26032W        W43556   3.289   5.874   1.898  0.1525  0.0940 -0.2415
26033W        W43557   8.670  13.340   1.191 -0.4475  0.0006 -0.1910
26034W        W43558   6.466   9.998   2.892  0.3880 -0.1577  0.1639
26035W        W43559  14.061   8.349   0.543 -0.0792 -0.0653 -0.0426
26036W        W43560  10.276  14.427   2.438  0.1891 -0.0462 -0.1809
26037W        W43561  10.658   4.478  13.737  0.2306  0.2516  0.1171
26038W        W43562  17.864  14.378  12.420  0.1064  0.0171 -0.1135
26039W        W43563   2.390  13.510   1.919  0.0953  0.1062  0.1163
26040W        W43564   7.621   3.689  14.006  0.4253 -0.0629  0.0384
26041W        W43565   8.708   3.365  11.173  0.0194  0.1605  0.1613
26042W        W43566   1.229   3.477   0.649  0.0772  0.1035  0.0339
26043W        W43567  15.650   8.182  11.357  0.0937 -0.3033  0.1425
26044W        W43568   0.480  15.440   5.272  0.1999  0.0931 -0.0121
26045W        W43569   0.162  11.182   2.252  0.3976  0.1447  0.0580
26046W        W43570   5.211  13.700  14.118 -0.3189  0.3449  0.0976
26047W        W43571   2.716   4.921  13.096  0.3933 -0.0962 -0.1617
26048W        W43572   8.503   1.309  14.715  0.0084  0.0346 -0.3749
26049W        W43573  17.025   6.159  13.855  0.1936 -0.3760  0.0731
26050W        W43574  14.544  17.735  15.197  0.0722 -0.2320  0.2465
26051W        W43575   5.020   8.717  13.049 -0.1696 -0.2608  0.3321
26052W        W43576   3.179   1.908  15.803  0.2016  0.3734 -0.3596
26053W        W43577   2.642   5.004   2.835  0.0160 -0.1781  0.0298
26054W        W43578   7.513  15.614  12.343  0.1188 -0.0647  0.1177
26055W        W43579   6.565   4.216  15.315 -0.2774  0.0311  0.3802
26056W        W43580   2.069   3.313   5.146  0.0303 -0.1176  0.2738
26057W        W43581   3.305   4.911   3.954  0.1826 -0.0640 -0.0256
26058W        W43582  17.616  16.404   3.345 -0.4312 -0.1712  0.0783
26059W        W43583  13.944  17.080   3.710  0.0678  0.0080  0.0769
26060W        W43584   8.069  14.903  14.868  0.2015 -0.2403 -0.0431
26061W        W43585   5.533  17.389   0.518 -0.0945  0.0530  0.0426
26062W        W43586   6.197  11.609   1.620  0.0174 -0.0732  0.2385
26063W        W43587   5.127   7.977   0.762 -0.0369 -0.0313  0.1738
26064W        W43588   8.356  14.202  14.383  0.2532  0.1468 -0.0321
26065W        W43589   5.332  13.134  11.835  0.0607 -0.0594 -0.0687
26066W        W43590   7.047  17.968   0.405  0.0544  0.0430 -0.0402
26067W        W43591  12.351   6.213  14.972  0.2081 -0.0124  0.0739
26068W        W43592   0.347  15.811  15.395 -0.2657 -0.1582 -0.0601
26069W        W43593   4.500   1.775  12.798  0.7205 -0.0101 -0.2590
26070W        W43594   1.298   3.165  12.809 -0.0875  0.2159  0.2371
26071W        W43595   0.434   4.990   3.366 -0.1916 -0.1588  0.4375
26072W        W43596   5.804  10.983  14.196 -0.2661  0.1634 -0.1208
26073W        W43597  12.996  12.186  12.724 -0.0641  0.0251  0.1723
26074W        W43598  15.613  10.364  13.074 -0.1514  0.2879 -0.0623
26075W        W43599  15.361   6.823  12.790  0.0212 -0.1457 -0.2231
26076W        W43600  13.921  12.441   1.473  0.1072  0.2921 -0.0560
26077W        W43601   0.505   1.243  14.251  0.2835  0.0112  0.1283
26078W        W43602   3.158   8.113   4.591 -0.1593  0.2890 -0.2067
26079W        W43603   3.542  14.183  13.215 -0.1012  0.0919  0.0363
26080W        W43604  10.759  16.340  15.390  0.2631 -0.0990  0.0997
26081W        W43605   9.308  13.097   5.961 -0.1129 -0.0306 -0.0545
26082W        W43606   8.708  14.310  11.632  0.2930 -0.0328 -0.2668
26083W        W43607   4.640   7.040   4.049 -0.2971 -0.0142 -0.3073
26084W        W43608  14.270  17.453   2.171 -0.0141  0.4788 -0.2196
26085W        W43609  13.159  17.837  13.569  0.0356  0.1074  0.2660
26086W        W43610   6.520   5.843   1.454  0.2465 -0.1524  0.0037
26087W        W43611   5.404   3.990   4.546 -0.0042  0.0277 -0.0604
26088W        W43612  17.844   5.515   5.151 -0.0487 -0.0415  0.2052
26089W        W43613  11.175  16.546   0.504 -0.2104 -0.3025  0.1777
26090W        W43614   1.128  12.574  15.853 -0.1264 -0.0333 -0.2209
26091W        W43615  14.926   9.034   3.112 -0.0394 -0.0819 -0.0145
26092W        W43616  16.032   1.231  14.659 -0.3743  0.1726  0.1761
26093W        W43617  16.124  17.861  12.816  0.3916 -0.0120  0.1498
26094W        W43618   4.778   0.806   4.263  0.1191 -0.3331 -0.0915
26095W        W43619   7.325   1.448   2.605 -0.1074  0.0595  0.1946
26096W        W43620  11.143   7.361   2.568  0.0671  0.1743  0.0549
26097W        W43621  15.231  10.579  15.058  0.0265  0.3373  0.1260
26098W        W43622  17.760   5.485  14.282  0.1651  0.2681  0.0040
26099W        W43623  14.835   9.360  11.363  0.0222 -0.0099 -0.0514
26100W        W43624   7.087   7.322  11.582  0.1083 -0.0619 -0.1108
26101W        W43625  11.228   3.076   0.471 -0.0233 -0.1755 -0.1203
26102W        W43626  12.256   0.629  14.502  0.0217  0.0453  0.1367
26103W        W43627   6.494  13.906  11.933 -0.0442  0.2210 -0.3132
26104W        W43628   7.756   5.382   5.382 -0.1805 -0.0541 -0.4373
26105W        W43629  17.537   0.735  13.250  0.0866 -0.2184  0.2655
26106W        W43630  16.233   8.833   2.137 -0.2414 -0.0630 -0.2794
26107W        W43631   1.634  14.044  15.307 -0.2455  0.1155  0.5115
26108W        W43632   4.283   9.522  13.663  0.0046  0.1601 -0.1730
26109W        W43633  17.714   6.895   5.216 -0.0539 -0.0693  0.1472
26110W        W43634   1.531  11.373  14.534  0.0189  0.2874  0.2157
26111W        W43635   4.875   2.056   0.086  0.0890  0.2175  0.3790
26112W        W43636  14.008   7.930  10.719 -0.2862  0.0369  0.3409
26113W        W43637   0.224   5.222  11.907  0.1052  0.2890  0.1826
26114W        W43638   0.476  10.210  15.929 -0.2469  0.3592 -0.0390
26115W        W43639  12.611  13.696   1.009 -0.1787  0.0308 -0.0507
26116W        W43640   7.911   6.656  13.654  0.1075  0.0797  0.0937
26117W        W43641  16.889   0.251   1.834 -0.1081  0.0705 -0.0390
26118W        W43642  14.362   1.131   4.233  0.1438  0.2465  0.1243
26119W        W43643   5.190   4.426   0.621 -0.0181  0.1389 -0.0598
26120W        W43644  12.863   6.002   2.250  0.3107 -0.2022 -0.2986
26121W        W43645  16.343  17.203  14.811  0.3853 -0.0509 -0.0993
26122W        W43646  13.611   4.628   1.789 -0.0392 -0.3068 -0.3159
26123W        W43647   0.109   2.526   5.153 -0.0318  0.3448 -0.0078
26124W        W43648  13.694   1.101   4.250 -0.0394  0.0340  0.0211
26125W        W43649  12.473   3.000   3.271  0.2872 -0.0274  0.0731
26126W        W43650   2.935   3.117  13.950 -0.2039  0.1889 -0.3733
26127W        W43651  11.112  13.722   2.583 -0.0867  0.1183 -0.2181
26128W        W43652  16.431  13.226  13.673  0.5436  0.0598  0.0762
26129W        W43653   9.020   4.447  11.894  0.0237 -0.2277  0.1637
26130W        W43654  15.386   0.897  13.008 -0.0362  0.0181 -0.1261
26131W        W43655   0.340  13.158   4.898 -0.1900  0.0518 -0.0264
26132W        W43656   4.275  13.599  13.306  0.1980 -0.1128  0.0657
26133W        W43657  15.926  17.272   4.898 -0.0094  0.2760 -0.0731
26134W        W43658   7.854   8.771  11.531 -0.3287  0.3464 -0.3393
26135W        W43659   6.981  11.268   2.486  0.1921  0.1771  0.0344
26136W        W43660  18.073  11.825   3.182  0.0436  0.0939  0.0018
26137W        W43661  16.425  17.023  13.151 -0.0295  0.0102  0.5778
26138W        W43662  10.892   1.095  13.210  0.2350  0.1234 -0.1756
26139W        W43663   2.350  16.374  14.757  0.1410  0.1224  0.0053
26140W        W43664   1.843   1.301   4.019 -0.2802  0.0623 -0.0597
26141W        W43665  10.523  15.484  12.876 -0.2478  0.0338  0.0352
26142W        W43666   1.226  10.339   1.188 -0.0350  0.1380  0.0074
26143W        W43667   4.022   2.858  12.629 -0.0853  0.2418 -0.0527
26144W        W43668  14.814   9.391   5.408  0.2060 -0.1099  0.0539
26145W        W43669  17.836   4.443   0.353 -0.1813 -0.1454  0.0016
26146W        W43670  16.496   1.076   3.110  0.0864 -0.1743 -0.1494
26147W        W43671  10.629  10.673   0.782 -0.0033 -0.2156 -0.0123
26148W        W43672  15.649   7.195  13.174  0.1930 -0.2208  0.1420
26149W        W43673   0.916  12.653  12.149 -0.1326  0.1749  0.0012
26150W        W43674  16.570   6.717   1.153  0.2510 -0.2364  0.1693
26151W        W43675  13.970  12.253   5.183  0.1071 -0.1135  0.1808
26152W        W43676   7.590   4.649  14.987 -0.0527  0.1834 -0.0944
26153W        W43677   6.871  11.155   1.193  0.0429 -0.0013 -0.3179
26154W        W43678  10.723   0.799  13.595 -0.0346 -0.2063 -0.4860
26155W        W43679  12.052   5.376  12.656 -0.2820  0.1630  0.0219
26156W        W43680  16.362   2.943   2.961  0.0420 -0.0628 -0.1218
26157W        W43681  10.659   0.582   2.167  0.3310  0.0297 -0.1261
26158W        W43682  15.911   1.328   1.823  0.2929  0.0343 -0.2130
26159W        W43683  12.332  16.257   4.966  0.0193  0.0978  0.0125
26160W        W43684   5.503   2.614   2.986  0.3514  0.1185  0.0024
26161W        W43685  17.062   4.687   4.261  0.0641 -0.0030  0.1819
26162W        W43686  16.494  11.182   3.381 -0.4080  0.0088  0.0935
26163W        W43687  17.472   2.312  15.638  0.2238 -0.1009 -0.0073
26164W        W43688   7.607  13.529  12.148  0.0635 -0.1372 -0.0557
26165W        W43689  17.507  10.979  13.757 -0.1353  0.1515  0.2888
26166W        W43690   1.385   7.895   1.309  0.2866 -0.0452  0.0084
26167W        W43691  13.877   4.267   2.097  0.0840  0.1530 -0.1257
26168W        W43692   0.654  10.697  11.435 -0.0457  0.0451  0.2186
26169W        W43693   9.156   1.560  11.721 -0.0947  0.1385 -0.3046
26170W        W43694   5.858   4.066  15.494  0.0801  0.1926  0.0652
26171W        W43695   8.259   4.917   1.782 -0.2337  0.2806 -0.1437
26172W        W43696  12.259  10.345  11.001  0.0579 -0.0697  0.0055
26173W        W43697  10.417   4.900   3.303 -0.0513 -0.0100 -0.1710
26174W        W43698  15.593   3.432  14.504 -0.1301  0.3664  0.2984
26175W        W43699   4.213   8.216  15.137  0.2322 -0.0088  0.2498
26176W        W43700  15.596  14.848   1.009 -0.1058 -0.0035  0.2232
26177W        W43701   8.287   5.383   2.051  0.3841  0.1775 -0.1505
26178W        W43702  12.718   6.543   4.160  0.2748  0.0634 -0.1355
26179W        W43703   6.370   6.005  12.965 -0.1889  0.2353 -0.0656
26180W        W43704  11.569   9.819   5.262  0.1125 -0.1439  0.0922
26181W        W43705   2.233   4.185   1.684 -0.0448 -0.0409 -0.0922
26182W        W43706   2.687  14.153  13.479  0.0637  0.0635  0.3308
26183W        W43707  15.737  15.066  14.795 -0.1296 -0.2400  0.4351
26184W        W43708   9.240  16.230  12.036 -0.2859  0.0538  0.0745
26185W        W43709  12.370  10.058   3.888 -0.3673  0.0834  0.2882
26186W        W43710  12.076  10.377  15.152  0.0287  0.1694  0.3335
26187W        W43711   1.745   1.256   5.811  0.0565  0.2439 -0.0965
26188W        W43712   6.462  11.435  13.538 -0.1448 -0.1854  0.2215
26189W        W43713  10.360  16.850   2.213 -0.2681  0.0422 -0.3722
26190W        W43714  16.996  13.367  14.964 -0.1497  0.1861  0.0804
26191W        W43715  16.018   5.958   4.764 -0.2679  0.1454 -0.0489
26192W        W43716  17.601   8.448  13.136  0.1101 -0.0569 -0.1327
26193W        W43717  14.325  11.809   2.586  0.2567 -0.1393  0.1582
26194W        W43718  14.926   1.700   3.190  0.0615  0.0216 -0.2776
26195W        W43719   4.314   4.207   3.345 -0.2463  0.3370  0.0079
26196W        W43720   8.389   6.802  14.529 -0.0182  0.1316  0.2086
26197W        W43721   8.884   4.425   4.428 -0.1273  0.0694  0.0191
26198W        W43722  11.049  17.385   2.960 -0.1213  0.1025  0.2848
26199W        W43723  14.770  17.142   3.775  0.0704  0.0816  0.1524
26200W        W43724   7.353   5.108  15.409  0.0338 -0.0692  0.0698
26201W        W43725   6.707   9.361   3.472  0.2656 -0.0468  0.1962
26202W        W43726  15.755  14.199   3.499 -0.1632  0.1342  0.0611
26203W        W43727  14.319   8.119   5.186  0.1405  0.0026 -0.1187
26204W        W43728  11.300   2.618   2.562  0.0081  0.0211 -0.1356
26205W        W43729  15.416   1.713   3.270  0.0274  0.4200  0.0136
26206W        W43730   6.417   9.991  11.701  0.0187  0.2304  0.1250
26207W        W43731   0.648  11.634  15.955 -0.3862  0.3068  0.1224
26208W        W43732  15.526   4.949  12.977 -0.1112  0.1586 -0.1119
26209W        W43733   3.436  11.125  12.130 -0.5781 -0.1437  0.4092
26210W        W43734   6.564   5.251   0.061  0.4579 -0.1492 -0.3835
26211W        W43735   2.808   6.291   3.982 -0.0375  0.0243 -0.2113
26212W        W43736   2.634  10.065   4.068  0.0056  0.0895 -0.2314
26213W        W43737  13.243   7.174   0.034 -0.0462  0.2313  0.0573
26214W        W43738   4.836   9.805   0.918 -0.1340  0.0205  0.0726
26215W        W43739  18.084   7.936   2.306 -0.1674  0.0468 -0.1238
26216W        W43740  15.918  10.532   4.266  0.2425  0.1085  0.2918
26217W        W43741   4.938   0.245   4.357 -0.2634  0.1169 -0.0197
26218W        W43742   3.985   9.569  11.883 -0.1482 -0.2382 -0.2722
26219W        W43743  18.121  11.407  15.026 -0.1226 -0.0282  0.1286
26220W        W43744   5.824   4.868  15.125 -0.1380 -0.3580  0.1253
26221W        W43745  15.470   7.280   3.833 -0.0031 -0.1829 -0.1546
26222W        W43746  16.239   5.701   2.111  0.0548 -0.0409  0.0235
26223W        W43747  10.046   6.247   2.650  0.0766  0.3277  0.0081
26224W        W43748   9.599   0.979  12.189  0.1078  0.0510  0.2093
26225W        W43749  16.631  15.689   0.706 -0.2056  0.2162 -0.2813
26226W        W43750  14.607  11.710  12.552 -0.1107 -0.0331 -0.1435
26227W        W43751   1.278  16.699   0.105 -0.0660 -0.2403  0.1401
26228W        W43752   5.424   5.311   1.271 -0.1245  0.1518  0.5246
26229W        W43753   2.692   1.748  15.682  0.2904  0.1401 -0.2162
26230W        W43754   8.633  17.375  13.497  0.0054  0.0293 -0.1303
26231W        W43755  16.494  14.863   2.659 -0.2230  0.3774  0.2357
26232W        W43756   8.549   9.567  15.130  0.3876 -0.2969  0.3549
26233W        W43757   4.802   4.206   2.324  0.0001  0.0732  0.1366
26234W        W43758   9.845   2.253   0.892 -0.4384  0.1424 -0.0260
26235W        W43759   8.056   4.644  14.275  0.0358  0.1367  0.1635
26236W        W43760   2.688   5.484  12.984 -0.2545 -0.2275 -0.1647
26237W        W43761  15.636   2.300  14.683 -0.1212 -0.1259 -0.5777
26238W        W43762  17.930   2.469   2.397  0.0831  0.1510 -0.0688
26239W        W43763  11.280   0.300  14.419 -0.0314  0.1057  0.1427
26240W        W43764   7.316   2.525  11.860 -0.0642 -0.2342 -0.1624
26241W        W43765  16.652   6.944  13.811 -0.0583 -0.1852 -0.1572
26242W        W43766  18.069  17.931   0.931  0.0861  0.2769  0.0319
26243W        W43767   8.561   7.859  14.449  0.1353 -0.1247  0.2396
26244W        W43768  15.226  15.698  14.028 -0.3610  0.0852  0.2892
26245W        W43769  15.183   8.157  11.652  0.3986  0.3134  0.1529
26246W        W43770  16.814   5.514  12.125  0.2803  0.2559 -0.0354
26247W        W43771   3.145  11.027   0.378  0.1593 -0.0645 -0.0767
26248W        W43772   1.760   6.645  13.312 -0.1655 -0.0114 -0.3905
26249W        W43773  18.176   3.486   2.117 -0.0610 -0.0906  0.1756
26250W        W43774   2.864   8.090  13.031  0.1300 -0.0400 -0.0040
26251W        W43775  15.406  11.373   2.242  0.1179  0.0892 -0.3587
26252W        W43776   0.210   8.702  13.120 -0.3324 -0.0122 -0.0129
26253W        W43777  14.872  12.768  11.018  0.2421 -0.0538  0.3041
26254W        W43778   9.700  16.744   1.916  0.0381  0.0021 -0.2460
26255W        W43779   9.251   4.090  15.006 -0.2829 -0.1317 -0.1945
26256W        W43780   8.048  15.435   0.692  0.1131 -0.1498  0.0856
26257W        W43781   6.772   3.714   4.010 -0.2623 -0.2958 -0.3256
26258W        W43782  11.547   3.258  15.205  0.0725 -0.2218  0.1632
26259W        W43783  14.896   6.455   4.099 -0.1007 -0.1359 -0.2697
26260W        W43784  15.782  15.104  11.777  0.3356  0.1982 -0.3322
26261W        W43785  12.708   0.039   4.436  0.0598 -0.3701 -0.2183
26262W        W43786   1.692  11.542   3.360 -0.0751 -0.2789 -0.0184
26263W        W43787   7.829   2.956   0.836 -0.0344  0.0589 -0.0396
26264W        W43788  12.479   8.758  13.356  0.1045 -0.0868 -0.1113
26265W        W43789   1.241   3.470   3.749  0.0070  0.1319 -0.0566
26266W        W43790   0.942   9.680  14.746 -0.0060 -0.1292 -0.4141
26267W        W43791   4.227   1.235  13.959 -0.0913 -0.0310 -0.0262
26268W        W43792   1.915   1.583   0.007  0.1215  0.0141 -0.1698
26269W        W43793  11.353  13.931   5.238  0.1705  0.2169  0.0754
26270W        W43794   8.500   0.301  15.400 -0.0762  0.1879  0.1215
26271W        W43795   0.322  15.448   3.497 -0.0247 -0.1497  0.0593
26272W        W43796  11.899  16.188   0.199 -0.0854  0.1601  0.2795
26273W        W43797  10.600  10.842  14.248 -0.0479  0.0222 -0.0859
26274W        W43798   6.045   6.191  12.654 -0.2749 -0.1013 -0.1111
26275W        W43799   4.728  16.435  13.034 -0.0871 -0.1651 -0.0485
26276W        W43800  15.723  14.158  11.538  0.3584  0.0303 -0.0680
26277W        W43801  13.122   7.135  15.665 -0.0863 -0.0920 -0.2358
26278W        W43802  12.819   3.670  14.520  0.0782  0.3183 -0.1201
26279W        W43803   8.700  11.192   2.474 -0.0244 -0.3382 -0.2071
26280W        W43804   3.918  14.036   0.933 -0.5087 -0.2896  0.0903
26281W        W43805   0.150   0.848   4.744  0.2204 -0.1302  0.1586
26282W        W43806   8.816  11.916  15.679 -0.1520 -0.0182  0.0716
26283W        W43807  13.690  13.721   5.262  0.1303  0.3052  0.2279
26284W        W43808   1.473   1.035  13.461  0.2627 -0.1443 -0.0691
26285W        W43809  15.524   1.468   4.243  0.4149 -0.0930 -0.1474
26286W        W43810   9.482   3.243  12.946  0.1156  0.0013  0.1689
26287W        W43811   2.001  13.652  15.906  0.0707 -0.1518  0.0910
26288W        W43812   9.685   8.642   1.542  0.1883 -0.0182  0.0600
26289W        W43813  14.335   3.896   1.828 -0.1373 -0.0908 -0.0338
26290W        W43814  18.158  10.817   0.429 -0.0458 -0.3279 -0.0009
26291W        W43815   3.704  18.165   0.820  0.0616 -0.1054  0.0308
26292W        W43816  16.134   9.529  13.458  0.2631  0.0719  0.0166
26293W        W43817   0.988   0.540   3.316  0.4182  0.0668  0.1061
26294W        W43818  15.708   9.790  14.401 -0.3486  0.1991  0.0575
26295W        W43819   2.263   6.914  14.208 -0.1034  0.2089  0.0083
26296W        W43820   8.293  18.100   1.445  0.1393 -0.0396  0.0294
26297W        W43821  18.020   1.334  15.778 -0.4270  0.1673  0.0910
26298W        W43822  10.730  14.149  13.278  0.0906 -0.1330  0.2073
26299W        W43823   8.632  16.139  13.352  0.0989 -0.0277  0.0237
26300W        W43824   0.831   2.355  15.163 -0.0953  0.2694 -0.2525
26301W        W43825   6.800   7.931  14.803 -0.1447 -0.1597 -0.1763
26302W        W43826   4.050   5.562   2.614 -0.1296 -0.1498 -0.2436
26303W        W43827  12.777  11.318   4.156  0.1328  0.2271  0.2171
26304W        W43828  14.480   8.378  14.689  0.1706 -0.1497 -0.2642
26305W        W43829  14.451   1.581   4.034 -0.0338  0.0778  0.2563
26306W        W43830  10.886   2.881   2.248  0.1872  0.1526  0.0311
26307W        W43831  18.061  15.745   1.031  0.0174 -0.0626  0.3007
26308W        W43832  11.657  12.376   2.388  0.0284 -0.3899 -0.4770
26309W        W43833  14.791   4.154   1.746  0.0850  0.2325  0.1288
26310W        W43834   0.046   2.150   4.825  0.1520  0.3069  0.0307
26311W        W43835   9.424  16.124  14.346  0.0996  0.0168 -0.2352
26312W        W43836   2.506   9.613  13.440 -0.0025  0.1146  0.3201
26313W        W43837  17.496  13.277   5.118 -0.2541 -0.0385 -0.0396
26314W        W43838  15.144   9.106  12.527  0.5645  0.1962 -0.0726
26315W        W43839   6.656  18.132  15.344 -0.0553  0.1339 -0.0638
26316W        W43840  10.908   1.000   2.014 -0.1249 -0.0589  0.0654
26317W        W43841   0.158   4.353  13.832  0.3029 -0.0945  0.3795
26318W        W43842  18.066   9.918  15.802  0.0515  0.1970 -0.1465
26319W        W43843   4.158   7.738  12.679  0.0415 -0.3190 -0.0443
26320W        W43844  15.727   2.886  15.603  0.0274 -0.0484  0.1577
26321W        W43845   1.434   9.356   2.893  0.5164  0.3185 -0.0770
26322W        W43846  15.222   9.232  11.629 -0.2422 -0.0439  0.1603
26323W        W43847  11.830  10.600  14.336  0.1339  0.0920  0.0578
26324W        W43848   9.327  17.426   3.457 -0.0110  0.0228 -0.4089
26325W        W43849  10.130  13.107   1.269  0.3751  0.2509 -0.0896
26326W        W43850   5.149  17.131   2.564  0.1724  0.3647  0.0027
26327W        W43851  12.794  15.238   1.536 -0.1417  0.1342 -0.2518
26328W        W43852  15.548   0.192  13.792 -0.4631  0.0491 -0.1508
26329W        W43853   8.338  13.324  13.261 -0.0070 -0.1947  0.0769
26330W        W43854  13.666   2.653   3.175 -0.2199  0.2550 -0.0252
26331W        W43855  11.346   0.649   0.316  0.2130  0.0970  0.1469
26332W        W43856   6.429  17.372   3.006  0.1524  0.0911 -0.1612
26333W        W43857  13.420   9.011  12.126 -0.2967 -0.0847  0.1623
26334W        W43858  13.993  13.933  13.405 -0.1187 -0.1076 -0.0084
26335W        W43859   2.334   4.024   4.640 -0.1164  0.0457  0.2214
26336W        W43860  12.463   1.653  14.382 -0.1464 -0.4251  0.0745
26337W        W43861  17.457   8.116   2.726  0.1931 -0.1038  0.0235
26338W        W43862   9.667   1.427   5.209 -0.1708  0.0035 -0.0535
26339W        W43863   7.774   4.126  13.125  0.0014 -0.2521 -0.0973
26340W        W43864   5.867   9.527  10.518 -0.0797  0.0134 -0.1640
26341W        W43865  11.498   5.928   0.899  0.0176 -0.0318  0.0368
26342W        W43866   9.902  10.490   3.207  0.0488 -0.2283 -0.1474
26343W        W43867  11.791   8.146   1.440 -0.3300  0.0223 -0.1011
26344W        W43868  11.440  14.076  13.880  0.0789 -0.2279 -0.1132
26345W        W43869   3.744   4.730   2.168 -0.1916 -0.1522  0.1301
26346W        W43870   7.806   2.231   0.112 -0.0525 -0.2810  0.0460
26347W        W43871  15.495   8.897  14.223  0.1565 -0.2918 -0.0873
26348W        W43872  10.284   7.436  12.615  0.2550 -0.1627 -0.2961
26349W        W43873   6.226   3.205  11.973 -0.2134  0.2376  0.4376
26350W        W43874  10.902   7.144  12.739 -0.1926  0.1688  0.3675
26351W        W43875   3.944   6.693   0.625 -0.1522 -0.1611 -0.0771
26352W        W43876  12.874  14.572  11.682  0.1066 -0.2988  0.2357
26353W        W43877  14.866   1.840   4.789  0.1564  0.0666 -0.3041
26354W        W43878   7.293  14.538   0.987 -0.0595  0.0199 -0.1165
26355W        W43879  15.913  13.514  16.041 -0.1951 -0.0809 -0.0643
26356W        W43880  15.025  15.940  13.608 -0.3087 -0.0883  0.3774
26357W        W43881   2.237  12.092   1.158  0.0913 -0.0247 -0.1930
26358W        W43882   3.983  13.696   2.243  0.0393  0.2610  0.1303
26359W        W43883   8.342   8.288  12.161 -0.1655  0.0219 -0.0570
26360W        W43884   2.982  15.931   5.045 -0.1643  0.1289  0.2378
26361W        W43885  13.249  10.980   1.243 -0.0472 -0.0088 -0.2500
26362W        W43886   0.446   1.114  11.567 -0.0428  0.2858  0.2568
26363W        W43887  18.056   5.163  13.957 -0.0036 -0.1217 -0.0269
26364W        W43888   1.846   7.178  14.440 -0.1683 -0.2189 -0.0141
26365W        W43889  12.524   7.102   4.554 -0.0029  0.1357 -0.0107
26366W        W43890  12.640  14.259  13.596  0.2473 -0.1653  0.0874
26367W        W43891  13.129   3.407  14.241 -0.2293  0.0890  0.1317
26368W        W43892  16.053  13.292  14.950  0.2420 -0.3996 -0.1688
26369W        W43893  16.733  11.275   5.210  0.1894 -0.2247 -0.2520
26370W        W43894   9.897  12.068   3.691 -0.0370 -0.3663  0.0391
26371W        W43895  10.538   0.317  15.087 -0.0289  0.1426  0.1649
26372W        W43896  12.728   4.269   3.797  0.2309 -0.2418  0.0198
26373W        W43897  11.737   3.729  13.260  0.0563  0.0998 -0.1004
26374W        W43898   0.684  13.792   1.352 -0.2602 -0.0562 -0.1623
26375W        W43899  16.087   5.865  12.733  0.1973 -0.0096  0.0845
26376W        W43900   9.216  16.234   4.224  0.0765  0.2236  0.0038
26377W        W43901   2.301   2.998   2.899  0.0730  0.3442 -0.2489
26378W        W43902   8.777   4.207  14.757  0.1337 -0.2799  0.0754
26379W        W43903  12.884   6.922   2.478  0.0656  0.0641 -0.1377
26380W        W43904   5.252   4.025   2.759  0.0385  0.2408  0.0518
26381W        W43905   8.769  13.045   1.563 -0.1852  0.0588  0.0369
26382W        W43906  10.070   1.895   1.280 -0.1569  0.0933  0.0588
26383W        W43907  12.811  15.073   4.231  0.0347  0.1792  0.1237
26384W        W43908  11.123  16.943   1.690  0.2243  0.1815 -0.0614
26385W        W43909  14.331   6.685   4.647 -0.1905 -0.0920  0.1362
26386W        W43910  14.651   9.501   4.930  0.2060  0.3382 -0.1759
26387W        W43911  12.038   9.966  12.391 -0.0139  0.1820 -0.1348
26388W        W43912   8.276   4.594   0.984  0.0749  0.2015  0.0010
26389W        W43913   8.557  11.638   4.154  0.0080  0.2786 -0.0209
26390W        W43914   2.018  14.920   1.317  0.0214  0.0480 -0.0941
26391W        W43915  18.001  17.407   3.601  0.1399  0.0389 -0.0121
26392W        W43916  11.846   5.892   1.215  0.1248 -0.1037 -0.0628
26393W        W43917  14.814   7.283  13.504  0.0118  0.0219  0.1948
26394W        W43918  15.181   3.098  11.259  0.0921  0.0792 -0.0419
26395W        W43919   8.984   7.016   4.877  0.2161  0.1487 -0.0412
26396W        W43920   6.934   8.896   3.550  0.2437  0.0672 -0.1556
26397W        W43921   5.826  11.294   2.601  0.3562  0.3969  0.1545
26398W        W43922  14.562   1.596   4.524 -0.0324  0.0658 -0.2393
26399W        W43923   8.229  14.311  15.927 -0.2505  0.0678  0.1271
26400W        W43924  17.017  10.082   1.239 -0.0721  0.0532  0.0323
26401W        W43925   2.856  11.644   3.510  0.0815  0.0751 -0.0805
26402W        W43926  11.996  15.077  15.578 -0.3812 -0.2462 -0.0890
26403W        W43927   5.556  15.474   1.806 -0.0981  0.2343 -0.2745
26404W        W43928   4.254   1.462  12.207  0.1640  0.1724 -0.0830
26405W        W43929   2.581  11.115  12.688 -0.1592  0.2783  0.1300
26406W        W43930   3.961   9.011  11.992 -0.0334  0.0120 -0.1834
26407W        W43931  18.063  13.145   2.523 -0.1909 -0.0373  0.1428
26408W        W43932  16.097   0.531  12.999  0.1416  0.0010  0.0413
26409W        W43933  15.100   3.448   0.330 -0.0836  0.3529 -0.2666
26410W        W43934  12.912  12.254   2.970  0.1298 -0.3260 -0.1268
26411W        W43935  12.077   1.417  14.070 -0.3308  0.1826 -0.0118
26412W        W43936   3.270  12.846   1.251  0.0076  0.1346  0.1465
26413W        W43937   3.772   9.074  15.308 -0.0224 -0.2206 -0.1866
26414W        W43938   0.912   9.562  13.531 -0.1195  0.0719 -0.0342
26415W        W43939   1.567   1.281   1.665  0.2405 -0.0598 -0.3318
26416W        W43940   9.663  15.944   3.457 -0.1226  0.1546  0.1587
26417W        W43941   1.469   2.681  12.921 -0.1735  0.0505  0.0273
26418W        W43942   5.827  12.644   2.444  0.0277  0.0843  0.1576
26419W        W43943  10.060  14.095  11.770 -0.3431 -0.0480  0.1175
26420W        W43944  12.871  13.466  14.770 -0.0534 -0.0716  0.0644
26421W        W43945  14.273  11.254  10.897  0.1388  0.0310  0.1033
26422W        W43946   1.606  16.459   1.023 -0.1405  0.0025 -0.0588
26423W        W43947   3.485   9.648  13.574 -0.0482  0.5421  0.1478
26424W        W43948   4.691   6.783   0.175 -0.1921 -0.0842 -0.0825
26425W        W43949   4.486   5.862  14.378 -0.0807  0.0899  0.0725
26426W        W43950  17.457  15.791  14.941  0.1242  0.0366 -0.0172
26427W        W43951  14.389  14.501  14.617  0.0216 -0.1621  0.0230
26428W        W43952  17.027   0.896   4.750  0.0911 -0.1075 -0.0427
26429W        W43953   7.002   1.887  11.204  0.0139  0.0371 -0.0527
26430W        W43954   6.238   9.978   0.820 -0.3348 -0.2280  0.0526
26431W        W43955   8.325   1.438   3.207  0.3357 -0.0841 -0.1618
26432W        W43956  17.161  13.653  13.276 -0.5120 -0.1733  0.1922
26433W        W43957  12.959  11.175  13.731 -0.2921  0.0290  0.3187
26434W        W43958  13.069   6.235   4.162  0.0914 -0.3047 -0.0189
26435W        W43959  13.530   2.871  11.162  0.0399  0.1648 -0.2591
26436W        W43960   3.265   1.125   4.583 -0.0784 -0.1513  0.4655
26437W        W43961  14.904   8.887  12.165  0.0679 -0.0392  0.1165
26438W        W43962   5.253  11.225   1.524 -0.2298  0.1371  0.1844
26439W        W43963  15.212   5.443   0.827 -0.0810 -0.1632 -0.3054
26440W        W43964  15.459  15.441   5.664 -0.1418 -0.0534 -0.0510
26441W        W43965  16.870   2.122  11.768  0.1865  0.0112 -0.1664
26442W        W43966   0.531  15.625  11.821  0.0496 -0.1776 -0.0061
26443W        W43967   3.838   4.886  13.838 -0.3448 -0.1191 -0.0424
26444W        W43968  16.267   0.994  12.585 -0.0273  0.0518  0.1128
26445W        W43969   0.695  13.016   0.398  0.0965 -0.0232 -0.1141
26446W        W43970  15.049   8.401  13.032  0.1461 -0.1845  0.1480
26447W        W43971  14.085   3.740   3.782 -0.2838  0.0487  0.0903
26448W        W43972   3.052  16.408  13.504 -0.1905  0.2756 -0.0027
26449W        W43973   8.039   6.106  12.169  0.1741  0.3539  0.1100
26450W        W43974  15.830  10.496   4.760 -0.3379 -0.1167  0.4666
26451W        W43975  12.018   0.302   0.732  0.1507  0.1171  0.0483
26452W        W43976   3.549  16.240  13.813  0.0127  0.1778 -0.1108
26453W        W43977  14.617  15.474  15.350  0.2267  0.1759 -0.0596
26454W        W43978  17.870   0.252  15.232  0.1113  0.0307 -0.0384
26455W        W43979   2.229  14.607   2.855 -0.1726  0.0351 -0.0396
26456W        W43980   5.057  16.099   0.866 -0.0031 -0.1795  0.1052
26457W        W43981  14.719  12.138   3.629  0.2359 -0.1796 -0.2606
26458W        W43982  14.380  14.293  13.593  0.0145  0.1473  0.0962
26459W        W43983   5.141   3.030   3.961  0.1229 -0.0443  0.0941
26460W        W43984  11.302   9.316  15.915  0.2473 -0.0137 -0.2524
26461W        W43985   3.587   9.233  11.786 -0.0359  0.0057 -0.1279
26462W        W43986   1.379  11.609   4.647 -0.1066 -0.1002 -0.3212
26463W        W43987   6.814   4.528   1.801  0.2128  0.0424  0.2127
26464W        W43988   6.199  12.411   2.215 -0.0004 -0.0613  0.0767
26465W        W43989   6.105  14.284  12.145  0.2474  0.0676  0.0048
26466W        W43990   2.030  17.715  11.031 -0.2489  0.3248  0.1123
26467W        W43991  17.777  11.112  12.173  0.1026  0.1618  0.1734
26468W        W43992   5.116  15.503  15.066 -0.2380 -0.4712  0.0972
26469W        W43993  15.501  11.689   1.798  0.0831 -0.1425  0.5488
26470W        W43994  17.755  10.794   2.078 -0.0185  0.4813  0.0754
26471W        W43995   8.948  16.697  11.122 -0.0392  0.1531  0.0840
26472W        W43996   2.364  15.639   3.880  0.0836  0.0181  0.0374
26473W        W43997  14.156   6.020   2.930  0.2103 -0.2514  0.1359
26474W        W43998   1.610   7.441   6.023  0.0488 -0.1200  0.0511
26475W        W43999  12.438  13.282   4.497 -0.0626 -0.5141 -0.0355
26476W        W44000   9.220   6.100  12.423 -0.0435 -0.2915  0.0079
26477W        W44001  14.498   9.468  11.829 -0.2083  0.3712  0.0809
26478W        W44002  18.143  10.054  14.329  0.0196 -0.1129 -0.0649
26479W        W44003  12.409   1.704  12.794  0.2451  0.1437 -0.0815
26480W        W44004  15.063   7.457  14.891  0.2451  0.0300 -0.3027
26481W        W44005   0.744   7.173  14.816  0.0855  0.1178 -0.0390
26482W        W44006  14.446  12.163   2.970 -0.0591  0.1115  0.1720
26483W        W44007   9.115  12.393   3.625  0.4829 -0.0026  0.4032
26484W        W44008   4.650   3.122   1.198 -0.0339 -0.0636 -0.0631
26485W        W44009   2.502   4.138   2.167  0.1900  0.2237  0.0143
26486W        W44010   2.642   8.527   2.339  0.0753 -0.0007  0.2499
26487W        W44011  13.437   9.670  15.411 -0.2323  0.0300  0.1343
26488W        W44012   5.010  13.793  11.117  0.3242  0.1250 -0.1690
26489W        W44013   1.710   5.320  12.998  0.0650 -0.1201  0.0610
26490W        W44014   9.768   3.753  11.896  0.1448  0.2542 -0.2236
26491W        W44015  13.316   1.838   1.633 -0.0355 -0.0582 -0.0546
26492W        W44016  15.087  14.702  13.836 -0.0028 -0.2001  0.1888
26493W        W44017  10.344   7.411   0.876  0.0825 -0.2780 -0.0953
26494W        W44018   5.136  13.170   1.995 -0.1091 -0.0325  0.0257
26495W        W44019   3.704   2.716   4.031 -0.3069  0.0403 -0.0059
26496W        W44020  12.715  13.415  15.907  0.1097 -0.3487 -0.0218
26497W        W44021   6.360  13.151  12.430 -0.0686 -0.2571  0.0719
26498W        W44022   9.520  17.193   1.908 -0.1005 -0.0806  0.0737
26499W        W44023  17.315  17.235  15.169  0.0803 -0.0201  0.0631
26500W        W44024   5.106   9.503   4.047  0.0174 -0.2021 -0.0582
26501W        W44025   3.513   1.888  14.382  0.3687 -0.1474  0.0673
26502W        W44026   6.863  11.810   4.952  0.0953  0.1898  0.1015
26503W        W44027  11.671  13.979  11.007 -0.0063  0.2114 -0.0334
26504W        W44028  14.529  12.331   0.720 -0.0612  0.2752  0.0341
26505W        W44029   5.805  15.384   2.302  0.0308 -0.1692 -0.2547
26506W        W44030   4.534  16.088  14.619 -0.0526  0.0169 -0.4125
26507W        W44031   7.832   4.790  16.065  0.1522  0.0263  0.0572
26508W        W44032  12.989   8.690  11.964 -0.2254  0.1345  0.0861
26509W        W44033  10.314   4.848  11.118 -0.0172 -0.0839  0.0534
26510W        W44034  16.928   8.381  12.092 -0.1640  0.1051  0.2160
26511W        W44035  17.837   9.918  12.104  0.1012  0.1132  0.2839
26512W        W44036  15.238  10.807   3.062  0.3101 -0.0420 -0.0476
26513W        W44037   0.007   4.855  11.525 -0.0503 -0.2319  0.1242
26514W        W44038  12.505   0.232   1.614 -0.0523  0.1889 -0.0035
26515W        W44039   2.646   2.294   4.245  0.0967 -0.1035  0.0804
26516W        W44040  16.509  14.607   0.415  0.0506 -0.0312  0.2264
26517W        W44041  10.776   3.368  11.895  0.0393  0.0648 -0.0049
26518W        W44042   8.360   7.480  13.260  0.2115 -0.2035  0.1257
26519W        W44043   1.221  11.078   3.676 -0.3027  0.0454  0.0983
26520W        W44044   5.589   0.783   4.002 -0.2721  0.0542 -0.0071
26521W        W44045  13.401  14.135   1.535  0.0064 -0.0274  0.4080
26522W        W44046   8.703  18.114  13.074  0.2019  0.0901  0.2530
26523W        W44047  15.834   6.395   3.786  0.0333 -0.0441  0.1019
26524W        W44048   9.797  11.614  10.394 -0.2586  0.2301 -0.0314
26525W        W44049   2.084   9.642  14.403  0.0550 -0.1892  0.1179
26526W        W44050   4.433   6.391  14.547  0.0331 -0.2694  0.0785
26527W        W44051   0.968  17.896  15.662  0.0437 -0.0400 -0.1869
26528W        W44052   4.351  17.691  13.473 -0.0088 -0.2589 -0.0711
26529W        W44053   0.698   5.590  11.577 -0.1474  0.4002  0.0626
26530W        W44054   5.423  12.204  14.235  0.1828 -0.0199  0.1157
26531W        W44055   3.525  10.598   0.624  0.0641 -0.0158 -0.0171
26532W        W44056   0.191   3.539   4.854  0.0134  0.1711  0.1229
26533W        W44057   6.481   6.019   3.875  0.4878  0.0407  0.0416
26534W        W44058  10.783   0.658   5.395 -0.0411 -0.4037  0.2886
26535W        W44059   9.252   4.784   0.427  0.0430 -0.4048  0.0258
26536W        W44060   4.063  10.714   4.144  0.0091 -0.0637 -0.2077
26537W        W44061  16.244   4.865  14.123 -0.2278 -0.1925  0.0464
26538W        W44062   6.149   2.046  11.259 -0.1192  0.4355  0.0381
26539W        W44063  10.016   0.677  13.592  0.2390  0.3087 -0.2980
26540W        W44064   6.361  16.590  11.913  0.1435  0.0335  0.0033
26541W        W44065  10.227   6.481   3.600  0.1315  0.1976 -0.0197
26542W        W44066   8.007   6.398  10.238  0.1911 -0.1568  0.1583
26543W        W44067  10.352   7.656  13.289 -0.1821  0.0548  0.3411
26544W        W44068  14.188   9.577   4.119 -0.0179  0.0005  0.0880
26545W        W44069  15.907   6.849  14.236 -0.0410  0.1496 -0.1879
26546W        W44070   7.930  11.192   9.991  0.1355  0.3410  0.0050
26547W        W44071  16.460  11.788   1.108 -0.1905 -0.0709  0.1938
26548W        W44072   7.959   8.250  15.183 -0.2107  0.0619  0.1151
26549W        W44073  10.629   0.558   4.005 -0.0161 -0.0078 -0.1677
26550W        W44074  14.867  17.600   2.228 -0.1501 -0.1661  0.1286
26551W        W44075   4.691   7.800  11.692 -0.2174  0.2149  0.1929
26552W        W44076  13.659   9.461  12.297  0.2033  0.0098  0.5366
26553W        W44077   2.281  11.561   1.406  0.2222 -0.0860  0.0556
26554W        W44078  15.178   4.718  11.772 -0.0792  0.4024 -0.1998
26555W        W44079   9.428  16.369   3.262  0.1116  0.1580 -0.0241
26556W        W44080  14.175   4.491  15.726  0.5792  0.0326 -0.1388
26557W        W44081   0.312   8.731   5.870 -0.0193 -0.1676  0.1710
26558W        W44082   0.490   2.910   5.962 -0.1338 -0.0957  0.1811
26559W        W44083   0.489   4.702  14.631 -0.1016 -0.2043 -0.1305
26560W        W44084   4.754   7.355  12.140 -0.1283 -0.0734  0.0874
26561W        W44085  11.193   2.665  14.590  0.2183 -0.0077  0.1114
26562W        W44086  10.498  10.142   2.021  0.3516 -0.0115  0.0481
26563W        W44087   3.413  14.643  14.684  0.0927 -0.2584 -0.1665
26564W        W44088  15.769   1.448   0.904 -0.2073  0.0472  0.0218
26565W        W44089   8.466   4.668  14.709  0.0111  0.0913 -0.3692
26566W        W44090   1.423   1.420  10.154  0.0039  0.2386  0.2093
26567W        W44091   7.966  13.592   0.256  0.1634 -0.4731  0.3510
26568W        W44092  17.144   3.009   1.256  0.2370 -0.1612 -0.1044
26569W        W44093  15.944   2.507   0.797 -0.1218  0.2676  0.1759
26570W        W44094   3.755   3.560   2.181  0.3984  0.2286  0.3054
26571W        W44095   5.224   6.045  10.204  0.0646  0.0442  0.0999
26572W        W44096   3.238   0.789  12.361 -0.1984  0.0605  0.0741
26573W        W44097   8.773  14.424   3.018 -0.2800 -0.0171 -0.1496
26574W        W44098   7.656  12.973   4.060 -0.1195 -0.2776  0.0464
26575W        W44099   3.910   8.804   0.224  0.0993 -0.0275 -0.1299
26576W        W44100  13.222   5.800   2.922  0.0493  0.0681  0.0493
26577W        W44101   5.384  12.466   5.236  0.0205  0.1401  0.2847
26578W        W44102   0.681   8.724   4.501 -0.0025 -0.2914 -0.1038
26579W        W44103   1.107  11.622  13.029  0.2845 -0.1382 -0.1038
26580W        W44104   2.648  10.854   0.310 -0.1411 -0.2714  0.1468
26581W        W44105   2.456  17.836  11.282  0.0818 -0.0213 -0.1903
26582W        W44106   2.260  13.478  14.396 -0.0191 -0.2594 -0.0398
26583W        W44107   5.589   2.456  10.046  0.0720  0.1142 -0.0094
26584W        W44108   1.714  12.914   4.524 -0.0357  0.2012 -0.0015
26585W        W44109  17.247   1.458  14.576 -0.5335 -0.0965 -0.0252
26586W        W44110   0.118  17.459  13.978 -0.2320 -0.0165  0.1614
26587W        W44111   4.968   7.057  12.975  0.0375 -0.0732 -0.2510
26588W        W44112   9.075  16.124   5.863 -0.2280 -0.1788  0.0169
26589W        W44113  17.929   9.431   0.985 -0.2298  0.1759  0.1455
26590W        W44114   2.320   9.891   5.122  0.0233  0.1095 -0.1487
26591W        W44115  14.921   0.044  12.686 -0.1419  0.2272  0.4115
26592W        W44116   3.337   9.135  15.617  0.2077 -0.1593  0.0786
26593W        W44117   3.799  11.687   1.556 -0.0797  0.0087 -0.0891
26594W        W44118  16.768  14.354   2.541 -0.1910  0.0834 -0.2987
26595W        W44119   3.369  13.120   2.155 -0.0468 -0.0343  0.0414
26596W        W44120  10.571   0.942   0.493 -0.1094 -0.1511  0.0444
26597W        W44121  17.202  10.208   5.666 -0.0724  0.1167 -0.1481
26598W        W44122   4.177   0.074  11.833 -0.0565  0.1353  0.2141
26599W        W44123  17.647  12.837   5.192 -0.3791  0.2255 -0.1584
26600W        W44124   6.791  12.208   1.654 -0.2407 -0.0987 -0.2190
26601W        W44125   7.428   6.941   3.128 -0.1421  0.2005  0.0180
26602W        W44126  13.872  15.538   4.140  0.1022 -0.0418  0.0082
26603W        W44127   6.180   4.216  14.605  0.1055  0.0923  0.3266
26604W        W44128   5.834   9.110  11.356 -0.1459 -0.1242  0.1208
26605W        W44129   4.286   0.453  10.924 -0.0935  0.2997 -0.0962
26606W        W44130  17.180  14.632   1.072 -0.2925  0.0599 -0.5132
26607W        W44131  14.413   6.619   3.337 -0.2538  0.0296  0.0535
26608W        W44132   1.133  17.765   4.441  0.2668 -0.0008 -0.1745
26609W        W44133  13.685  11.736   1.598  0.1370 -0.1337  0.0939
26610W        W44134   6.382   6.349  14.155  0.2158 -0.0125 -0.1973
26611W        W44135  11.392  15.012  13.106  0.2330 -0.0509  0.0767
26612W        W44136   8.593  15.204   4.052 -0.2471 -0.2330  0.2851
26613W        W44137   1.390  12.865   0.743 -0.0612  0.1917 -0.1128
26614W        W44138  15.656   1.126   0.355 -0.1396  0.0559 -0.1882
26615W        W44139   4.291  13.382   2.414 -0.1284  0.1989 -0.1839
26616W        W44140   2.049   7.630   3.262  0.1509  0.0735  0.1010
26617W        W44141  14.661  11.389   4.338 -0.1071  0.2548  0.0766
26618W        W44142   7.686   8.206   3.821 -0.0444  0.1168 -0.0104
26619W        W44143   3.174  17.746  12.188  0.0235 -0.0695 -0.2212
26620W        W44144   9.593  14.094   2.156  0.2952 -0.0065  0.0251
26621W        W44145  11.803   0.167  13.406 -0.1507  0.0316  0.1151
26622W        W44146  10.194  10.522   0.960  0.0102 -0.0411 -0.4028
26623W        W44147  13.564  16.928  15.870 -0.0307 -0.2790 -0.2746
26624W        W44148   5.233   0.752  13.952  0.1349 -0.2441 -0.2142
26625W        W44149   3.954   4.562   3.984 -0.0820  0.1279 -0.1127
26626W        W44150  16.829  14.050  13.310 -0.2136 -0.2040  0.0844
26627W        W44151  16.630   7.822   2.374  0.1158  0.0200  0.2597
26628W        W44152   3.953   8.655   3.276  0.1477 -0.2498  0.0429
26629W        W44153   4.862   6.329  11.421 -0.1555 -0.0696 -0.0373
26630W        W44154   9.684  15.217  15.774  0.0759 -0.1611 -0.1845
26631W        W44155  10.476  12.722  15.093 -0.1999 -0.0165  0.0792
26632W        W44156   4.998  17.240   0.893 -0.0558  0.2324  0.1481
26633W        W44157   9.666  13.603   2.362  0.1847 -0.1438  0.1828
26634W        W44158  12.962   1.293   2.174 -0.0773 -0.1156 -0.0087
26635W        W44159  11.944   6.295  15.647  0.1199 -0.2324  0.4573
26636W        W44160   2.492   8.627  12.181 -0.1812 -0.0084  0.1505
26637W        W44161   9.145  16.676   3.997  0.1630 -0.1215 -0.0005
26638W        W44162  14.389   4.468  12.170  0.0544 -0.0931  0.0782
26639W        W44163   5.809   0.778   0.703 -0.1527 -0.0779 -0.0402
26640W        W44164  17.445   2.350  12.637 -0.3056 -0.3027  0.0276
26641W        W44165   2.879  18.182  15.323 -0.2285  0.0565  0.1355
26642W        W44166   9.815  11.859   2.719  0.0413  0.3431  0.0351
26643W        W44167  12.292  17.052  12.629 -0.2044  0.2739  0.1702
26644W        W44168   1.883  10.236   2.806  0.2371 -0.2539  0.2896
26645W        W44169   0.057  14.115   2.387 -0.1073 -0.1861  0.2252
26646W        W44170   8.637   5.493  15.944  0.0725 -0.1581 -0.3094
26647W        W44171   9.213   0.659   4.819  0.1613  0.3586  0.0297
26648W        W44172   1.659  17.592   4.729  0.0978 -0.2303 -0.0384
26649W        W44173  17.305  14.714  13.159 -0.0085  0.0005  0.0869
26650W        W44174  10.590   3.406   1.318  0.0852 -0.0595  0.1600
26651W        W44175   4.309   7.296  11.494  0.2546 -0.1714  0.0748
26652W        W44176   6.328  13.224  14.351 -0.0917  0.1720  0.1072
26653W        W44177  17.633   3.835  10.769  0.3193  0.1071  0.1259
26654W        W44178   2.230  11.881   3.596  0.0775  0.1200 -0.0835
26655W        W44179   8.244  10.569   4.862  0.1737 -0.0876 -0.1338
26656W        W44180   7.084   5.511  10.693 -0.2550  0.0481  0.0210
26657W        W44181   3.784   6.224  15.393 -0.1397 -0.0488 -0.0584
26658W        W44182   3.753  10.286   1.441  0.1650  0.3957  0.1025
26659W        W44183   3.905  10.400  11.943  0.1955  0.1098  0.0248
26660W        W44184   7.158   6.733   2.740  0.4757 -0.2174 -0.0006
26661W        W44185  15.180  12.583   0.112 -0.3190  0.0828  0.0529
26662W        W44186  15.164   0.519  11.879 -0.2174  0.2174  0.0968
26663W        W44187  12.778  15.295   1.057  0.0266  0.0273  0.0381
26664W        W44188   3.742   3.009  13.070 -0.3046  0.0908  0.2450
26665W        W44189   1.068   6.445   2.977 -0.1160  0.1007  0.0563
26666W        W44190   9.748  12.441   0.696  0.0418 -0.1372 -0.0585
26667W        W44191   4.420  14.316  10.915  0.2917 -0.1712 -0.2614
26668W        W44192   4.913   5.586  15.030 -0.0327 -0.1063 -0.0148
26669W        W44193  12.214   2.567   3.046 -0.0752 -0.2623 -0.2034
26670W        W44194   3.064   5.559   4.636  0.0499 -0.1144  0.1512
26671W        W44195   7.978   4.698  11.057  0.0843  0.0349  0.0136
26672W        W44196   1.049   7.170  15.987 -0.2755 -0.0523  0.0230
26673W        W44197  15.366   3.391  12.406 -0.0968  0.0607  0.1556
26674W        W44198  17.559   8.237  12.705  0.0458 -0.1153 -0.1651
26675W        W44199  16.027  16.139  12.946  0.1311 -0.0396 -0.0256
26676W        W44200   6.330  18.087  13.836  0.4550  0.1043  0.0103
26677W        W44201  14.432  17.995   1.490  0.0037  0.3071 -0.0675
26678W        W44202  15.199   6.536  11.842  0.0328 -0.0535 -0.0569
26679W        W44203  17.735  10.302  15.909  0.1622  0.2103 -0.3718
26680W        W44204  17.951  15.561   0.498  0.0145  0.1665  0.1373
26681W        W44205  14.685  16.797  15.952  0.1686  0.1162  0.2174
26682W        W44206   8.822   1.381   3.895 -0.0235 -0.1830  0.1398
26683W        W44207  14.886   3.129  12.048 -0.3235  0.0264  0.2646
26684W        W44208   9.994   5.128  13.283  0.1752  0.0907  0.0611
26685W        W44209   4.730  11.577   4.781 -0.1473  0.3441 -0.3665
26686W        W44210  15.447  13.653   0.056  0.1720  0.0200 -0.1502
26687W        W44211   6.816  11.784  15.605  0.2398 -0.0654 -0.2882
26688W        W44212   6.957  14.109   2.488 -0.1892 -0.0655  0.0558
26689W        W44213   9.422  17.061  14.155  0.0061  0.0316 -0.2403
26690W        W44214  15.598   8.787  12.258 -0.3554 -0.0391 -0.2625
26691W        W44215   0.737  12.833   2.787 -0.3116  0.0052  0.2755
26692W        W44216  17.935  10.144   0.280 -0.1282 -0.0734 -0.1930
26693W        W44217  13.930   6.130   2.040 -0.0026  0.1024  0.2614
26694W        W44218  14.237   3.957   2.960 -0.2135 -0.1132  0.2263
26695W        W44219  15.249   3.527   2.945  0.1183 -0.1853 -0.1451
26696W        W44220  16.577   0.691  12.170  0.1180  0.0184 -0.0038
26697W        W44221   9.477   8.517  13.047 -0.0124 -0.2895 -0.1272
26698W        W44222   5.405  11.837  14.562 -0.1753 -0.0739  0.1136
26699W        W44223   0.046  16.620   3.903 -0.1022 -0.1264  0.2957
26700W        W44224  11.986  14.007  12.487 -0.1113 -0.1244 -0.0421
26701W        W44225   7.377   5.048   3.134 -0.0048  0.3082  0.1548
26702W        W44226  11.007   6.609  13.602  0.0120  0.1503  0.0976
26703W        W44227  10.696  17.248   2.554  0.1149 -0.1551  0.0944
26704W        W44228  17.717  12.033   4.530 -0.1264  0.0070  0.0138
26705W        W44229  17.595  10.081  12.900  0.1272 -0.0779  0.0987
26706W        W44230   4.480   3.231  15.935  0.0493 -0.2927  0.1134
26707W        W44231  16.543  16.242  16.067  0.0011  0.1387  0.3099
26708W        W44232   1.745  18.001  14.084 -0.0750 -0.0367  0.0943
26709W        W44233  12.286  15.046   2.982 -0.0126  0.0791 -0.6162
26710W        W44234   8.778  15.619   3.671  0.0743 -0.0289 -0.0435
26711W        W44235  10.591  14.243   2.131 -0.2910  0.0589  0.1846
26712W        W44236   1.324  16.824  13.954 -0.0049  0.1240 -0.2233
26713W        W44237   6.306   0.164   0.032  0.4739 -0.1387 -0.1944
26714W        W44238   3.004  12.343   1.566 -0.1791 -0.2013  0.4155
26715W        W44239  14.906   1.046  13.580  0.3107  0.1853 -0.0908
26716W        W44240   0.953   3.668   3.352 -0.0023  0.0541  0.1809
26717W        W44241   0.230   8.374  16.062 -0.2219 -0.1102 -0.0717
26718W        W44242  11.364  17.419   0.102 -0.2540  0.1785 -0.0589
26719W        W44243  10.326   5.372  10.765 -0.1273 -0.1533 -0.1431
26720W        W44244   5.547  17.306   2.313  0.2881  0.3393  0.3427
26721W        W44245   4.582  15.610  13.498  0.2128  0.1415 -0.0523
26722W        W44246  10.322  15.379   0.487  0.0762  0.1799 -0.2318
26723W        W44247   0.530   7.242  12.956  0.0812  0.2962  0.1592
26724W        W44248  10.205   5.618   4.507  0.1944 -0.2252 -0.2209
26725W        W44249  14.374   0.217  15.857 -0.1277  0.0564  0.1004
26726W        W44250   9.047   6.138   3.872  0.0021  0.0337  0.0344
26727W        W44251   5.308  14.484  13.584  0.1027 -0.2182  0.0259
26728W        W44252   8.759  12.365   0.800 -0.1031 -0.0397  0.0466
26729W        W44253  16.765  13.108  14.445 -0.1474 -0.0776 -0.1192
26730W        W44254  10.218   0.927   3.305 -0.1071  0.0727  0.2821
26731W        W44255  14.671   2.338  15.677  0.0869 -0.0113  0.0157
26732W        W44256  13.535   4.435   1.305 -0.0891 -0.2624 -0.0248
26733W        W44257   4.113   5.392   4.226 -0.3448 -0.0873  0.1970
26734W        W44258   9.048   2.314  12.737  0.0018 -0.1043  0.0017
26735W        W44259   7.528  12.895  11.510 -0.1095 -0.1396  0.1644
26736W        W44260   2.361  14.086  15.183  0.1449 -0.3815  0.0565
26737W        W44261   5.799  17.918   4.040  0.0730  0.0846  0.3197
26738W        W44262   8.888   7.846  13.980  0.1734 -0.0175 -0.3310
26739W        W44263   2.704  12.495   2.538  0.2001 -0.2784  0.0813
26740W        W44264  14.401   6.937   0.506  0.0810 -0.0851 -0.1675
26741W        W44265   2.375   6.458  15.427 -0.1827  0.1443 -0.2551
26742W        W44266   9.522  12.767  14.674 -0.0331  0.0668  0.0549
26743W        W44267   4.592   5.426   4.684 -0.0272  0.1763 -0.0932
26744W        W44268   6.506  16.359   2.832 -0.1611 -0.1947 -0.1136
26745W        W44269   5.451  12.807   1.743  0.0776  0.2252 -0.0070
26746W        W44270   8.504  13.311  10.911 -0.0590  0.2034  0.0550
26747W        W44271  17.319  16.385  15.663  0.2746  0.1011  0.5570
26748W        W44272   9.561  10.356  13.609  0.1905 -0.1409 -0.1580
26749W        W44273  11.961  10.984  13.690  0.0895  0.1339  0.0039
26750W        W44274   0.180   0.388  15.399 -0.0417 -0.1486 -0.1423
26751W        W44275  12.442   5.750   3.202 -0.2342  0.0092 -0.0567
26752W        W44276  10.277   8.025   3.021 -0.3262  0.1450  0.1204
26753W        W44277  10.799  17.790   2.854  0.0864  0.2844 -0.0614
26754W        W44278   7.016   0.635  13.967  0.3127  0.0149  0.1294
26755W        W44279  17.465   2.874   0.852  0.2047 -0.1609 -0.2509
26756W        W44280  14.015   3.277   1.797  0.1163 -0.0921  0.1840
26757W        W44281   2.789   4.180  14.319 -0.2054  0.0656 -0.0093
26758W        W44282   2.485  11.961   4.424 -0.0335 -0.0635  0.2270
26759W        W44283   4.777  17.353   1.808 -0.0758  0.0571 -0.3231
26760W        W44284   7.076   9.798  12.262  0.2722  0.1690  0.0599
26761W        W44285  15.658   2.083   3.616  0.1462 -0.1979  0.1322
26762W        W44286   1.609   2.086   4.344 -0.0176  0.1407  0.0791
26763W        W44287   2.420   8.904   3.518 -0.0044 -0.0959  0.0920
26764W        W44288   5.842   1.307   2.815  0.3954  0.0363  0.3264
26765W        W44289   5.329   2.371  11.982  0.0848  0.1693  0.4710
26766W        W44290   9.621   8.790   4.642 -0.1041  0.1095 -0.0682
26767W        W44291   1.528   0.334  14.374  0.0509  0.0795 -0.2193
26768W        W44292   1.845   8.818  12.370  0.0324  0.1150  0.1975
26769W        W44293  14.177   0.596  13.782 -0.1029  0.3942 -0.3198
26770W        W44294   2.410  15.627   0.281 -0.1928 -0.1505  0.0023
26771W        W44295  14.309  13.395   0.756  0.0550 -0.1209  0.1665
26772W        W44296   4.877  16.010  13.355  0.1260  0.2279  0.1350
26773W        W44297   8.396  11.295  13.331 -0.2078 -0.0483 -0.0342
26774W        W44298   7.884  12.700  10.694  0.0233  0.1623  0.2480
26775W        W44299   2.650   7.176   4.770  0.0131  0.0358  0.2901
26776W        W44300   3.021   9.708   3.316 -0.0518 -0.1581  0.0718
26777W        W44301   4.603   5.539   1.354  0.1496 -0.1056  0.1518
26778W        W44302  13.212   7.497  13.605 -0.0685 -0.2349  0.0376
26779W        W44303  14.231  11.584   4.084 -0.2853  0.1055 -0.0160
26780W        W44304   2.747   8.092   4.913 -0.0293 -0.1056 -0.1219
26781W        W44305  14.551   1.342  12.767  0.3184 -0.0373  0.0569
26782W        W44306  15.590   2.733   2.366  0.2519  0.0129  0.1010
26783W        W44307  14.404  16.245   1.927 -0.1063 -0.0822  0.1164
26784W        W44308   3.189  17.482  12.928  0.2207 -0.0011 -0.2503
26785W        W44309   6.643   3.100  15.071  0.2476 -0.0641  0.1506
26786W        W44310   4.289   9.983   5.592 -0.0506  0.1427 -0.0276
26787W        W44311   7.262   7.632   4.297 -0.1709  0.2772  0.3953
26788W        W44312  11.754  10.372   0.006  0.2264 -0.1521 -0.1097
26789W        W44313   6.550   6.570  10.916  0.0910 -0.1452 -0.1147
26790W        W44314   6.083   7.839  13.318 -0.0273  0.0945 -0.0275
26791W        W44315   3.439  18.187  15.311  0.0176 -0.2930  0.2308
26792W        W44316  15.864  11.621   4.403  0.4697  0.4431  0.2515
26793W        W44317   0.972  16.500   2.083  0.2239 -0.2302 -0.0358
26794W        W44318  15.394   9.677   0.363  0.1082  0.0254 -0.2412
26795W        W44319   3.703  10.399  15.680  0.0430  0.1780  0.1166
26796W        W44320   8.593   4.113   4.737 -0.1376  0.0549 -0.0655
26797W        W44321   2.331   1.594   4.647 -0.2406  0.3191 -0.0813
26798W        W44322  16.678  10.356   3.023  0.0100 -0.1003 -0.1745
26799W        W44323  12.960   2.480  13.095  0.0522 -0.0797  0.0616
26800W        W44324  11.543  11.060   4.565  0.1260 -0.3550  0.2141
26801W        W44325   2.027   4.523   4.067 -0.0491 -0.3796 -0.4308
26802W        W44326   9.685  16.348  12.172  0.1555 -0.1714 -0.1862
26803W        W44327   9.324  14.341  13.230 -0.1691 -0.3631  0.0759
26804W        W44328   1.846  10.625  12.530 -0.0477 -0.0175  0.1541
26805W        W44329   5.270  16.145   4.937  0.0351 -0.0079  0.2441
26806W        W44330   6.776  17.353  12.584  0.2236 -0.0813 -0.0491
26807W        W44331   1.573  10.910  13.895  0.2333 -0.3317 -0.1845
26808W        W44332  17.577   9.710   3.974  0.3623 -0.2133  0.0285
26809W        W44333  14.289   3.504   2.148  0.1454  0.1580  0.1162
26810W        W44334  11.353   0.799   2.331 -0.1657  0.1092  0.0244
26811W        W44335   2.730  11.418   1.350  0.0753 -0.1738  0.1463
26812W        W44336  10.846   8.227  11.641 -0.0736 -0.0135  0.0211
26813W        W44337  15.759  16.323  14.228 -0.0489  0.0773 -0.0821
26814W        W44338  16.735   6.284   1.182  0.0946  0.1676 -0.2909
26815W        W44339  16.036   8.868   0.418  0.0800  0.3884  0.0664
26816W        W44340   6.011   5.617  11.909  0.0404  0.1324  0.0281
26817W        W44341   2.237   4.852  14.358 -0.1642  0.0392  0.0778
26818W        W44342   0.188   3.215  13.332 -0.1683 -0.0683 -0.0064
26819W        W44343   2.885   2.858  13.497 -0.0844 -0.0154  0.2219
26820W        W44344   6.952   3.693   2.868 -0.1055 -0.2412  0.2078
26821W        W44345  17.664   1.408  11.492  0.0045  0.0673  0.0583
26822W        W44346   0.253   5.638   3.592 -0.2204 -0.5609  0.0846
26823W        W44347  15.719  14.357  15.628  0.1588 -0.0157 -0.1117
26824W        W44348   0.533  17.677  14.695  0.0288  0.1975  0.1722
26825W        W44349  15.308  11.963   2.685  0.1672 -0.1689 -0.2214
26826W        W44350   6.053   6.994  13.149 -0.0092  0.1626  0.2816
26827W        W44351   0.002  10.153  11.635 -0.1397  0.1724 -0.0369
26828W        W44352  17.580   8.967   3.637  0.1263  0.1498 -0.2157
26829W        W44353   0.316  16.261  15.777 -0.2958  0.2156 -0.1943
26830W        W44354   6.035  11.351   0.240  0.0185 -0.0661  0.2893
26831W        W44355  15.845   9.895  11.750  0.2018  0.3467  0.1753
26832W        W44356   4.695  11.903   1.356  0.0172 -0.0289  0.1486
26833W        W44357  13.656   2.342  15.033  0.1085 -0.2821 -0.2250
26834W        W44358   4.938   1.803   4.032  0.0844 -0.3688 -0.0692
26835W        W44359  10.843   3.358  12.402  0.2043  0.0500 -0.4696
26836W        W44360   0.953  14.621  15.584  0.4232 -0.2324 -0.2633
26837W        W44361  16.430  12.902  15.542  0.1589 -0.0038 -0.0982
26838W        W44362   6.688  16.208   2.343 -0.1088  0.0544  0.1529
26839W        W44363  10.305  17.014   3.296  0.0043 -0.0112  0.0638
26840W        W44364   9.176   3.613  15.181  0.1790 -0.1607  0.0461
26841W        W44365  15.893   9.007   5.563  0.0439  0.0108  0.1148
26842W        W44366   4.170   7.265   0.001 -0.0492  0.2255 -0.0556
26843W        W44367   8.907   5.218   4.432 -0.1663  0.0520  0.0349
26844W        W44368  17.870  17.978  15.053 -0.0857 -0.0966  0.2110
26845W        W44369   0.556  15.120   4.878 -0.1867  0.0396  0.0682
26846W        W44370   0.129   8.155   0.408  0.1528 -0.2160  0.0924
26847W        W44371  12.306  11.118  12.741  0.1003 -0.1839  0.1851
26848W        W44372   0.620   7.591   5.472  0.3298  0.1159  0.1312
26849W        W44373  10.019   7.650  14.259 -0.1080 -0.0509 -0.0577
26850W        W44374   2.178  15.399  12.318  0.0210  0.2867 -0.1065
26851W        W44375   0.524   0.494   0.805 -0.1112  0.3514  0.0015
26852W        W44376  11.843   9.243   1.387 -0.3378  0.0040 -0.2174
26853W        W44377  12.013   5.823  11.687 -0.0912  0.2339 -0.0102
26854W        W44378   8.360   2.342   2.848 -0.0814  0.0274 -0.3241
26855W        W44379  14.067   6.649  13.031  0.0737 -0.3468 -0.0194
26856W        W44380  17.483  15.733   0.233  0.1532 -0.1470 -0.3015
26857W        W44381   1.058   1.354  13.570  0.3753 -0.1077  0.1458
26858W        W44382   8.703   9.695  11.413 -0.1187 -0.0825  0.1240
26859W        W44383   7.805   6.361  11.199  0.2039 -0.2966  0.0064
26860W        W44384  17.268  11.777  12.955 -0.3084  0.1551 -0.1540
26861W        W44385   3.135   2.360  15.206  0.1970 -0.0420  0.1286
26862W        W44386   2.368  12.257  15.459  0.0550  0.1876  0.1552
26863W        W44387   7.334  14.316  15.988 -0.2403  0.2497 -0.2875
26864W        W44388   9.181  15.088  13.935 -0.0905 -0.0083 -0.4456
26865W        W44389   6.302   9.929   2.115  0.0926 -0.0404  0.1503
26866W        W44390  12.292   5.647   1.389  0.0883 -0.0409 -0.0855
26867W        W44391   5.182   8.699   0.783 -0.0792 -0.0065 -0.2158
26868W        W44392   3.595  14.720  12.915 -0.2301  0.1071  0.0946
26869W        W44393   1.162  13.459   3.902 -0.0493  0.0227 -0.2206
26870W        W44394  13.598   5.896  14.990  0.0741 -0.0629  0.0987
26871W        W44395  12.204  17.928  14.792 -0.2385  0.1482 -0.1304
26872W        W44396   0.781   2.708   0.948  0.2145  0.1020  0.1060
26873W        W44397   2.949  15.780   0.378  0.2957 -0.2788 -0.1568
26874W        W44398  14.271   5.435  13.629 -0.1899  0.1829  0.3382
26875W        W44399   3.423   5.130  16.094  0.1023 -0.0901  0.0256
26876W        W44400  12.318  17.676   0.876 -0.1690  0.0269 -0.2599
26877W        W44401  16.497  11.650   4.933 -0.0945  0.0883  0.2001
26878W        W44402  14.257  17.781  12.151  0.1661  0.1352  0.3626
26879W        W44403  15.113   4.250   2.965 -0.2917 -0.0588 -0.1282
26880W        W44404  16.136  15.141  15.186 -0.1968 -0.0379 -0.2421
26881W        W44405   8.116   8.179   0.464 -0.0886  0.1452  0.1000
26882W        W44406  15.282   4.896   3.516 -0.2424  0.1246  0.2344
26883W        W44407   6.050  10.784  12.012 -0.1577 -0.1602  0.2838
26884W        W44408   2.909   5.114  15.727  0.1776  0.1393  0.1100
26885W        W44409  16.725  12.562   5.019 -0.0031 -0.0711  0.1786
26886W        W44410   1.558  10.278   4.020 -0.1037 -0.0966  0.4206
26887W        W44411  14.222   6.245   2.405 -0.1917  0.2005 -0.0047
26888W        W44412  11.293  13.722  15.043 -0.4623 -0.1523  0.0249
26889W        W44413   8.243  11.971  11.312 -0.1078 -0.2363 -0.1722
26890W        W44414  10.508  13.981  15.754 -0.3257  0.0533 -0.2553
26891W        W44415   5.939   2.288   0.497 -0.0526  0.0189 -0.0289
26892W        W44416  15.310  17.544   3.500  0.0363 -0.0241 -0.0348
26893W        W44417   6.645  12.350  15.607  0.2350 -0.1052  0.0905
26894W        W44418   8.255   6.689   1.798  0.0360 -0.1148 -0.0001
26895W        W44419  17.170   5.207   4.363  0.0879 -0.2981  0.0375
26896W        W44420   7.358   9.124   0.151  0.1089  0.2825 -0.0021
26897W        W44421   7.034   8.491   5.597  0.0857 -0.2760 -0.0071
26898W        W44422   8.449   1.466   0.098 -0.1266  0.1066 -0.2150
26899W        W44423   5.520   1.613  13.510 -0.2365 -0.3808 -0.0991
26900W        W44424   3.531   3.164   0.471 -0.0507 -0.2226  0.2038
26901W        W44425   0.750  16.947   1.112  0.3081 -0.2949 -0.2994
26902W        W44426  11.893   2.280  11.153 -0.2261 -0.0956  0.1759
26903W        W44427  16.991  10.225  15.417  0.2303  0.3305  0.0743
26904W        W44428   5.673  10.433  13.744 -0.0833  0.1674 -0.4725
26905W        W44429   6.887  13.409   0.090  0.0180  0.4567  0.0373
26906W        W44430   7.411   7.722  14.452 -0.0091  0.0633 -0.3702
26907W        W44431   9.374  15.835   2.192 -0.1592 -0.1665 -0.0808
26908W        W44432  17.545   0.897   4.550 -0.1833  0.2297 -0.1500
26909W        W44433   9.765   9.273   5.026 -0.1928 -0.1217  0.2398
26910W        W44434   8.662   5.582  13.605 -0.1213  0.2134 -0.0244
26911W        W44435  10.777   0.327   3.624 -0.2979 -0.2808 -0.1828
26912W        W44436   9.735   8.195   1.060 -0.2393  0.0159  0.0400
26913W        W44437   4.120  10.778  15.938 -0.0540 -0.0403 -0.2403
26914W        W44438  11.016   8.112  10.645 -0.1734 -0.3669  0.4311
26915W        W44439   3.531  10.694   4.219  0.1710  0.2734 -0.0459
26916W        W44440  17.934  15.361  13.969  0.3177  0.1965 -0.3233
26917W        W44441   0.334  14.986   2.107 -0.2899 -0.1777  0.2904
26918W        W44442   1.848   0.230  11.761 -0.2780  0.0787  0.2017
26919W        W44443   7.924   4.126  14.408 -0.1331  0.0973  0.2435
26920W        W44444   2.789   6.337  15.161  0.1582  0.0335  0.0519
26921W        W44445  16.389   8.942  14.237  0.4642 -0.2020  0.1486
26922W        W44446   9.797   5.410   1.227  0.1697 -0.1537  0.2275
26923W        W44447   0.253   6.962   4.131  0.0569  0.2430 -0.1625
26924W        W44448  15.932   3.995   2.612  0.3724 -0.2237 -0.2057
26925W        W44449   7.403   7.675  11.858 -0.0775  0.3291 -0.0352
26926W        W44450   1.555  16.860  11.033 -0.0488 -0.0525  0.0135
26927W        W44451   1.260   4.425   3.354 -0.0825 -0.0956  0.1989
26928W        W44452   8.450   3.694  13.723  0.2692  0.0147 -0.1049
26929W        W44453   8.814  13.243  13.452  0.0931 -0.0262 -0.0375
26930W        W44454   9.220  11.874  13.764 -0.0162  0.0182  0.0009
26931W        W44455   7.966   7.619  13.626  0.1899 -0.2851  0.0065
26932W        W44456  14.668  17.166  12.854 -0.1520 -0.0164 -0.0489
26933W        W44457  14.361   3.099   2.525  0.1503  0.0087  0.0207
26934W        W44458   4.094  12.213  15.873  0.1126  0.1124  0.0227
26935W        W44459  14.234   7.185   2.508  0.1901  0.0350 -0.1072
26936W        W44460   8.932  13.013   2.345  0.2285  0.1729  0.4003
26937W        W44461   2.730  10.548  11.057 -0.2032  0.3232 -0.0512
26938W        W44462   4.191   8.925   0.703  0.2048  0.1412 -0.0575
26939W        W44463  10.894   6.882  15.417  0.2441 -0.1724  0.2041
26940W        W44464  16.120   9.593  12.010  0.0900  0.0936 -0.3549
26941W        W44465   7.440   2.636  15.422  0.1686  0.2111 -0.1372
26942W        W44466   5.934   8.034  11.411 -0.0588  0.1664  0.1016
26943W        W44467   8.845  12.867   0.941 -0.3860  0.1301  0.0348
26944W        W44468   9.214  11.097  12.188 -0.2071  0.0523  0.3031
26945W        W44469  17.891   9.243   3.121 -0.0068 -0.1914  0.0836
26946W        W44470   7.249  13.860   5.342 -0.2030  0.1490  0.1253
26947W        W44471   9.899  17.046   4.574  0.3608 -0.1256  0.0193
26948W        W44472  12.059  15.027  11.839  0.0281 -0.2235 -0.0449
26949W        W44473  13.631  10.873   3.617 -0.0208 -0.1454 -0.0533
26950W        W44474  11.458  14.153  15.265 -0.0179 -0.1165 -0.2345
26951W        W44475  11.330  12.684  15.842  0.0507 -0.0599 -0.1832
26952W        W44476   4.851  11.400  13.293  0.0698  0.3571 -0.1096
26953W        W44477   4.787   2.553   0.260 -0.4487  0.0219  0.0828
26954W        W44478   3.767  10.896   2.156  0.1850  0.4108 -0.2381
26955W        W44479   0.603  16.842   3.670 -0.1204 -0.2056  0.1351
26956W        W44480  12.181  12.308   0.169  0.0139 -0.0236 -0.0599
26957W        W44481  15.723   2.793  14.602  0.1931  0.2191  0.1395
26958W        W44482   0.322   3.971   2.844 -0.0340 -0.3251  0.2768
26959W        W44483  12.643   3.443   2.417 -0.0858 -0.1670  0.1252
26960W        W44484  15.023  15.634   2.176 -0.0693  0.2680 -0.0855
26961W        W44485  13.221  16.530   2.948  0.2011  0.0753  0.3345
26962W        W44486   5.196   9.011  10.727  0.0319  0.3255  0.0919
26963W        W44487   0.871  16.285  14.801 -0.0816  0.1974  0.0486
26964W        W44488  11.823  15.956   4.342  0.0812 -0.0185  0.3517
26965W        W44489  13.234   5.998   1.572  0.0744  0.0840 -0.0231
26966W        W44490   2.231   7.725  15.800 -0.1922  0.3373 -0.3262
26967W        W44491  16.135  16.717   0.945 -0.2850  0.2888  0.0970
26968W        W44492  13.283   2.682   3.590 -0.1647 -0.1478 -0.1432
26969W        W44493  16.747   4.459   1.693  0.0483  0.1119  0.2496
26970W        W44494   2.404   5.368  12.600 -0.2345 -0.0741 -0.1244
26971W        W44495  13.765  11.064  11.732  0.2949  0.1212 -0.2101
26972W        W44496  17.016   6.514   4.489  0.2036  0.0345 -0.0975
26973W        W44497  10.646  13.785  11.837 -0.4855 -0.0374  0.4814
26974W        W44498   4.011  14.446  13.139 -0.0024 -0.0753 -0.3244
26975W        W44499  15.946   8.710  13.928  0.1763  0.3457  0.3261
26976W        W44500  10.365   7.767  15.041 -0.0968  0.1849 -0.3475
26977W        W44501  17.486   6.037  13.657  0.0760 -0.0657  0.1862
26978W        W44502  14.922   4.683   3.813 -0.1018  0.0871  0.2385
26979W        W44503  12.732   9.893  15.005  0.0441 -0.0979 -0.1381
26980W        W44504   8.118   9.111  12.868 -0.0095  0.2474 -0.3432
26981W        W44505   4.502   5.871   2.693 -0.1154  0.2057  0.0599
26982W        W44506  15.208   8.240   1.930 -0.1478  0.0446 -0.0740
26983W        W44507  14.748   1.904  15.874 -0.2240  0.0541 -0.1061
26984W        W44508  16.918   4.958   1.914  0.2256  0.0764  0.1709
26985W        W44509  14.238   7.360   0.288 -0.1391  0.1660  0.1112
26986W        W44510   4.371   0.355   1.749  0.0322  0.0915 -0.0689
26987W        W44511   4.858  11.096  14.746 -0.0696  0.0353  0.1036
26988W        W44512   4.889  13.944  12.685 -0.3165  0.2343  0.0530
26989W        W44513  11.804   0.083  12.327  0.2319  0.1149  0.2864
26990W        W44514   3.030   4.264  13.682 -0.0804  0.3183  0.1119
26991W        W44515   7.927   1.516  12.206 -0.1402  0.0512  0.3190
26992W        W44516  14.580   9.851   3.596  0.0647 -0.1207  0.5124
26993W        W44517   6.508   3.250  11.489  0.2195 -0.1445  0.0157
26994W        W44518  11.974   3.604   1.746  0.1361 -0.1240 -0.0819
26995W        W44519   8.484  11.867  12.677  0.1880 -0.2533 -0.1200
26996W        W44520   3.151  13.087   0.605  0.1221 -0.2485 -0.4355
26997W        W44521   2.991  12.041   4.412  0.0614 -0.0602  0.0418
26998W        W44522  13.544  11.199  15.460 -0.3849 -0.0076 -0.0556
26999W        W44523   5.807  11.634  10.898  0.0359 -0.0119  0.1772
27000W        W44524   0.376  15.518   2.899  0.0151  0.0060 -0.0803
27001W        W44525   6.600  11.328  11.460 -0.2753 -0.1112  0.0745
27002W        W44526   8.686  14.487  14.143 -0.1687  0.0982 -0.1302
27003W        W44527   7.078   5.538   0.552 -0.2591 -0.3003 -0.2948
27004W        W44528  14.787   7.044   1.592 -0.0791  0.0899  0.1773
27005W        W44529   8.226   6.010  15.169 -0.0944  0.1186  0.0873
27006W        W44530   6.285  12.836   1.379 -0.4203 -0.1190  0.6015
27007W        W44531   3.610  13.525  12.037  0.0729 -0.1433 -0.1995
27008W        W44532   4.544   0.296  13.993 -0.0091  0.3469 -0.2618
27009W        W44533   6.077  12.738  10.904  0.1794  0.0947 -0.1879
27010W        W44534  10.711   8.665   1.119 -0.0624  0.4857  0.2802
27011W        W44535   9.011   9.042  14.250  0.3701 -0.2426 -0.1604
27012W        W44536   9.614  10.060  14.900 -0.0898 -0.1209 -0.2645
27013W        W44537  12.441  10.822   4.243  0.1301  0.0239 -0.1601
27014W        W44538   9.861   6.119   4.542  0.1350 -0.4341 -0.1675
27015W        W44539  17.136  13.129  11.385  0.1067 -0.0132  0.3459
27016W        W44540   8.813   7.480   0.015 -0.1280 -0.3105 -0.1598
27017W        W44541  15.757   2.899  14.069  0.0172 -0.2328  0.1176
27018W        W44542  10.381   8.170   0.656  0.2544 -0.0952  0.1176
27019W        W44543   0.070   4.431   0.815  0.0597  0.2379 -0.1469
27020W        W44544   8.463   6.381  10.144 -0.0685  0.1789  0.3761
27021W        W44545  13.454   5.698   4.515  0.0755 -0.0376  0.1644
27022W        W44546  11.843  17.489  15.815  0.0692  0.0560  0.2078
27023W        W44547  12.077  13.251  14.413 -0.1223 -0.1198 -0.0117
27024W        W44548   8.601  14.410   1.656 -0.1386  0.0272  0.0370
27025W        W44549  13.851  14.023   3.605 -0.2282  0.1171 -0.0934
27026W        W44550   8.100  15.127  16.000 -0.0079  0.2144  0.2827
27027W        W44551  15.965  11.751   1.410 -0.2418  0.1782 -0.0296
27028W        W44552   0.962   9.565   2.764 -0.4471 -0.1153 -0.0438
27029W        W44553  16.121  10.768  12.759  0.0775  0.1488  0.2029
27030W        W44554  14.731  14.801   1.451 -0.1611 -0.2037 -0.1549
27031W        W44555  10.908   9.068   1.252 -0.0866  0.0555  0.1965
27032W        W44556   6.420  10.563  10.781  0.1982 -0.1739  0.1822
27033W        W44557  15.734   1.663   0.393 -0.0755 -0.0437 -0.0970
27034W        W44558   5.400  17.431  12.070 -0.3204 -0.1165  0.1982
27035W        W44559   6.490   4.921   4.252 -0.0108  0.1037 -0.1667
27036W        W44560  12.644  12.779  12.513 -0.2057  0.4089  0.0074
27037W        W44561   5.336   0.027   4.671  0.0809  0.1275 -0.4312
27038W        W44562   8.914  15.138  15.780 -0.3312 -0.0912 -0.2297
27039W        W44563   8.562   6.078   3.786  0.1131 -0.1898  0.1799
27040W        W44564  16.254   7.063  15.286  0.2382  0.3168 -0.2104
27041W        W44565  12.244  17.388  11.361 -0.1456 -0.2539 -0.0983
27042W        W44566   3.967   8.654  10.125  0.1216  0.1330 -0.1083
27043W        W44567   8.289   9.663   0.581 -0.1919 -0.2249 -0.1993
27044W        W44568  10.327  13.487  15.420  0.5690 -0.2252  0.0139
27045W        W44569  12.191   9.908   0.694 -0.2173 -0.0168 -0.1122
27046W        W44570   0.976   5.940   4.350  0.1399 -0.0076 -0.3576
27047W        W44571  14.012   9.169   4.551 -0.0041 -0.1869 -0.1215
27048W        W44572   0.162   5.204  10.961 -0.3919 -0.2231  0.3029
27049W        W44573  13.011   9.981  12.142 -0.0799 -0.1631  0.2718
27050W        W44574   7.222  16.802  11.864  0.0156 -0.3766  0.0439
27051W        W44575  14.004   6.935   2.159  0.0079 -0.2914  0.1431
27052W        W44576  10.320  16.647  15.979  0.0994 -0.0551  0.1163
27053W        W44577   3.795   8.824   2.545 -0.0776  0.1139 -0.4473
27054W        W44578  14.128  13.366  12.135  0.3723  0.1477 -0.0086
27055W        W44579  15.927   1.457  13.205 -0.1625 -0.1760  0.2475
27056W        W44580  10.356   2.785  11.217  0.1219  0.1481 -0.1816
27057W        W44581   8.763  14.318   2.188 -0.0564 -0.3691 -0.1132
27058W        W44582  10.419   1.199  11.795  0.2248 -0.0944 -0.1731
27059W        W44583  11.957   6.955  15.158  0.0513  0.0272 -0.0622
27060W        W44584  14.018   7.658  16.027  0.1387 -0.3062  0.3421
27061W        W44585   1.412   4.647   2.448  0.2901  0.2063 -0.0969
27062W        W44586  12.443   2.924  13.884 -0.0601  0.0969 -0.1141
27063W        W44587   7.098   1.527   0.354 -0.0813  0.0134  0.2260
27064W        W44588   3.227   9.372   2.471  0.0882  0.1390  0.4207
27065W        W44589  13.340  11.483  13.493  0.0550 -0.2048 -0.0589
27066W        W44590   8.942  17.767  13.420  0.0250  0.1703  0.4076
27067W        W44591   8.807   6.198  15.163  0.0157 -0.1081  0.3825
27068W        W44592  15.919   5.362  14.727 -0.0564  0.1287 -0.0761
27069W        W44593   4.371  10.202   0.309 -0.2011 -0.4884 -0.1336
27070W        W44594  14.277   8.878  14.649 -0.1705  0.1605  0.3756
27071W        W44595   3.917  10.273   3.260 -0.2498  0.0819 -0.2942
27072W        W44596   0.848   5.470   3.192 -0.0446 -0.0554 -0.1929
27073W        W44597   0.129  15.455   2.311  0.0486  0.2968 -0.2154
27074W        W44598   1.997   9.777  15.279  0.2377 -0.2098 -0.0051
27075W        W44599   9.454   0.582   1.669  0.1654  0.3015  0.1480
27076W        W44600  11.224   7.186   0.773  0.0752  0.1921 -0.0014
27077W        W44601   3.791   7.276  13.674 -0.1806 -0.1516 -0.2650
27078W        W44602  13.157  16.706   3.401 -0.0634 -0.0631 -0.2954
27079W        W44603  15.368   7.981  12.962 -0.0700  0.3062  0.0598
27080W        W44604   9.876  10.277   2.712  0.1776 -0.0136  0.0183
27081W        W44605   9.898  17.109  11.784  0.2840 -0.1321 -0.0798
27082W        W44606   8.079   0.747  12.634  0.1695 -0.0676 -0.3061
27083W        W44607   6.492   1.235  15.158 -0.0172 -0.2097  0.0450
27084W        W44608   5.376  15.748  15.461  0.2725 -0.1319  0.1185
27085W        W44609   3.887   2.281  14.746 -0.2308 -0.1042 -0.2464
27086W        W44610  10.232  12.203  13.033 -0.1585 -0.1306 -0.0237
27087W        W44611   6.342   7.218  11.409 -0.1298  0.1548 -0.0270
27088W        W44612   8.640   6.962  15.469  0.1106 -0.1042  0.0641
27089W        W44613  14.918   2.417   1.436 -0.2689 -0.0813  0.1836
27090W        W44614   3.731  15.140   0.726 -0.0785  0.1756 -0.0471
27091W        W44615   4.513   4.592   1.332 -0.5264 -0.1839  0.0439
27092W        W44616  14.963  11.980   1.256 -0.0071  0.2670 -0.0420
27093W        W44617  10.194  12.204  15.033 -0.1773  0.3142  0.1823
27094W        W44618   6.635   4.641  14.970 -0.1088 -0.0531  0.3875
27095W        W44619   6.502  11.500   2.603  0.0091  0.0611  0.0936
27096W        W44620   1.824  18.073  12.874  0.2111  0.1706  0.0193
27097W        W44621  10.659   0.526   4.905  0.1447  0.1292  0.0306
27098W        W44622  17.069   8.603  11.046 -0.1401  0.2288  0.1819
27099W        W44623   6.946   0.254   4.541  0.2485 -0.3006  0.0555
27100W        W44624  15.466  11.122   1.824 -0.0945  0.2668 -0.0402
27101W        W44625   0.587  15.354   0.632 -0.3100  0.3984 -0.0158
27102W        W44626   2.476   4.560  15.709 -0.2755 -0.0704 -0.0727
27103W        W44627  15.265   3.810  14.298 -0.0595  0.1107 -0.0443
27104W        W44628   2.241  15.434   3.415 -0.1254 -0.1466  0.2660
27105W        W44629   2.083   8.154   4.005  0.0824  0.0622  0.1991
27106W        W44630   9.522   1.834   2.727  0.2839  0.3507  0.2486
27107W        W44631   6.218  11.952   4.372 -0.2009  0.0502  0.1933
27108W        W44632   1.897   3.387  11.746  0.2216 -0.0034 -0.3173
27109W        W44633  15.792   0.766   2.599  0.2437 -0.1320 -0.2707
27110W        W44634  16.469   2.108   2.174 -0.1436  0.0984  0.1469
27111W        W44635   4.665  13.020  15.367 -0.4162 -0.1879 -0.0347
27112W        W44636   5.416   8.393  10.041  0.0644 -0.0171  0.0775
27113W        W44637  10.387  12.507   4.585 -0.3033 -0.2882 -0.0909
27114W        W44638  13.587  10.037  11.617  0.4916  0.4343 -0.0421
27115W        W44639  17.663  16.156  15.302 -0.1382 -0.0124  0.1027
27116W        W44640   0.102  13.493   4.049 -0.0011 -0.0892 -0.2632
27117W        W44641  11.639   7.376   2.758  0.0589  0.0050  0.0236
27118W        W44642  14.107  11.068  13.072  0.0464  0.0805  0.0797
27119W        W44643   1.062  15.589   4.771 -0.0649  0.3827  0.2027
27120W        W44644   3.570   2.894   5.116 -0.2758 -0.1742  0.0763
27121W        W44645   3.726  13.245  14.954  0.3447 -0.0307 -0.3737
27122W        W44646   7.951   5.321   2.531  0.2844  0.0283 -0.2015
27123W        W44647   3.528   0.132  14.779 -0.1478 -0.1796  0.0610
27124W        W44648   1.402  16.210   2.071  0.0852 -0.0988  0.1107
27125W        W44649  16.164   9.362  10.521 -0.0520  0.0277 -0.2521
27126W        W44650  17.255   9.788   4.818 -0.0957  0.0651 -0.1206
27127W        W44651   7.461  12.062   1.076  0.1374  0.0024 -0.0902
27128W        W44652   1.039   3.843  13.617  0.2100 -0.3218 -0.0098
27129W        W44653   1.583  12.420   5.192 -0.0841 -0.0102  0.1360
27130W        W44654  14.266  15.889  13.384  0.1819 -0.1824 -0.0090
27131W        W44655   3.856   3.487  15.228 -0.0788  0.1291  0.1086
27132W        W44656  16.799   8.945   4.660  0.3606 -0.2620 -0.1594
27133W        W44657   5.011   9.582   0.487  0.1044 -0.0884 -0.2139
27134W        W44658   1.984  17.676  15.752  0.0024 -0.0003 -0.2026
27135W        W44659   8.691  15.340  13.045  0.2161  0.0033  0.1540
27136W        W44660  10.128   3.711   1.007 -0.0311  0.0575  0.2444
27137W        W44661   3.448   3.516   4.106  0.0190  0.2079  0.0058
27138W        W44662   5.439  13.340  11.016 -0.0080  0.2661  0.2200
27139W        W44663   4.864  16.477  11.866  0.4186 -0.1607  0.0882
27140W        W44664  14.802  13.343   2.225  0.0526  0.1663  0.0061
27141W        W44665  10.577  15.043   2.800  0.0377 -0.0612  0.1191
27142W        W44666  14.381   7.781  15.496  0.4824 -0.0687 -0.2344
27143W        W44667   2.665   9.818  11.497 -0.0714 -0.1295 -0.0176
27144W        W44668  13.656   0.114  13.501 -0.2287 -0.0321 -0.2328
27145W        W44669  16.909   9.513   4.508  0.1021 -0.0158 -0.0402
27146W        W44670  15.591  15.501  11.521 -0.0250 -0.0033  0.1487
27147W        W44671  17.226  16.414   4.669 -0.2282  0.1264 -0.0183
27148W        W44672   9.383   4.606  15.616  0.0160  0.2096  0.1987
27149W        W44673   8.142   4.687  11.559 -0.2256 -0.2315  0.1841
27150W        W44674  17.708   6.419  14.484 -0.1034  0.1290 -0.2146
27151W        W44675  11.579  12.365  11.679 -0.0379  0.1779  0.2390
27152W        W44676   2.710  14.459  15.947  0.0274 -0.0167 -0.5542
27153W        W44677   3.284   8.785  11.061  0.1730  0.1195 -0.0233
27154W        W44678  16.269   9.434   1.602 -0.0930  0.0781 -0.1370
27155W        W44679  13.235   9.046  10.494  0.3810 -0.2394 -0.2599
27156W        W44680  10.857   6.218   0.303  0.0143  0.0549  0.0744
27157W        W44681  13.381   9.469  13.941 -0.0170  0.3504  0.0985
27158W        W44682  15.327  16.021  14.890  0.2740 -0.1910 -0.0651
27159W        W44683  10.590  13.340   6.149  0.1117 -0.1297  0.0098
27160W        W44684   0.022   8.555  15.612  0.1061  0.0292 -0.0404
27161W        W44685  15.538  12.028   5.027  0.0048  0.0074 -0.1934
27162W        W44686   4.651   6.098   0.530  0.0031 -0.3589  0.0176
27163W        W44687   5.702  13.259   3.396 -0.0625 -0.1897  0.2103
27164W        W44688  13.383   7.224   0.553  0.0323 -0.0747  0.3415
27165W        W44689  12.397  12.647  15.125 -0.1186 -0.0143 -0.2042
27166W        W44690   2.889   5.694  14.546  0.2035  0.0449 -0.1249
27167W        W44691   4.362   6.169  13.312  0.0206 -0.0237 -0.2228
27168W        W44692  14.318  17.076  15.811 -0.3781 -0.0725  0.1125
27169W        W44693   6.437  11.997  10.916 -0.0176 -0.1530  0.0892
27170W        W44694  18.009   7.007   1.644 -0.1393 -0.0537 -0.0763
27171W        W44695   5.912  10.107  11.306  0.1104 -0.1764 -0.3823
27172W        W44696   3.524  13.669  13.022  0.1731 -0.0263 -0.2337
27173W        W44697   4.196  17.535  11.366  0.3302  0.2069  0.0008
27174W        W44698  12.368   9.545  15.183  0.1568 -0.0097 -0.2251
27175W        W44699  14.519  11.034  15.256  0.1389 -0.2676 -0.0955
27176W        W44700  14.183  15.912   5.633  0.0914  0.0910  0.0659
27177W        W44701  12.053   0.227  12.942 -0.0730  0.0888  0.3601
27178W        W44702  10.259  10.514   2.358  0.1063  0.2874 -0.2195
27179W        W44703   7.351  17.630  12.145  0.3224  0.3319  0.0683
27180W        W44704  10.865   2.827   2.804 -0.1788 -0.0770  0.2359
27181W        W44705   3.013   7.071   0.434  0.2205  0.1412 -0.1615
27182W        W44706   6.210   6.243  11.064 -0.0589 -0.2562 -0.4745
27183W        W44707  14.995  17.651  11.561  0.0630  0.2013  0.2839
27184W        W44708  10.610  11.945  11.946  0.0519 -0.1453  0.2788
27185W        W44709  11.324  10.387  11.666 -0.2577 -0.1386  0.0137
27186W        W44710   2.802   0.092  14.534 -0.0162  0.0663 -0.1042
27187W        W44711  10.367   4.074  12.591 -0.1454 -0.2337  0.0074
27188W        W44712  11.909  13.551  11.059  0.0100  0.0504 -0.0787
27189W        W44713   2.263   2.531   2.678 -0.1586  0.0204  0.0071
27190W        W44714   3.784   3.870   1.091 -0.1668 -0.1004  0.2360
27191W        W44715   0.262  13.866  11.541  0.1510  0.1443 -0.3094
27192W        W44716  13.955   0.091  12.465 -0.2424 -0.0935  0.1148
27193W        W44717  16.678   7.755   3.641 -0.1047  0.0851  0.3940
27194W        W44718  13.117   3.663  15.352 -0.3282 -0.1859  0.4189
27195W        W44719  14.728   9.627  14.563  0.1931  0.3787  0.0839
27196W        W44720   5.126  12.170   0.496 -0.0893  0.0012  0.3836
27197W        W44721  14.354  12.048   4.863  0.1351  0.3402  0.0185
27198W        W44722  11.489   9.262  12.000 -0.1563 -0.0078 -0.0658
27199W        W44723  10.379   5.399   0.296 -0.0744 -0.0515  0.1165
27200W        W44724   1.204   5.704  15.831 -0.1524  0.2572 -0.2185
27201W        W44725   2.915   7.198  10.145 -0.2920  0.2251 -0.3997
27202W        W44726   7.662   5.250  12.594  0.0095  0.0898  0.0008
27203W        W44727   8.290  13.952  10.237 -0.1069 -0.0148  0.0474
27204W        W44728   2.703  14.441   1.531  0.1932  0.1209 -0.1539
27205W        W44729  13.029   7.243   2.914 -0.0223 -0.1640 -0.0558
27206W        W44730  14.143  11.993  15.689 -0.0693 -0.1313 -0.0462
27207W        W44731   1.367   0.875   0.498 -0.1379  0.1715 -0.0781
27208W        W44732   4.643  10.180  12.673  0.0836  0.0450 -0.0739
27209W        W44733  17.439   0.952   0.309 -0.1240  0.0963  0.0821
27210W        W44734   0.731  17.449  11.408  0.0106 -0.1166  0.0378
27211W        W44735   3.132  14.075   5.060  0.1058 -0.0368 -0.0261
27212W        W44736   0.984   7.769   2.446 -0.2398  0.1108  0.1414
27213W        W44737  17.299  13.704   2.875 -0.1738 -0.1995 -0.2041
27214W        W44738   9.124   2.421   2.311 -0.0563 -0.1056 -0.1229
27215W        W44739   0.693  12.639  13.741  0.1067  0.2643  0.1231
27216W        W44740   7.103   4.918  11.305 -0.3799 -0.4269  0.1140
27217W        W44741  14.599   8.260  12.447  0.1058  0.1288 -0.2353
27218W        W44742  10.154  11.010   2.400 -0.1816  0.0759  0.0883
27219W        W44743  16.940   1.970   1.254  0.0750  0.1241 -0.1498
27220W        W44744   1.151  15.045  15.318 -0.1783 -0.1565 -0.0027
27221W        W44745   6.506   7.216  12.212  0.0767 -0.1870  0.1090
27222W        W44746   0.403  14.659   4.071 -0.0766 -0.0783 -0.1464
27223W        W44747  11.376   3.663  15.442  0.0100 -0.1364  0.1080
27224W        W44748   7.094   7.906  11.089 -0.3223  0.0946 -0.0600
27225W        W44749   5.562  14.692   3.215 -0.1676 -0.2583 -0.1524
27226W        W44750   4.722   4.105   2.967  0.0993 -0.2456 -0.0685
27227W        W44751  15.018  11.962   2.200  0.1151 -0.2049  0.0237
27228W        W44752   7.163   6.086  13.204 -0.4013  0.3885 -0.0343
27229W        W44753  15.143  13.623  12.893 -0.1560 -0.1788 -0.2448
27230W        W44754   3.178   0.749   0.930 -0.0097  0.0919  0.0367
27231W        W44755   6.165  18.110   2.869  0.2627 -0.0015 -0.2493
27232W        W44756  16.760   0.946  15.690 -0.2897  0.2340 -0.3191
27233W        W44757   3.920  17.456   2.459 -0.2256 -0.0220 -0.0354
27234W        W44758   1.038  15.352  13.084 -0.0868  0.1159  0.3281
27235W        W44759   9.918   6.188  12.269  0.0406  0.2385 -0.3240
27236W        W44760   2.661   2.535   1.319 -0.0515  0.0205  0.0881
27237W        W44761   8.683   5.615   2.150  0.3530  0.0085  0.3040
27238W        W44762   4.928   8.728   3.719 -0.1210  0.0545 -0.0373
27239W        W44763  12.177   7.407   1.412 -0.0295 -0.0494 -0.1284
27240W        W44764   4.506  16.579   0.672  0.1396 -0.1286 -0.2722
27241W        W44765   8.067   0.791   2.085  0.1754  0.0383 -0.1124
27242W        W44766   2.479  13.240   1.237 -0.1505 -0.3024 -0.0828
27243W        W44767  10.142  15.185   3.696  0.0934 -0.1500  0.0433
27244W        W44768   0.838   9.514   6.008  0.0576  0.1742 -0.4151
27245W        W44769  12.682  14.843   1.131 -0.3278  0.0715  0.0873
27246W        W44770   4.579   2.405  15.776  0.0260  0.0311  0.0069
27247W        W44771   7.152  14.876   0.296 -0.1657  0.2368 -0.3088
27248W        W44772  13.611   9.241   0.635  0.0715 -0.1678 -0.6538
27249W        W44773   4.903  11.400  13.830 -0.1128  0.1697  0.1316
27250W        W44774  11.715  15.664  15.079 -0.0255 -0.2092 -0.0254
27251W        W44775   7.849   9.990   4.569  0.2583  0.1849 -0.0114
27252W        W44776  11.646  11.113   2.464  0.2722  0.0100  0.2387
27253W        W44777  10.222  11.666  15.081  0.0253 -0.1461  0.0215
27254W        W44778   2.669  17.978  14.191 -0.2012  0.0191 -0.2381
27255W        W44779  17.754  10.139  14.699  0.0784  0.0570 -0.1986
27256W        W44780   0.284   4.456  15.132 -0.0160  0.0575  0.1787
27257W        W44781  10.273   7.876   1.643  0.3790  0.1772  0.2464
27258W        W44782   4.296  13.275  12.555 -0.0311 -0.1445 -0.2841
27259W        W44783   7.887  15.323   4.642  0.0819 -0.1165 -0.3684
27260W        W44784  14.397   9.793   6.063 -0.1867  0.1855 -0.0288
27261W        W44785   0.281  18.050   3.194  0.1365  0.0845  0.0550
27262W        W44786   1.275  13.877  13.557  0.0291 -0.1054  0.1666
27263W        W44787   3.362   2.043   4.823 -0.1099 -0.2725  0.1489
27264W        W44788   4.015   4.143  13.884  0.1822 -0.3258  0.0013
27265W        W44789   8.561  13.878  11.508 -0.4139  0.2313  0.2080
27266W        W44790  16.184  16.675   0.393 -0.2199  0.0739 -0.0013
27267W        W44791   5.277   4.812   2.435  0.2671 -0.3666 -0.0167
27268W        W44792   4.508  16.121   1.516  0.0620 -0.0418 -0.0155
27269W        W44793   4.589  16.979  15.104 -0.0048 -0.0731 -0.2257
27270W        W44794  17.888  12.883  13.063 -0.4257 -0.2248  0.1769
27271W        W44795  10.497   9.132   0.956  0.2484 -0.1426  0.1644
27272W        W44796   8.116  16.905  14.811  0.0454 -0.0688 -0.1503
27273W        W44797   2.862   6.371  13.773 -0.0652 -0.1437  0.3695
27274W        W44798  15.684   1.202   3.819 -0.2692 -0.0255 -0.0943
27275W        W44799  17.552   3.266  13.121  0.1233 -0.2574  0.0128
27276W        W44800   4.488   3.677   1.489 -0.2038  0.1209 -0.0081
27277W        W44801   9.954  12.534   0.265 -0.1456  0.1244 -0.2704
27278W        W44802  12.076  15.251  14.244 -0.2798  0.1876 -0.1635
27279W        W44803  13.968  15.687  16.006 -0.3598 -0.0434  0.0858
27280W        W44804  12.156  17.454   4.180  0.0468  0.2852  0.1178
27281W        W44805   3.318   7.983   3.048 -0.0143 -0.0294  0.0631
27282W        W44806   0.721   3.828   1.049  0.1730 -0.2620  0.1390
27283W        W44807  14.053   0.764  13.200  0.0864 -0.2562 -0.1318
27284W        W44808   6.627  11.851  14.738  0.2075  0.2778 -0.0770
27285W        W44809  10.671  14.439   3.968 -0.1246 -0.1681  0.1774
27286W        W44810  14.589   9.498   2.264  0.1173  0.0424 -0.3276
27287W        W44811  11.010  16.270   2.408  0.2857  0.1879  0.3470
27288W        W44812   0.518  18.094   4.013  0.2098  0.0487  0.2712
27289W        W44813  13.201   7.026  15.182 -0.0495 -0.1086  0.0067
27290W        W44814  16.632   2.766   1.903  0.3639 -0.0459 -0.2582
27291W        W44815   2.906  16.367   2.583  0.0128  0.2394  0.2999
27292W        W44816   2.534  10.155   0.065 -0.4506  0.1246 -0.4823
27293W        W44817   4.054   5.806   3.981 -0.0815  0.0302  0.2250
27294W        W44818  10.017   2.250   3.869 -0.2338 -0.3082 -0.1923
27295W        W44819   4.942   3.999  11.213 -0.0090  0.2608 -0.1658
27296W        W44820   9.301   8.503  10.363  0.2795  0.1151  0.0807
27297W        W44821   8.009   9.415   4.740  0.0464 -0.0785 -0.0568
27298W        W44822   1.314   8.348  13.364  0.0010 -0.1534 -0.1624
27299W        W44823   1.292   4.786  16.038 -0.0482 -0.1305  0.1185
27300W        W44824  11.860  10.326   3.017 -0.0280 -0.0753 -0.0872
27301W        W44825   9.546   4.101   2.080 -0.0991 -0.0851 -0.0105
27302W        W44826   7.416   2.400   2.525  0.0950  0.0046 -0.0742
27303W        W44827  15.844   1.988   0.777 -0.0931  0.3675 -0.0616
27304W        W44828  15.861   0.105  12.890 -0.1583  0.1074 -0.0230
27305W        W44829  16.720   5.663  13.026  0.1318 -0.4418 -0.2973
27306W        W44830   5.310   1.084  12.753 -0.0619 -0.1233 -0.0119
27307W        W44831  11.374   4.134   2.495  0.0403 -0.0273 -0.2313
27308W        W44832   6.493   1.466  12.439 -0.2014 -0.1102 -0.0197
27309W        W44833   2.394   5.157   1.791 -0.0323  0.0229 -0.1252
27310W        W44834   1.480   7.603  10.936 -0.0221 -0.1261 -0.1315
27311W        W44835   7.015   1.905   2.670 -0.2086  0.2119 -0.1258
27312W        W44836   1.266  12.999   3.956 -0.1344 -0.1134 -0.0873
27313W        W44837  14.432   0.037   4.770  0.0453 -0.3435 -0.2060
27314W        W44838   7.210   1.728  15.478  0.0443  0.1819 -0.0242
27315W        W44839   2.018  13.057  14.357 -0.2270  0.0572 -0.3026
27316W        W44840  17.556   0.801   2.977  0.0104 -0.4198  0.2908
27317W        W44841  16.096  10.078  15.343 -0.0726 -0.4826 -0.0396
27318W        W44842  12.885   9.458   4.015 -0.2151  0.1784  0.2592
27319W        W44843  12.135  16.713   4.844 -0.0109  0.1034  0.1997
27320W        W44844   5.034  15.068   2.889 -0.2819 -0.2710 -0.0629
27321W        W44845  17.318   7.354   0.999 -0.0024 -0.1729  0.1016
27322W        W44846   8.993  17.559  10.880  0.3400  0.0375  0.0185
27323W        W44847   0.122   7.802  12.307  0.3257 -0.0251 -0.0931
27324W        W44848   0.229   8.650   2.531 -0.0762  0.1276  0.0365
27325W        W44849  16.780  14.140  14.344  0.0707 -0.4965  0.3814
27326W        W44850   5.685   3.216  11.968 -0.1429 -0.1833 -0.2014
27327W        W44851  12.303   8.812   3.832 -0.2017 -0.1559  0.2111
27328W        W44852   4.228  13.753   5.769 -0.3760 -0.1226 -0.2050
27329W        W44853   5.909   2.499  12.510  0.1484  0.0288 -0.0098
27330W        W44854  12.219   8.627  11.166  0.0586  0.0050 -0.1214
27331W        W44855   8.244  17.048   3.132  0.0195  0.0183  0.2442
27332W        W44856   2.922  15.508   2.180  0.0290  0.0175 -0.1026
27333W        W44857   9.892  13.952   4.353 -0.2023 -0.0568 -0.1508
27334W        W44858  15.594  17.446  14.757  0.1384  0.3170  0.0269
27335W        W44859  10.611  11.603  13.700  0.0354  0.4672 -0.0083
27336W        W44860   7.724   2.852  11.540  0.2127 -0.0213  0.1358
27337W        W44861  16.175  11.643  14.782 -0.2100 -0.0791 -0.3439
27338W        W44862  17.444   1.013   3.389  0.0730 -0.0923  0.0376
27339W        W44863   0.161   4.770   0.014 -0.1580  0.1001  0.0221
27340W        W44864  16.472  11.827  12.439 -0.1198  0.1151  0.0338
27341W        W44865   9.404  15.516  14.219  0.0544 -0.2018 -0.2913
27342W        W44866  13.215  15.421   1.957 -0.0169  0.0502  0.0836
27343W        W44867  13.007   1.814   2.139  0.1517 -0.2017 -0.2444
27344W        W44868   2.450  14.979   0.881  0.2446  0.1953 -0.1550
27345W        W44869  15.042   1.267  13.150  0.0111  0.2911 -0.0291
27346W        W44870  16.014  12.541  14.119  0.1610  0.1082  0.0082
27347W        W44871   3.022   6.830  14.361  0.0866 -0.1168 -0.0622
27348W        W44872   2.261   7.055  14.706 -0.2002 -0.2439 -0.2379
27349W        W44873   9.503  11.096  13.700 -0.0710  0.0814 -0.1004
27350W        W44874   5.862  11.065  14.696 -0.0956 -0.1156 -0.2489
27351W        W44875   0.068   6.803   5.019  0.3685 -0.0298 -0.0156
27352W        W44876  12.631   7.063   3.347 -0.2155 -0.4336  0.0123
27353W        W44877   0.109   5.652  15.690  0.0688 -0.4335 -0.0385
27354W        W44878   2.338  16.104  11.814 -0.1649  0.0312 -0.0997
27355W        W44879  10.724  16.104   2.807  0.1407  0.0661 -0.1107
27356W        W44880   0.689  17.867   3.022  0.2754 -0.1514 -0.0256
27357W        W44881   8.438  10.085  12.331 -0.1975  0.0483  0.0808
27358W        W44882   1.976  12.786   0.011  0.1052  0.2559 -0.0205
27359W        W44883  17.081  11.339   1.706 -0.0898  0.0520 -0.3464
27360W        W44884   3.348   7.543   0.396 -0.1746  0.1921 -0.2096
27361W        W44885   0.929  18.145  12.162 -0.1799  0.1459 -0.1277
27362W        W44886   2.450  12.468   3.100  0.1763 -0.0180  0.3271
27363W        W44887   5.826   7.720  14.338  0.4843  0.0540 -0.4843
27364W        W44888  15.004   4.744  12.263 -0.2917  0.1379  0.1470
27365W        W44889  16.232   0.795   1.807  0.1866 -0.1821 -0.3388
27366W        W44890   6.122   4.673   3.534 -0.1826 -0.2857 -0.0646
27367W        W44891  14.694   2.734  11.647  0.2883 -0.1289 -0.1634
27368W        W44892   6.228  11.565  12.980  0.1829  0.1264 -0.0396
27369W        W44893  12.259  17.577  13.339 -0.1414  0.3025 -0.3082
27370W        W44894  12.093   7.634  15.005  0.3718  0.2574  0.1767
27371W        W44895  13.864  15.364  14.117  0.0570  0.2230 -0.0354
27372W        W44896   7.653   1.197  11.902  0.0821  0.1111  0.0453
27373W        W44897   9.112   1.962   3.066  0.2437  0.0481 -0.0305
27374W        W44898  16.235   0.961  15.786  0.1561 -0.0948 -0.1697
27375W        W44899  11.166   1.599  11.405 -0.0952  0.1223 -0.1483
27376W        W44900  12.267  10.101   2.754  0.0527 -0.1019  0.2047
27377W        W44901   6.739  12.450   0.033  0.0803  0.1506 -0.0065
27378W        W44902   2.730   6.446  13.215 -0.0603 -0.1572 -0.1185
27379W        W44903  18.114   4.138  14.366  0.1195 -0.0095  0.0020
27380W        W44904  17.037   0.066   4.808  0.1311  0.1678 -0.1731
27381W        W44905  12.950  14.886  12.081  0.3961  0.2857  0.2130
27382W        W44906  13.244   6.748   2.810 -0.1662 -0.0296  0.0559
27383W        W44907   1.296  10.716   0.727  0.2126 -0.2615 -0.2049
27384W        W44908   2.389   8.640  15.437  0.0493  0.0821 -0.1864
27385W        W44909   1.358  14.750   3.924 -0.0797 -0.4508  0.1096
27386W        W44910  13.397   0.081   3.885  0.2669 -0.3029 -0.1269
27387W        W44911  12.078   9.540   2.761 -0.1269 -0.0321  0.2439
27388W        W44912   2.840   3.409   5.627  0.1776  0.0220  0.0619
27389W        W44913  16.333   0.128   3.077 -0.0027  0.3368  0.0753
27390W        W44914   8.772   8.085  11.102 -0.0164  0.1373  0.0809
27391W        W44915  13.772   9.735   4.497 -0.0383  0.3295 -0.1112
27392W        W44916  17.432  13.104  14.827 -0.1429 -0.1431  0.0751
27393W        W44917   5.123   0.950  14.875 -0.4700  0.3424 -0.0822
27394W        W44918  13.897   5.541   3.020  0.0997 -0.0982  0.2910
27395W        W44919  13.268   9.021   4.164  0.1003 -0.1033  0.0213
27396W        W44920  15.372   0.241   4.291 -0.0738 -0.2239 -0.2527
27397W        W44921   9.338   0.511   3.910  0.0555 -0.1514  0.0681
27398W        W44922   1.684  10.088  12.604  0.0491  0.1155  0.0496
27399W        W44923   7.218  13.608  14.385 -0.0472 -0.0225 -0.2983
27400W        W44924  13.816  13.872  14.839  0.1076  0.1023 -0.2343
27401W        W44925   5.951   4.152   2.551 -0.0077  0.1342 -0.0896
27402W        W44926   1.956   6.319  15.900 -0.1963  0.0273 -0.2112
27403W        W44927  13.275  10.072   0.580 -0.0389 -0.0224 -0.2445
27404W        W44928  11.067   8.866   0.766 -0.0931 -0.1726  0.0182
27405W        W44929   9.025   6.516  13.297 -0.1182  0.1016  0.0974
27406W        W44930   1.018   0.514  16.003 -0.0416 -0.0996  0.0793
27407W        W44931   1.874   4.541   2.487 -0.3079 -0.0349  0.4653
27408W        W44932  10.902   8.983  15.790 -0.2329 -0.0530 -0.3076
27409W        W44933  12.298   1.940   0.775  0.2725  0.0451 -0.0179
27410W        W44934   0.465  15.948  14.055 -0.2615 -0.0206 -0.0351
27411W        W44935   0.072   5.763   2.051 -0.0350 -0.2418 -0.1695
27412W        W44936   7.525   3.102  15.738  0.1877 -0.1523  0.0411
27413W        W44937   1.921   0.321  14.763  0.0427  0.0968  0.1243
27414W        W44938  10.963   5.649  15.121  0.3279 -0.1799 -0.0924
27415W        W44939  11.385   1.700   3.635 -0.1180  0.1128  0.0213
27416W        W44940   5.846   1.420   3.308  0.1157  0.0746 -0.3386
27417W        W44941   3.097   4.347   3.354 -0.1890 -0.5277 -0.1532
27418W        W44942   7.006   4.669   3.276  0.1445 -0.0163  0.2383
27419W        W44943  15.946   9.090   1.814 -0.2003 -0.0137  0.0377
27420W        W44944  11.822   4.561  13.734  0.0576 -0.1116 -0.1092
27421W        W44945   1.012  12.218  14.992  0.1486  0.0923  0.1653
27422W        W44946   5.529   8.394   3.060 -0.4364 -0.5548  0.2873
27423W        W44947   3.140   3.750  11.732 -0.3879  0.3519  0.1415
27424W        W44948   4.054   2.320  15.764 -0.1669  0.0506  0.4870
27425W        W44949  15.934  12.572   0.183 -0.1420 -0.0921  0.1667
27426W        W44950   4.091   5.908   4.514  0.1409  0.1064 -0.0548
27427W        W44951  12.063   8.458  12.104 -0.1793  0.1526 -0.0927
27428W        W44952   9.216   3.062  13.801  0.0391  0.1964  0.0875
27429W        W44953  18.193   7.344  11.438 -0.0755  0.0381 -0.0675
27430W        W44954   8.594   1.870   3.009 -0.1782  0.1464 -0.1019
27431W        W44955   1.919  10.165   5.131  0.0355  0.3347  0.1627
27432W        W44956  15.014  17.541   1.270  0.3479  0.1160 -0.0175
27433W        W44957  17.653  17.153   3.380  0.1937  0.0371 -0.2032
27434W        W44958   1.136  15.753  11.125  0.2000  0.1117  0.1023
27435W        W44959  13.015   8.588  10.561 -0.4500 -0.1028  0.2365
27436W        W44960   2.485   5.410  12.046  0.3480 -0.0035 -0.1450
27437W        W44961  11.017   4.380   1.452  0.0056 -0.0000  0.1620
27438W        W44962   7.652   0.939   0.399  0.0153 -0.1391  0.2043
27439W        W44963   6.650  15.681   1.758 -0.1950  0.0706  0.2417
27440W        W44964   5.663   4.567   4.572 -0.0059  0.1519 -0.0257
27441W        W44965  16.008   6.947   2.316  0.0467 -0.0545  0.1309
27442W        W44966   7.123  14.662   1.504 -0.0242 -0.0462 -0.3301
27443W        W44967  14.904  16.058   2.939 -0.2202 -0.0731  0.0034
27444W        W44968  10.061  15.975  12.256 -0.1409 -0.2975  0.0801
27445W        W44969   1.571  13.260   2.094  0.0842 -0.0544  0.2239
27446W        W44970   8.083  10.006  12.626  0.2938  0.1865 -0.0058
27447W        W44971   2.868   9.757  15.944 -0.1674 -0.3852  0.3538
27448W        W44972   2.310  14.356   4.206 -0.0625  0.0508  0.0259
27449W        W44973   4.131   1.221   2.133 -0.1458 -0.3739  0.1151
27450W        W44974   2.345   3.063   4.222 -0.0279  0.2030  0.1803
27451W        W44975   8.894  12.209   1.738 -0.1259 -0.0894  0.0625
27452W        W44976   0.923   4.502   0.457  0.0460 -0.0471 -0.2363
27453W        W44977   7.644  11.741   1.417 -0.0032  0.1901 -0.0275
27454W        W44978  13.210   6.612  13.386  0.3347 -0.2185 -0.1611
27455W        W44979  17.932   6.621   1.399 -0.0864 -0.0037 -0.1326
27456W        W44980  10.829  10.351  11.597  0.0585 -0.3159 -0.0539
27457W        W44981   8.455   4.452   0.548 -0.0622  0.0743 -0.0355
27458W        W44982  17.790  12.593   1.890 -0.2859 -0.1452 -0.0124
27459W        W44983   4.026  14.584  12.422 -0.0024  0.2884  0.1687
27460W        W44984  13.036   8.230  11.741  0.4231  0.0620 -0.1297
27461W        W44985  11.758   7.907  11.533 -0.3240 -0.0513  0.2176
27462W        W44986  17.395   4.120   3.468  0.1068 -0.2023  0.2206
27463W        W44987  13.016   5.247   5.191 -0.3308  0.0553 -0.3091
27464W        W44988  14.919   0.560  12.633 -0.0248 -0.0101  0.2025
27465W        W44989   1.079  17.714  15.212  0.2760  0.0014  0.0358
27466W        W44990   2.856  16.379   1.048 -0.0603 -0.0831  0.1098
27467W        W44991   4.895  17.715   1.346 -0.0199  0.1815 -0.0207
27468W        W44992  11.708   6.913   3.085  0.1206 -0.0744 -0.1351
27469W        W44993   6.202  13.593  10.543 -0.3670 -0.4107  0.0579
27470W        W44994  15.245   1.764   1.012  0.0477  0.1050 -0.1233
27471W        W44995  15.904   6.829  13.445 -0.2034 -0.0274 -0.3140
27472W        W44996  16.509  17.099   3.797  0.1503 -0.1658  0.1760
27473W        W44997  14.222   0.059   0.232  0.2318 -0.1965 -0.1764
27474W        W44998   9.157  10.166   1.764 -0.2023 -0.0064  0.1650
27475W        W44999  12.380  14.635   2.631 -0.0773 -0.0610  0.3709
27476W        W45000   6.219  15.379   1.002  0.1260  0.1410 -0.0203
27477W        W45001   5.682  14.353   2.599 -0.0799  0.0026  0.2451
27478W        W45002   1.612   3.697   4.439 -0.1342  0.0331  0.1175
27479W        W45003   4.435   6.492  11.752  0.1347  0.3411 -0.2451
27480W        W45004  15.962   1.432  12.683 -0.0689 -0.2361 -0.3189
27481W        W45005  12.872   3.996  10.877  0.2799 -0.2781  0.1373
27482W        W45006  12.996  10.101  13.459  0.1144 -0.1186 -0.2175
27483W        W45007   2.698   4.098  15.881  0.2499  0.0758  0.0643
27484W        W45008  14.708   0.416  11.640  0.0754  0.1473 -0.2847
27485W        W45009   8.072   8.156  13.752  0.0375  0.2231  0.0579
27486W        W45010  14.854   3.037   1.635  0.1567  0.1174 -0.1427
27487W        W45011  10.887  10.518  11.135 -0.0863 -0.3898  0.0403
27488W        W45012  11.367   1.778  12.722  0.1275 -0.0850  0.0062
27489W        W45013  15.435   1.196   5.104  0.2268  0.0241 -0.0188
27490W        W45014   5.497   5.685  11.787  0.0960 -0.1047 -0.1669
27491W        W45015  17.028   5.758  12.650  0.2512  0.0223  0.0281
27492W        W45016   1.636  14.064  15.804 -0.0625  0.1055  0.1245
27493W        W45017   3.209   8.524   0.389 -0.3239 -0.0623  0.0323
27494W        W45018  12.445  16.475  13.108 -0.0297 -0.3091 -0.1780
27495W        W45019   9.949   1.838   4.082  0.3125 -0.0418  0.1599
27496W        W45020  12.751   7.991   0.498 -0.1333  0.3042  0.0164
27497W        W45021  17.715  14.213  13.892  0.1257 -0.2580 -0.1555
27498W        W45022  13.472   8.488   1.239  0.1078 -0.0280 -0.0694
27499W        W45023  17.977  12.780   1.481  0.3711 -0.1325 -0.0611
27500W        W45024   6.039  14.075  12.557 -0.0739 -0.1435  0.1790
27501W        W45025  16.364   7.228  11.705 -0.2824 -0.1300 -0.0897
27502W        W45026   1.868  14.077  12.863 -0.0610  0.0794  0.0988
27503W        W45027  14.718   6.076  13.034  0.0495 -0.1215  0.1944
27504W        W45028   3.468  15.692   4.487 -0.1772 -0.2926 -0.1784
27505W        W45029  15.102   8.848  14.976  0.0211  0.0166  0.1240
27506W        W45030   0.089   8.690   0.449  0.2795  0.0831  0.1961
27507W        W45031   8.222   2.473  11.965 -0.0365  0.0139 -0.0111
27508W        W45032  17.588  13.642  14.266 -0.2981 -0.2940  0.2953
27509W        W45033   3.025   9.164  15.182  0.4505 -0.1478  0.3999
27510W        W45034  13.936  11.975   4.042  0.0494  0.0477 -0.3797
27511W        W45035   8.246  12.255   5.589 -0.0220  0.0560 -0.2249
27512W        W45036   0.879   4.666  13.088 -0.0973 -0.1468 -0.2419
27513W        W45037  17.000  10.915  11.586  0.1253 -0.1197  0.0682
27514W        W45038  13.658   3.655   1.494  0.0366  0.0171 -0.3818
27515W        W45039  11.973  12.742   0.253 -0.1819  0.1445  0.0014
27516W        W45040  14.565   6.563  13.121  0.2864  0.1528  0.2139
27517W        W45041  14.334   3.101  14.555  0.2319  0.0015  0.1928
27518W        W45042   5.091  13.029   0.072  0.5292  0.2058  0.1612
27519W        W45043  17.047   2.262   5.879 -0.0022 -0.0868 -0.1560
27520W        W45044   5.731   1.982  12.723  0.0655 -0.0804 -0.0716
27521W        W45045  15.293  15.580  12.267  0.3372 -0.1904  0.2170
27522W        W45046   1.717  18.169  10.893 -0.0163 -0.3084  0.2897
27523W        W45047   8.506   8.125  15.324  0.3037  0.1114 -0.0597
27524W        W45048  13.755   7.887   0.434  0.0931  0.1860  0.0370
27525W        W45049   2.402  15.715  15.185 -0.1046 -0.1275 -0.0475
27526W        W45050  17.992  10.780   2.518  0.2270 -0.3054 -0.0552
27527W        W45051   1.021  11.759  12.173  0.2229 -0.0930 -0.2474
27528W        W45052   1.070   2.339   5.905 -0.0905 -0.1998 -0.3334
27529W        W45053   4.146   5.861   2.208  0.0390  0.0197  0.1550
27530W        W45054  13.962   7.705  13.714  0.0690  0.1980 -0.0804
27531W        W45055   8.491  12.288   3.449  0.0010 -0.1443  0.2603
27532W        W45056  15.573   7.273  14.860 -0.0221 -0.0303  0.1921
27533W        W45057  10.112   4.612   9.639 -0.0031  0.1944 -0.1631
27534W        W45058  10.117   2.152  12.474  0.1072  0.0555 -0.3819
27535W        W45059   7.739   7.157   2.613  0.1755  0.2182 -0.0148
27536W        W45060  12.300   6.428   1.723 -0.1434  0.0783 -0.1383
27537W        W45061  14.566   4.919   0.417 -0.2730 -0.2096  0.0186
27538W        W45062  17.536  10.069  15.550 -0.1983  0.0182 -0.0592
27539W        W45063   8.151  15.780  12.062 -0.1578  0.2203 -0.0686
27540W        W45064  10.527  10.079   2.610 -0.0588 -0.1313 -0.0648
27541W        W45065  14.620  16.277  15.751 -0.3512  0.3829 -0.2778
27542W        W45066   6.499   9.943  12.799  0.1889  0.1497 -0.1666
27543W        W45067   6.431   8.712   2.571 -0.2832  0.0845  0.1570
27544W        W45068  15.194   2.350   2.397 -0.1331  0.0541 -0.2277
27545W        W45069   0.049   8.671   2.023 -0.0190 -0.2089  0.0125
27546W        W45070   7.268  15.840  11.429 -0.0722  0.1097 -0.1285
27547W        W45071  11.468  11.171   2.908 -0.0969  0.2053 -0.0823
27548W        W45072   6.791  11.699  11.832 -0.2575  0.0236  0.0304
27549W        W45073  13.731  16.845  12.419 -0.5449  0.0974  0.0762
27550W        W45074   4.788   2.219  11.761  0.1106  0.0835 -0.1512
27551W        W45075  15.943   0.159  12.424  0.0459 -0.0869 -0.0444
27552W        W45076   4.885   7.409   4.363 -0.1421  0.1535 -0.0360
27553W        W45077   3.951  11.636   0.692  0.0134  0.1164 -0.0898
27554W        W45078  11.609   2.731  14.161 -0.0074  0.2526 -0.1736
27555W        W45079  14.081  12.313   2.224 -0.2493  0.1231  0.2540
27556W        W45080   2.529   9.668   0.202 -0.0487  0.0083  0.1000
27557W        W45081   1.587  10.432   1.946 -0.5548  0.0384 -0.2926
27558W        W45082   1.944   6.724  12.016 -0.3349 -0.0258  0.0846
27559W        W45083  14.920   5.609  15.160  0.0319  0.2444 -0.0187
27560W        W45084   2.959  12.795  11.738 -0.0403  0.0103 -0.0640
27561W        W45085   9.100  13.455   3.819 -0.2440  0.1246 -0.2279
27562W        W45086  12.228  17.848  15.971 -0.0362 -0.3625 -0.2038
27563W        W45087   6.345   5.593   1.079 -0.2317 -0.1285  0.4124
27564W        W45088   4.731  13.572   4.360  0.0455  0.0731 -0.0947
27565W        W45089  10.637  11.441  10.989  0.3505 -0.2070  0.0192
27566W        W45090  13.686   1.028   1.988  0.2807  0.0324  0.0905
27567W        W45091  12.023   0.740  14.930  0.0768 -0.0947 -0.2663
27568W        W45092  12.901  18.102   3.792  0.2488 -0.0699 -0.1547
27569W        W45093   1.845  13.715  14.506 -0.0073 -0.1398  0.0033
27570W        W45094   8.405   3.297   3.005 -0.0046 -0.1965  0.1710
27571W        W45095   9.389   8.744  15.145  0.2228 -0.1890 -0.0524
27572W        W45096   5.633   5.737   4.270 -0.2733  0.0643 -0.0492
27573W        W45097   9.108   3.126   0.315  0.0113 -0.1909  0.1107
27574W        W45098  13.358   1.954  14.199 -0.3432 -0.2469 -0.0643
27575W        W45099   0.526  11.049   0.568  0.0113  0.0292  0.2119
27576W        W45100  14.813  12.864  13.427 -0.2450  0.2296  0.4324
27577W        W45101  13.267   3.733   1.869 -0.0893 -0.2564 -0.1493
27578W        W45102   7.768   1.472  14.824  0.1752  0.1667 -0.0179
27579W        W45103  15.693  10.354  15.418 -0.0376  0.0222 -0.1058
27580W        W45104  15.930  13.882  15.671 -0.0130 -0.1234  0.2925
27581W        W45105   4.478  13.985   0.709 -0.1010  0.1904 -0.2522
27582W        W45106   5.194   5.588  15.929 -0.3016  0.0189  0.0615
27583W        W45107  11.495  13.147  14.289  0.0797  0.0263  0.1368
27584W        W45108   0.332  10.951  12.389 -0.4832 -0.1650 -0.0838
27585W        W45109   9.015   6.368  13.864  0.5042 -0.0626  0.0124
27586W        W45110   3.975   0.505   0.068  0.2717 -0.2564  0.0201
27587W        W45111   7.897  13.363   2.374  0.0898  0.1721  0.0475
27588W        W45112  10.884  17.043   4.538  0.0741 -0.1131 -0.0988
27589W        W45113  10.192  15.650   2.787  0.1854 -0.1061  0.1012
27590W        W45114  15.745   6.301  15.875 -0.1048 -0.1727  0.2554
27591W        W45115  17.068   4.108  12.001 -0.2453 -0.1403 -0.0224
27592W        W45116   0.784   0.193   2.864 -0.1882 -0.2202 -0.4335
27593W        W45117  10.106  15.772  12.690  0.2388 -0.2776  0.2309
27594W        W45118  16.615  17.850  13.048 -0.1110 -0.4396  0.2040
27595W        W45119   7.307   3.710  13.576 -0.0049  0.2569 -0.4168
27596W        W45120  11.785   6.426   3.952  0.1715 -0.3427 -0.0797
27597W        W45121  12.720   2.675   2.819 -0.1442  0.1254  0.2425
27598W        W45122   4.087   9.123   1.979  0.0251 -0.0861 -0.2728
27599W        W45123  13.601  11.128  13.168  0.0331  0.2636  0.3100
27600W        W45124  10.911   2.799   3.280 -0.0458 -0.1357  0.1653
27601W        W45125  14.313  17.638  13.025  0.4941 -0.0017  0.2674
27602W        W45126  13.336  12.068  14.413  0.2829  0.0613  0.1844
27603W        W45127   6.052  10.592   1.693  0.2427 -0.1803 -0.0325
27604W        W45128  17.264  12.297  14.468 -0.1418 -0.1897  0.0827
27605W        W45129   4.988   0.176  12.103  0.0156 -0.1568 -0.0678
27606W        W45130  13.902   8.641  14.884  0.0605 -0.0326 -0.0869
27607W        W45131  11.732  12.422  16.017 -0.1254  0.0921  0.2390
27608W        W45132   2.424   9.147   4.012  0.0849  0.0269  0.3442
27609W        W45133   2.510   7.675   4.731  0.0312  0.2448 -0.0137
27610W        W45134   4.904   0.499  14.343  0.0027  0.1964 -0.0525
27611W        W45135  10.303   6.933   0.716  0.0416 -0.0243 -0.1302
27612W        W45136   1.449   4.825  15.135  0.0995  0.1173  0.1430
27613W        W45137   1.011  16.308   4.809 -0.3745  0.0583  0.0650
27614W        W45138   7.687   3.245   0.391  0.3142  0.1800  0.1329
27615W        W45139  17.300  14.824  15.662  0.4002  0.5019 -0.2531
27616W        W45140  12.744   2.425  14.713 -0.1237  0.0156  0.0490
27617W        W45141   9.261   1.821  14.377 -0.0432  0.0618  0.0605
27618W        W45142   9.132  11.645  11.861 -0.2244 -0.1578 -0.0368
27619W        W45143   4.544   1.484   2.229 -0.0476 -0.0785 -0.0892
27620W        W45144  14.494  17.179   0.140 -0.0517  0.0965 -0.4094
27621W        W45145   4.330   5.335  11.302 -0.0401 -0.1806  0.3362
27622W        W45146  14.112   1.009  11.573  0.0722  0.0003  0.4029
27623W        W45147   8.918   5.817  12.666 -0.0712 -0.1561  0.0801
27624W        W45148   6.521  11.214   0.851  0.3995 -0.2487 -0.1828
27625W        W45149   8.006   6.464  14.331  0.0326  0.0587 -0.0440
27626W        W45150  14.902   6.859   0.490 -0.0819 -0.3029  0.0874
27627W        W45151  12.724   3.926  11.632 -0.2755  0.1318 -0.1322
27628W        W45152   6.354  11.090   4.763 -0.1382 -0.2899 -0.2601
27629W        W45153   8.849   7.460   4.134 -0.1929 -0.3143 -0.1845
27630W        W45154  17.351   7.219   3.200 -0.2151 -0.0741 -0.2528
27631W        W45155  12.562   5.600  16.040  0.1160 -0.1055 -0.0553
27632W        W45156  15.965   6.706   2.825 -0.3597  0.1682  0.2949
27633W        W45157  10.827  17.963  16.011 -0.0358 -0.3433  0.3403
27634W        W45158  14.402   8.631   1.087 -0.1220  0.2751 -0.1417
27635W        W45159  16.112   2.720  12.824 -0.0582  0.1195  0.1847
27636W        W45160   5.703  15.733   4.090  0.1541  0.0125 -0.0707
27637W        W45161   0.028   7.317  13.614  0.0499  0.1612 -0.1259
27638W        W45162  12.918  14.296  15.311 -0.1464 -0.2086 -0.0269
27639W        W45163  17.511   7.818   1.288  0.0618  0.4100 -0.0146
27640W        W45164  11.908   6.876   0.112 -0.0591  0.0104 -0.0198
27641W        W45165   5.343  16.934   4.030 -0.1400 -0.1450  0.0705
27642W        W45166   1.588   2.666  13.504 -0.0308 -0.1277  0.3011
27643W        W45167   0.540  14.373   2.290  0.0369 -0.2312 -0.1063
27644W        W45168   0.583  15.778   2.390  0.0753  0.1555  0.0774
27645W        W45169   0.843   5.209  13.738  0.3221  0.0566 -0.1315
27646W        W45170   4.628   9.669   3.174 -0.2115 -0.0994  0.0928
27647W        W45171  10.634   6.011  11.626  0.0408 -0.2325  0.1568
27648W        W45172   9.899   7.912   2.001  0.3417 -0.0326 -0.1511
27649W        W45173   1.289  14.891   2.517 -0.2135  0.2056  0.3626
27650W        W45174   8.877  17.855  14.290 -0.0047  0.0232 -0.0795
27651W        W45175   0.749  11.192   2.898  0.0906 -0.1668 -0.1298
27652W        W45176   7.494  16.115   4.059 -0.1353  0.0903 -0.0588
27653W        W45177   9.156   1.469   3.013  0.3564 -0.0665  0.0745
27654W        W45178   2.127  15.768  15.584  0.1718  0.2178 -0.0567
27655W        W45179   6.169   7.037  15.617  0.0801 -0.0963 -0.1265
27656W        W45180  16.601   0.867  13.266  0.0473  0.1198  0.2120
27657W        W45181  15.981   6.456   1.581  0.2628  0.0494  0.2116
27658W        W45182   1.726   2.429   1.162  0.1189  0.0656  0.0024
27659W        W45183  12.285  10.350  14.230 -0.3448 -0.3234  0.1659
27660W        W45184   7.792  13.327  11.389  0.3290  0.0063 -0.3448
27661W        W45185  12.736   4.491  14.295 -0.1260  0.0846 -0.2538
27662W        W45186  14.123   3.768   4.918 -0.3682 -0.0759 -0.4142
27663W        W45187  18.161  14.209  14.865  0.0805 -0.3333  0.1502
27664W        W45188  13.318   5.976  11.116 -0.3127  0.1597  0.0853
27665W        W45189  16.420   1.283   1.679 -0.2190 -0.0716  0.1143
27666W        W45190  18.120   3.187   4.070  0.1019 -0.1080  0.1544
27667W        W45191  11.477  11.517  14.850  0.0027 -0.1468 -0.1447
27668W        W45192  14.506  13.820  13.688  0.1371  0.2685 -0.1563
27669W        W45193  11.145  16.345  10.210  0.3329  0.0890 -0.1630
27670W        W45194  17.725   2.893   4.308 -0.1253  0.0962  0.1020
27671W        W45195   6.327  12.754  12.899 -0.0119  0.1683 -0.4209
27672W        W45196   4.890   1.532   0.047 -0.1289 -0.1027 -0.4721
27673W        W45197   0.990  15.061   3.627 -0.1060  0.1436 -0.1141
27674W        W45198   8.563   0.435   2.853 -0.3381  0.2858 -0.1137
27675W        W45199  14.999  12.659  11.943  0.1653  0.1045 -0.1122
27676W        W45200  13.922  10.333  14.163 -0.1434 -0.0157 -0.0724
27677W        W45201  13.919  17.412  11.805  0.0784  0.1792 -0.2518
27678W        W45202   8.652   2.449  14.721  0.1353  0.3577  0.1168
27679W        W45203   2.004  15.633  10.320 -0.3142  0.2226 -0.1562
27680W        W45204  11.761  10.104   4.328  0.0254  0.0721  0.0394
27681W        W45205   5.626   6.577  16.001 -0.1885  0.0991  0.2017
27682W        W45206  15.551   3.602   0.066  0.0562 -0.3131 -0.0604
27683W        W45207  17.905   8.722   2.757 -0.1533 -0.1998 -0.0003
27684W        W45208   5.766   7.960  13.905 -0.0105  0.0538 -0.0484
27685W        W45209  16.979   1.225   1.044  0.0362 -0.2438  0.0759
27686W        W45210  17.705   9.129   4.147 -0.2534 -0.1229  0.0217
27687W        W45211   0.546  10.372  14.860 -0.2468  0.0889  0.1002
27688W        W45212   9.393  16.947   0.965 -0.1135  0.1735  0.0214
27689W        W45213   4.793   3.157   2.628 -0.0000 -0.0480  0.0071
27690W        W45214  14.614  11.704  13.767  0.1579 -0.1937 -0.0932
27691W        W45215   0.575   4.475   4.580 -0.0722 -0.0109 -0.4669
27692W        W45216  12.945   9.170  12.156  0.3829 -0.1188  0.1228
27693W        W45217   2.103  14.743  15.319  0.4262 -0.2891  0.1043
27694W        W45218   2.185   1.940  12.139  0.0099 -0.2964 -0.1095
27695W        W45219   7.876   9.529   1.535 -0.0548 -0.0945 -0.0631
27696W        W45220  15.974  11.952  13.630  0.0031  0.1493 -0.1045
27697W        W45221   9.851   7.933  16.055  0.1024 -0.1894 -0.2873
27698W        W45222   9.855  17.481   2.669  0.1378 -0.3244 -0.1246
27699W        W45223   2.542  11.368  12.154  0.1559  0.0563  0.1503
27700W        W45224   4.414   4.486   2.678 -0.0611 -0.2395  0.2705
27701W        W45225   3.766   1.829  15.805 -0.2415  0.1406 -0.0017
27702W        W45226  16.262   6.567  13.075  0.1105 -0.0143 -0.2409
27703W        W45227  17.359  13.713  15.227 -0.1072 -0.0762  0.0995
27704W        W45228   2.787  15.666  13.589  0.4306  0.1633  0.1934
27705W        W45229   8.171   4.803   0.333 -0.3342 -0.0077 -0.3124
27706W        W45230  14.488   0.295  14.655  0.1548  0.1844  0.0227
27707W        W45231   1.352   0.558   5.289  0.2323 -0.0707 -0.0806
27708W        W45232  17.056  14.922   3.470 -0.3429 -0.1713  0.0534
27709W        W45233   8.611   2.234  12.012 -0.1509  0.0079 -0.1127
27710W        W45234   8.575  11.249  11.676  0.1500  0.1356  0.2292
27711W        W45235   3.829   2.796   0.151  0.2168 -0.1075  0.0881
27712W        W45236   5.425  14.657  15.285  0.2435 -0.0290 -0.2249
27713W        W45237  10.395  15.111  13.192  0.2099  0.0498  0.0438
27714W        W45238  10.343   5.432  13.067  0.0881 -0.0329  0.0686
27715W        W45239   5.846   2.256  12.098 -0.2882  0.0648 -0.0891
27716W        W45240  15.095   0.512   1.868  0.2073 -0.3032 -0.0883
27717W        W45241  10.374  17.317  11.650 -0.1537  0.0418 -0.0340
27718W        W45242   0.799   2.741   4.270 -0.0906 -0.2810 -0.0003
27719W        W45243   9.888   7.058   2.262 -0.0502 -0.1352 -0.0976
27720W        W45244   9.623  11.554  13.669  0.1622  0.2295  0.2356
27721W        W45245   3.521  10.454  12.923 -0.2509  0.0343  0.1911
27722W        W45246   1.676   5.413  13.833 -0.1994  0.0407  0.3732
27723W        W45247   3.644   8.294  15.169  0.2360  0.1229 -0.0042
27724W        W45248   0.795  15.383  14.867  0.3832 -0.3466  0.0622
27725W        W45249  15.026   9.948   3.412  0.1747  0.2683 -0.3486
27726W        W45250   3.249   2.281   2.222 -0.0595 -0.2970 -0.4466
27727W        W45251  15.478   2.467   4.459  0.0558 -0.0011  0.3744
27728W        W45252   0.254   7.080  15.471  0.1394  0.0670  0.2450
27729W        W45253   5.283   0.131  15.252 -0.2299 -0.4085 -0.0185
27730W        W45254   4.880  12.122   5.240  0.4226  0.2738  0.0352
27731W        W45255   7.623   8.429  11.882 -0.4707  0.4749  0.2625
27732W        W45256  15.129   6.900   3.961 -0.1602 -0.2373  0.0954
27733W        W45257  16.642  17.320   2.756  0.1767  0.0148  0.0006
27734W        W45258  12.795  11.011   2.304  0.2033 -0.1526  0.0671
27735W        W45259   8.690  11.158  14.186  0.0871 -0.1468  0.3186
27736W        W45260   3.169  13.038   2.606  0.1907  0.1009  0.0090
27737W        W45261   3.288   0.173  11.517  0.2580  0.0599  0.2517
27738W        W45262  15.232   7.191   1.661  0.2858 -0.0868 -0.3587
27739W        W45263   4.100  16.647  11.076 -0.1782 -0.0246 -0.1040
27740W        W45264   6.107   9.876  10.843 -0.2036  0.0885 -0.2219
27741W        W45265   8.561   5.214   4.793 -0.2364  0.0788  0.1150
27742W        W45266  11.054   9.136  14.859 -0.0205 -0.3071  0.0371
27743W        W45267   9.175   7.335  14.622 -0.0976 -0.2342  0.0053
27744W        W45268   4.477   5.693   4.288  0.1016 -0.0309  0.0127
27745W        W45269  10.405   1.854   1.755 -0.1393 -0.0100  0.0260
27746W        W45270   9.876   4.333   0.728  0.2279  0.0560 -0.1131
27747W        W45271   5.256  15.251  15.466 -0.0501  0.0785 -0.0381
27748W        W45272  13.928  14.381  14.771  0.1900  0.1697 -0.3026
27749W        W45273   8.619   3.968  11.033 -0.1664 -0.2285  0.0199
27750W        W45274   0.862   0.556   1.183  0.3602  0.2619 -0.0260
27751W        W45275  15.613   9.978  12.190  0.1145 -0.1194  0.1194
27752W        W45276   8.771   3.418   4.736  0.0176 -0.1418 -0.0218
27753W        W45277  11.855  11.944  12.960  0.0822 -0.3067 -0.1822
27754W        W45278   8.362   9.349  11.320  0.0898  0.0640 -0.1465
27755W        W45279   6.959   4.315   4.108  0.0367 -0.2460 -0.1087
27756W        W45280   6.517  12.689  14.221  0.2940  0.2203 -0.0548
27757W        W45281   4.408   2.116  14.054 -0.0567  0.2008  0.2778
27758W        W45282   5.752  15.762   3.191 -0.1794  0.1888 -0.3547
27759W        W45283   9.406  16.866  13.093  0.0135  0.4255 -0.1576
27760W        W45284   7.790  17.347  15.662  0.1471  0.2656 -0.1277
27761W        W45285   7.978  11.903  12.563 -0.1670 -0.0513 -0.1482
27762W        W45286   4.091  15.055  14.007 -0.0365 -0.1931  0.2028
27763W        W45287  13.951   9.928   2.012  0.3490 -0.0605  0.1057
27764W        W45288  12.962  10.839   4.262  0.2701 -0.0999  0.3061
27765W        W45289   7.203   8.828  15.168 -0.0257  0.3092 -0.1253
27766W        W45290   7.469  15.224  14.959  0.0369 -0.0688 -0.0425
27767W        W45291   0.379  13.466  12.609 -0.0949 -0.3899 -0.1611
27768W        W45292  10.161  15.014  14.437  0.4262 -0.0414 -0.0804
27769W        W45293  14.120   8.988   3.942 -0.0325  0.0403 -0.0918
27770W        W45294  12.518   9.261  16.089  0.0730  0.3155  0.4045
27771W        W45295  15.876  12.106  14.887  0.0115 -0.2017  0.1074
27772W        W45296  14.394  14.273  12.030  0.0448  0.2024 -0.1210
27773W        W45297  10.344   2.037   0.860 -0.1893 -0.1656  0.0480
27774W        W45298   3.322   7.075  14.817 -0.0408  0.3628 -0.0069
27775W        W45299   1.587   1.981   2.252  0.0048 -0.0648  0.1912
27776W        W45300   9.516   0.620   2.346 -0.0524  0.2009 -0.2379
27777W        W45301  10.729   6.489  11.860 -0.0197 -0.1594 -0.0063
27778W        W45302   6.680  18.047   3.486 -0.2781  0.3537 -0.1437
27779W        W45303   8.999  11.404   2.075 -0.0194  0.2682  0.0989
27780W        W45304   7.257  14.746  13.666  0.0359 -0.0829 -0.1233
27781W        W45305   6.075   3.574  11.709 -0.1082 -0.3591  0.0377
27782W        W45306   1.255   4.252   0.161 -0.1312 -0.3119  0.0035
27783W        W45307   1.403   5.430   1.774 -0.0579  0.0249  0.0628
27784W        W45308  14.582   4.759   1.507 -0.1278  0.1337 -0.1743
27785W        W45309  11.408  15.507   5.278 -0.2769 -0.0061  0.1526
27786W        W45310   8.035  17.464   4.454 -0.1144 -0.0292 -0.0502
27787W        W45311   1.920   3.677  10.289 -0.1871 -0.0183 -0.1033
27788W        W45312   3.064   9.827   2.784 -0.4851  0.2137 -0.0024
27789W        W45313   4.307   1.026  15.614  0.2603  0.1352 -0.2679
27790W        W45314  10.564  14.918   2.287  0.0377  0.1407 -0.3105
27791W        W45315  16.767  10.369  11.711 -0.0492 -0.1072 -0.0893
27792W        W45316   1.415   1.118   2.206  0.1677  0.0916 -0.0900
27793W        W45317   0.164   4.507   5.826 -0.1687  0.4258  0.1212
27794W        W45318   6.777  12.846  13.094  0.1727 -0.2699 -0.1640
27795W        W45319  13.832   6.849   4.798 -0.1769 -0.2132  0.1862
27796W        W45320   4.643   4.588  15.017 -0.0791  0.0384  0.3598
27797W        W45321  14.679   4.905   2.949  0.1592 -0.2491  0.0041
27798W        W45322  13.458   4.760  14.615  0.0192  0.0860  0.2386
27799W        W45323  12.780  12.950   3.442 -0.1640 -0.2769 -0.1891
27800W        W45324  18.194   1.376  14.443 -0.1397 -0.3023  0.0086
27801W        W45325   2.612  16.529   2.058 -0.0216  0.2414  0.1674
27802W        W45326   7.423  12.657  11.014  0.1095 -0.0697 -0.0793
27803W        W45327   1.892  17.118   2.996  0.3230 -0.1873  0.0045
27804W        W45328   7.233   9.011  12.398  0.1093  0.0299 -0.0865
27805W        W45329   1.986   9.671  13.627 -0.1451 -0.1122 -0.2247
27806W        W45330   6.135   3.861   0.496  0.1773 -0.3377 -0.0122
27807W        W45331   4.860   3.282   1.709 -0.1991 -0.4017 -0.0083
27808W        W45332   0.929  15.051  13.526  0.1865  0.0054 -0.0384
27809W        W45333   2.718  11.597  13.933  0.0646  0.0796 -0.1176
27810W        W45334   5.979  18.093   2.264 -0.2153  0.3205  0.2978
27811W        W45335  11.092  11.334   4.335  0.0660 -0.0622 -0.1925
27812W        W45336   0.596  12.040  15.557 -0.1015  0.0759 -0.1271
27813W        W45337  16.199   3.389  14.978  0.2452  0.2964 -0.0963
27814W        W45338   3.940  12.578  13.807 -0.2370 -0.0105 -0.1610
27815W        W45339   8.966   7.874   0.822 -0.1211  0.0331 -0.3304
27816W        W45340  13.357   1.346  13.179  0.3247  0.0819 -0.1315
27817W        W45341  15.513   9.041   2.424 -0.0732  0.2322 -0.1163
27818W        W45342   3.512   3.991   3.955 -0.2400 -0.2728 -0.4186
27819W        W45343  15.845  13.544   3.382 -0.0647 -0.1785 -0.1497
27820W        W45344   9.940   2.310  15.496  0.2182 -0.0011 -0.0990
27821W        W45345  11.111   2.852   4.090 -0.0254 -0.0131 -0.0879
27822W        W45346   3.247  12.491   2.019  0.1399 -0.2205 -0.0022
27823W        W45347  14.269  15.613  12.084 -0.1891 -0.1808 -0.1382
27824W        W45348  13.140  16.168   0.822 -0.2276  0.0505  0.1473
27825W        W45349  14.096  15.323   2.253 -0.0893  0.2192 -0.2168
27826W        W45350   3.454  15.018  15.461  0.0100  0.0177 -0.1293
27827W        W45351   7.082  16.592  12.522  0.1150  0.0873  0.0249
27828W        W45352  10.760   2.670   5.382  0.1910 -0.0667 -0.0019
27829W        W45353   0.878   6.360  15.292 -0.1096 -0.0732  0.0124
27830W        W45354  17.725   3.420  13.689  0.0597  0.0433  0.2542
27831W        W45355  14.384   7.701  14.187 -0.3160 -0.1222 -0.2297
27832W        W45356  17.157   7.846   0.944  0.0310  0.0356 -0.1298
27833W        W45357  15.118  15.317   4.098 -0.2330  0.0036 -0.0185
27834W        W45358   7.021   9.564  13.360  0.1315  0.2597  0.1032
27835W        W45359   9.189   2.548   3.226 -0.0288  0.0652 -0.1789
27836W        W45360  15.367  11.640  11.428 -0.1631 -0.2479  0.3812
27837W        W45361   7.575  11.493  13.781  0.1611  0.1471  0.1932
27838W        W45362  16.965  13.316   2.900 -0.1462  0.2048  0.5137
27839W        W45363   6.714  14.955   3.314 -0.3769  0.2570  0.1997
27840W        W45364   5.852   1.975  13.749  0.0090  0.2148 -0.1921
27841W        W45365   2.729  12.761   1.427  0.1025  0.0258  0.1362
27842W        W45366  17.137   5.038   5.794 -0.1170 -0.0032 -0.0244
27843W        W45367  14.321  14.290   2.245 -0.1831  0.0050 -0.1034
27844W        W45368   3.510   2.004   4.159  0.1161  0.0425 -0.1557
27845W        W45369   7.963  16.887   2.685  0.0894  0.3630 -0.0011
27846W        W45370  15.908  17.029   4.107 -0.0584 -0.0581 -0.1469
27847W        W45371  11.910  15.618  15.636  0.1886 -0.0355  0.0943
27848W        W45372  13.710   4.205   5.005  0.1021 -0.1119 -0.2247
27849W        W45373  13.505   7.495  12.238  0.3313 -0.2949  0.1441
27850W        W45374  16.110   4.204  16.077 -0.0908  0.0636  0.1324
27851W        W45375   5.093   0.466  15.856 -0.2824  0.0806 -0.0063
27852W        W45376  16.778   5.088  15.400 -0.1782 -0.2162 -0.0257
27853W        W45377   7.217   4.020  12.329 -0.1027  0.1196  0.2187
27854W        W45378   3.017   2.064   3.945  0.3236  0.1184  0.2132
27855W        W45379   1.821   0.682  15.194 -0.1377 -0.1544 -0.0318
27856W        W45380   5.828   6.880   1.657  0.0377 -0.1979  0.0549
27857W        W45381  17.949   1.185   5.639  0.2979  0.0638 -0.0164
27858W        W45382  15.176  11.165   3.900 -0.1434 -0.1654 -0.0310
27859W        W45383  11.936   1.830  14.327 -0.2999 -0.0714  0.0022
27860W        W45384  13.158   3.468   1.497  0.1461  0.0838  0.3237
27861W        W45385   4.168  13.292   1.449 -0.1710  0.0147  0.1967
27862W        W45386  11.428  10.721  15.812  0.1074  0.4408  0.0172
27863W        W45387  15.988  16.208   0.426 -0.0701 -0.0018  0.2914
27864W        W45388  11.471   5.626  15.081  0.0134 -0.1897 -0.0829
27865W        W45389   4.937  11.298   4.394 -0.0466  0.0595  0.1361
27866W        W45390   2.344   9.343  14.694  0.0659  0.1552 -0.0250
27867W        W45391  12.336  15.066   4.355  0.0359 -0.0910 -0.0936
27868W        W45392  15.025   9.095   4.043  0.3975  0.3678  0.0893
27869W        W45393   6.559   6.959  15.971  0.3961  0.0433  0.0379
27870W        W45394   0.007  10.426   0.746  0.0233 -0.1427 -0.0890
27871W        W45395   8.934  16.922   2.929 -0.2491 -0.2262 -0.1208
27872W        W45396  17.988   4.512  13.527 -0.1659 -0.1772 -0.1595
27873W        W45397  13.611  15.162   1.390 -0.1589 -0.2744  0.1241
27874W        W45398  13.236   5.024   3.048  0.1372  0.3399 -0.0750
27875W        W45399  17.148   1.622   3.524  0.1077 -0.1554  0.1068
27876W        W45400   2.245  12.799   3.890  0.0111 -0.3222  0.2774
27877W        W45401  11.796   1.136  10.255 -0.0398 -0.1266 -0.0600
27878W        W45402  10.420  11.908  11.109  0.0433 -0.1953 -0.1529
27879W        W45403   3.085  17.338  13.416  0.0329 -0.0406 -0.1165
27880W        W45404  13.886   5.004  12.830  0.1459  0.4068  0.2253
27881W        W45405   3.505   7.684  13.554 -0.0216 -0.1541  0.0333
27882W        W45406  16.393   7.599  10.985  0.0008 -0.1102 -0.0820
27883W        W45407   1.749  10.641   3.000 -0.0174 -0.1498  0.0218
27884W        W45408   9.734   2.587  13.925 -0.2077  0.2809 -0.2598
27885W        W45409  13.957  14.031   3.041  0.0841 -0.1505  0.1560
27886W        W45410  14.527   4.611  14.025  0.0592  0.0744  0.0425
27887W        W45411  10.888   7.936  12.481 -0.2613  0.1223 -0.0749
27888W        W45412  16.411   9.990  13.605 -0.0518  0.1904 -0.1226
27889W        W45413  15.965   6.141   4.212 -0.3103 -0.1005 -0.1046
27890W        W45414   8.895   9.345  12.860  0.1935  0.0765 -0.3028
27891W        W45415   5.758   7.018  14.797 -0.1422 -0.0123  0.0815
27892W        W45416   9.203  14.237  11.717 -0.1159 -0.2121 -0.0043
27893W        W45417  17.781  10.258   3.935  0.0892 -0.0366  0.0260
27894W        W45418  10.322  17.776   4.882  0.3181 -0.2419 -0.0068
27895W        W45419  16.644  13.660   0.233 -0.0657 -0.2696 -0.1879
27896W        W45420   8.787  11.953   0.517  0.2798 -0.3522 -0.3399
27897W        W45421   9.913  10.936   6.229 -0.3253  0.0640 -0.2153
27898W        W45422  12.705  15.005   0.630  0.3087  0.0414  0.0331
27899W        W45423  12.163   1.240   2.783 -0.5023  0.0440  0.1247
27900W        W45424  18.007  15.173  13.126  0.1482  0.2220 -0.1375
27901W        W45425  18.185  17.503   0.609  0.0701  0.2628  0.0611
27902W        W45426   9.399   2.928  11.763 -0.0077  0.1428  0.1709
27903W        W45427   9.817  12.668   1.253  0.0397 -0.1468 -0.1277
27904W        W45428   2.200  16.291  11.307  0.2124  0.2497 -0.2948
27905W        W45429  15.662  12.363   4.011  0.0639  0.2898 -0.0489
27906W        W45430   6.976  18.101   1.675  0.2520  0.3610  0.0155
27907W        W45431   2.461  16.564  11.635 -0.2205 -0.0650 -0.1876
27908W        W45432   6.595   8.830  13.238  0.2173  0.1366  0.0025
27909W        W45433   8.496   6.454  15.959  0.1674 -0.2107 -0.0962
27910W        W45434   3.274  11.292   3.572  0.0434  0.5247 -0.3489
27911W        W45435  12.927  10.660   3.125 -0.1452 -0.1331  0.1173
27912W        W45436   6.610   4.996   3.262 -0.2012  0.1384 -0.1209
27913W        W45437  15.723   8.084   1.191 -0.0359  0.0090 -0.0308
27914W        W45438  12.820   0.836   2.199 -0.0875  0.1694 -0.1172
27915W        W45439   4.584   7.961   5.114  0.0347  0.0366 -0.2546
27916W        W45440   7.953  16.674   2.068  0.0703 -0.0442  0.0443
27917W        W45441   5.674   1.539  15.363  0.2392 -0.0776  0.2417
27918W        W45442   8.000  14.758   3.077 -0.2410 -0.0202 -0.4600
27919W        W45443  18.038  17.419   1.078  0.2339 -0.0900 -0.0702
27920W        W45444   2.464  12.454   0.032 -0.0020 -0.0313  0.2467
27921W        W45445   7.917  13.449  13.151  0.0212 -0.1674  0.0328
27922W        W45446   3.895   5.785  14.381  0.1891 -0.1501 -0.2322
27923W        W45447   3.114  13.824  12.762  0.0801  0.0328 -0.2032
27924W        W45448   5.342  16.052  12.445  0.1464  0.1251  0.1239
27925W        W45449  16.616   5.364   5.149 -0.0245 -0.0965 -0.0896
27926W        W45450   6.252  12.270   5.732  0.0828 -0.1151 -0.1735
27927W        W45451   5.809  14.398  13.687  0.0762  0.2092  0.0605
27928W        W45452   4.883   1.939  14.022 -0.0362  0.2798  0.3147
27929W        W45453  11.040   5.922  16.029 -0.0463  0.0882  0.0723
27930W        W45454  16.492   3.753  10.956  0.0503  0.1858  0.1972
27931W        W45455   3.791   5.681   1.897 -0.1662 -0.1165 -0.0915
27932W        W45456  10.453  16.054  15.012 -0.1915 -0.2761  0.0156
27933W        W45457   8.002   6.593  13.168  0.0464 -0.0067  0.2690
27934W        W45458  17.715   0.090  14.231  0.0513 -0.2327 -0.0829
27935W        W45459  12.039   8.546   5.049  0.0195 -0.1307 -0.1771
27936W        W45460   5.865  16.930  10.426  0.1111  0.0750 -0.0169
27937W        W45461   9.559   0.177  12.913 -0.0565  0.1679 -0.0862
27938W        W45462  10.342   4.336   3.300 -0.1424  0.0826 -0.0184
27939W        W45463   0.551   0.906   5.006 -0.3523 -0.1452 -0.3289
27940W        W45464   2.003   8.737  11.861 -0.1715 -0.1687 -0.0529
27941W        W45465   9.432   5.556  14.452  0.1549 -0.0805  0.1918
27942W        W45466  17.189  12.009  11.063  0.0831 -0.1217 -0.1147
27943W        W45467  14.788  16.470   4.905 -0.2501  0.2542  0.0015
27944W        W45468  16.874   0.635  11.111 -0.2694  0.0340  0.4171
27945W        W45469   9.177   7.880  14.663  0.0176  0.0063 -0.2339
27946W        W45470  18.190   9.451  11.531  0.0069  0.0734 -0.0246
27947W        W45471  13.714   1.087   2.812 -0.1394 -0.1919 -0.0893
27948W        W45472  17.460  15.783   3.085 -0.3341 -0.0791  0.0071
27949W        W45473  11.954  16.109  15.820 -0.1117  0.2012  0.1698
27950W        W45474   7.997   1.352   0.508  0.2125 -0.0237  0.2417
27951W        W45475   3.643   1.745  13.319  0.1079 -0.1683 -0.0481
27952W        W45476  13.977  13.897  10.165 -0.0274 -0.0480  0.1313
27953W        W45477  12.940  17.067   3.057  0.0218 -0.1156 -0.0420
27954W        W45478   2.490  10.057   2.185  0.0069 -0.1503  0.3978
27955W        W45479  13.039  12.341   0.264 -0.1014 -0.0731 -0.1006
27956W        W45480  16.822   2.032   4.410  0.1423  0.2214 -0.1651
27957W        W45481   5.306   8.274  10.517 -0.2942  0.2191  0.1253
27958W        W45482   4.427   6.432   3.112 -0.0554 -0.0803  0.0421
27959W        W45483  10.203  16.103   2.632 -0.1485  0.3035  0.2204
27960W        W45484   9.671  13.746   0.124  0.1080 -0.0809 -0.1182
27961W        W45485   8.339   7.846   1.460  0.1950  0.3479 -0.0380
27962W        W45486  15.026   9.144   2.113  0.0786 -0.0095 -0.0909
27963W        W45487   6.952   0.841   3.528 -0.2507 -0.0794 -0.2193
27964W        W45488  11.854   8.775   4.112 -0.0912  0.1832 -0.0447
27965W        W45489  16.561   8.184   1.660 -0.1505 -0.0776  0.0221
27966W        W45490  15.386  15.169  13.978  0.2150  0.0597 -0.1353
27967W        W45491   8.826   2.737  15.426  0.2443  0.1496 -0.0791
27968W        W45492  14.887   8.162   4.832  0.1588 -0.0255  0.1697
27969W        W45493  16.427  15.750  12.187 -0.0138  0.2711 -0.1350
27970W        W45494  10.356   1.389   0.404  0.2668  0.0033 -0.1191
27971W        W45495  16.388  10.669  13.303 -0.5104  0.0863  0.0599
27972W        W45496   7.659   9.644  13.561 -0.1340 -0.0576 -0.1224
27973W        W45497  11.366  14.589   5.744  0.1661  0.0879  0.3786
27974W        W45498   8.159   9.398  13.977 -0.0941  0.0827  0.2202
27975W        W45499  10.018   3.919  12.911 -0.0641 -0.1254 -0.2470
27976W        W45500   0.954  16.095  12.686 -0.0475  0.0055 -0.0497
27977W        W45501   3.984   6.259   0.169 -0.0083  0.2884 -0.0654
27978W        W45502   2.365   2.881   0.567 -0.1119 -0.0983  0.0044
27979W        W45503  12.159  16.027  10.268  0.2215  0.0063 -0.1082
27980W        W45504   7.754  13.391  15.624  0.1217 -0.1428 -0.0887
27981W        W45505  17.727  10.311  11.614  0.3000 -0.2493  0.1740
27982W        W45506   8.044   9.262   3.935  0.0466 -0.1333  0.0941
27983W        W45507   4.116  10.492  14.702 -0.0805 -0.0390  0.0414
27984W        W45508  13.293  14.304  13.769  0.3082 -0.0077 -0.1739
27985W        W45509  17.080   5.516   2.731  0.1875  0.2736  0.0985
27986W        W45510  13.304  11.426   3.537  0.0363  0.0428  0.0039
27987W        W45511   6.837   3.074   3.864 -0.1871  0.0432  0.2418
27988W        W45512   1.078  11.346   4.142  0.2111  0.1695  0.0115
27989W        W45513   0.555  17.206  13.494  0.4686  0.1899 -0.0547
27990W        W45514  13.008  14.119   3.667 -0.0841 -0.0985 -0.0453
27991W        W45515  13.644  10.228   0.316  0.3434  0.2163  0.1772
27992W        W45516   9.667   6.100  12.677  0.2443  0.2231 -0.1168
27993W        W45517  10.354   3.699  13.445  0.2103 -0.2695 -0.0348
27994W        W45518  10.118  14.162   3.318 -0.2011  0.2108 -0.1928
27995W        W45519  13.061  14.500   5.347 -0.0528  0.1845  0.2224
27996W        W45520  17.357   8.770   4.047 -0.0426 -0.0738 -0.4094
27997W        W45521  14.472   7.430  15.848 -0.3700  0.3396  0.1738
27998W        W45522  14.669   5.106  15.881 -0.1955  0.0067 -0.0721
27999W        W45523  10.745  10.840   0.328  0.4218  0.2614 -0.1387
28000W        W45524  14.274   1.880   2.081  0.2586  0.5018  0.2491
28001W        W45525  13.959  10.386   1.275 -0.0761 -0.0937  0.0801
28002W        W45526  14.978   3.026   0.624  0.2070  0.0155 -0.0299
28003W        W45527   9.953   4.172   1.172 -0.0939 -0.1575 -0.0087
28004W        W45528   8.846  10.351  11.865  0.0245 -0.1058 -0.0384
28005W        W45529  13.797   4.790  13.314 -0.1748  0.2128  0.1235
28006W        W45530  14.805   1.776   2.529  0.0620 -0.0070 -0.1939
28007W        W45531   4.611  10.301  14.657 -0.0550 -0.3375 -0.0340
28008W        W45532   1.378   5.298  15.419 -0.0933  0.0195  0.1267
28009W        W45533   4.666  15.092   1.728 -0.0733  0.0688  0.2800
28010W        W45534  14.421   6.279  11.875 -0.3221 -0.2425  0.0825
28011W        W45535   8.324  14.620  11.443  0.1028 -0.1962  0.0171
28012W        W45536  17.276   0.712   1.880 -0.1129  0.3571  0.0077
28013W        W45537   5.734   1.295  15.898  0.1252 -0.1252  0.0711
28014W        W45538  10.450   1.634   1.293 -0.4217 -0.0189  0.3540
28015W        W45539  14.991   4.048  10.332 -0.0915  0.3196  0.0173
28016W        W45540   3.282   9.192  13.767  0.0062 -0.1288 -0.3794
28017W        W45541  12.712   8.692  13.845 -0.2341 -0.0435 -0.0426
28018W        W45542   5.192   7.363   1.042  0.0180  0.0341 -0.0641
28019W        W45543   0.351   7.281   1.984 -0.1148  0.0667 -0.2416
28020W        W45544  17.989  16.771   3.339  0.0871  0.0855 -0.3100
28021W        W45545   4.133   5.066   0.504 -0.0320 -0.0857 -0.0827
28022W        W45546   7.023  11.451  14.538 -0.1191  0.1728 -0.0742
28023W        W45547   6.191   8.134   5.812  0.0527  0.1100  0.1194
28024W        W45548  12.974  12.865   2.531  0.0518  0.1652  0.2654
28025W        W45549   4.836   2.234   2.422  0.3425  0.2320 -0.3385
28026W        W45550   4.354   6.841   4.863 -0.2855  0.0961 -0.1167
28027W        W45551   8.671   2.134   1.172 -0.1150  0.3214  0.4216
28028W        W45552  12.587  10.039   5.897  0.0410 -0.0181 -0.0668
28029W        W45553  15.299   6.164  12.275 -0.0218 -0.1447  0.0949
28030W        W45554   0.932  15.610   0.904  0.1864 -0.1148  0.2032
28031W        W45555  10.422   2.616   1.567  0.0486  0.0160  0.1971
28032W        W45556   3.233  14.320  13.633  0.3293  0.0007  0.0622
28033W        W45557   5.976  16.230  14.962  0.0367  0.1167  0.2494
28034W        W45558  17.333   1.912  11.742  0.2079 -0.2485  0.0022
28035W        W45559  17.135  10.201   2.878 -0.2814 -0.0213  0.3269
28036W        W45560  14.724  15.581   4.618 -0.2046 -0.1547 -0.0586
28037W        W45561  10.107  17.672   5.363  0.1139  0.0307  0.3579
28038W        W45562  14.901  11.748   0.201 -0.5489  0.0862 -0.0546
28039W        W45563  13.260  13.430  14.527  0.1680 -0.3599  0.0894
28040W        W45564   3.435   6.102  14.398  0.0975 -0.1762  0.0782
28041W        W45565   0.865  15.049   1.609  0.0479 -0.0143  0.0340
28042W        W45566   6.967   1.285   3.799  0.0049  0.0783 -0.0012
28043W        W45567   5.415  10.900   2.402 -0.0989  0.1074  0.0346
28044W        W45568   7.035  14.902  15.486 -0.1969  0.0083  0.3236
28045W        W45569   0.942   7.767  14.122  0.1621  0.0356  0.2549
28046W        W45570   0.588  16.721  15.472 -0.2049 -0.1277 -0.0029
28047W        W45571  10.087  17.725   3.106  0.1417 -0.1134  0.1287
28048W        W45572  17.919  12.078  13.605 -0.2754  0.0987  0.2715
28049W        W45573   5.626  17.334  13.092 -0.0402 -0.3269  0.2482
28050W        W45574   0.792   1.109  13.123  0.0031  0.3832  0.0955
28051W        W45575   2.206  14.491   0.037 -0.0830 -0.0743 -0.0235
28052W        W45576   7.481   9.272   1.739  0.2993 -0.1108 -0.4145
28053W        W45577  17.917   0.695   0.197 -0.1116  0.0196  0.2218
28054W        W45578  18.094   9.056  15.640 -0.0748 -0.0327 -0.4064
28055W        W45579  15.374   9.775   2.893 -0.0419  0.0793 -0.0307
28056W        W45580   9.679  17.253  11.376  0.0996  0.0369 -0.1520
28057W        W45581   4.877   2.283  14.433 -0.2127 -0.1288 -0.0772
28058W        W45582  17.141   5.987  15.752 -0.4651  0.0006  0.2192
28059W        W45583   9.504   8.405  14.631 -0.1375  0.2625  0.0626
28060W        W45584   8.390  15.074   2.413 -0.1135 -0.0281 -0.3529
28061W        W45585   9.590  12.900  13.827 -0.1962  0.1290 -0.1813
28062W        W45586   0.803   2.961  12.864 -0.0989  0.0574 -0.1070
28063W        W45587  13.066   9.901  13.983  0.2729  0.1130 -0.1043
28064W        W45588  16.089  15.346   0.429 -0.2279 -0.0787  0.1145
28065W        W45589  16.805   5.622   3.705  0.0335  0.0682  0.1594
28066W        W45590   5.429   2.229   3.298  0.1607  0.0676  0.1869
28067W        W45591   6.415   3.362   3.850 -0.0042 -0.2226 -0.0403
28068W        W45592   9.565  12.366   3.424 -0.2888 -0.2342 -0.3248
28069W        W45593  10.746   4.093  11.226 -0.0649 -0.1112  0.2395
28070W        W45594  16.749   9.788  11.608 -0.1311  0.1955 -0.1022
28071W        W45595   4.755  16.470   2.905  0.1432  0.0190  0.1263
28072W        W45596  13.493   8.247   0.810  0.0516 -0.1505  0.0977
28073W        W45597  10.893   6.461   2.793  0.1285  0.2630  0.3643
28074W        W45598   8.247  12.914  11.637  0.1288  0.3656 -0.1887
28075W        W45599  14.610   9.283   6.345 -0.1055  0.1381  0.2777
28076W        W45600  11.024  16.862  14.673 -0.4258 -0.0107 -0.1472
28077W        W45601   3.390   3.524   1.780 -0.1424  0.1663  0.4332
28078W        W45602   3.894  14.944  11.534  0.0785 -0.0191 -0.0221
28079W        W45603  11.490   0.461  11.242  0.0068 -0.0706 -0.0554
28080W        W45604  17.660  13.577  11.082  0.2986  0.0090  0.1908
28081W        W45605   8.296   8.381   1.524  0.0123  0.0400 -0.1187
28082W        W45606   9.002   0.565   1.928 -0.0783 -0.0803  0.1502
28083W        W45607  13.796   0.712  11.804 -0.0067  0.1467 -0.0197
28084W        W45608   0.091  10.118  14.888  0.2085  0.1802  0.1004
28085W        W45609   3.424   9.752   0.092  0.0271  0.1795 -0.1047
28086W        W45610  14.135  16.920  15.063 -0.0225  0.0971 -0.2114
28087W        W45611  13.682   8.706   0.576 -0.0163 -0.0527 -0.0208
28088W        W45612   0.223  11.373   1.810  0.2817  0.5217  0.2175
28089W        W45613  13.578  10.018  15.886  0.2038 -0.0013  0.1718
28090W        W45614  17.581   9.875   0.012 -0.0881  0.1362 -0.0435
28091W        W45615   6.811  16.855  12.206 -0.0161 -0.1288 -0.2199
28092W        W45616   4.921  16.627   4.213  0.2085  0.1972 -0.2250
28093W        W45617   0.945   6.533  13.217 -0.1470  0.1169 -0.1711
28094W        W45618   3.264   4.203  12.026 -0.2504 -0.1237 -0.0677
28095W        W45619   6.737   5.788  13.352  0.1246 -0.1401 -0.5132
28096W        W45620  17.609   6.872  15.555 -0.2034  0.0902 -0.1487
28097W        W45621  11.209   2.907  15.522  0.2450 -0.2203 -0.1469
28098W        W45622  16.178  16.966   4.597 -0.2343  0.0454 -0.0569
28099W        W45623  14.693  10.361   4.504 -0.1776 -0.2403  0.0589
28100W        W45624  13.071  14.947   4.903 -0.3089  0.0625  0.0217
28101W        W45625   3.441  13.108   4.212 -0.0607 -0.0114  0.1441
28102W        W45626   8.609  11.293   4.738  0.0030 -0.0032  0.0522
28103W        W45627  10.502  13.874   2.439 -0.0780  0.1390  0.0278
28104W        W45628   0.381  10.668   0.217 -0.2369  0.2517 -0.0688
28105W        W45629  13.944   7.310  11.455  0.0911  0.1060 -0.1636
28106W        W45630  13.914  14.854  14.411 -0.2294  0.1894  0.0721
28107W        W45631   7.331   9.075   4.560  0.1795  0.2411 -0.1232
28108W        W45632  16.581   9.716   2.505 -0.0589  0.0934  0.0242
28109W        W45633  14.701   8.768  12.627 -0.1983 -0.1399 -0.0502
28110W        W45634   0.257   9.440   1.012  0.1112  0.0379 -0.2574
28111W        W45635   6.533  10.410   3.284 -0.3762 -0.1227  0.3300
28112W        W45636  14.231   0.707   1.761 -0.1065 -0.0510 -0.0293
28113W        W45637  12.472   5.344  12.945 -0.1164  0.0698  0.2218
28114W        W45638  11.890  16.257   0.660 -0.1462  0.1411  0.3993
28115W        W45639  16.658   7.887   5.020  0.4426  0.1606 -0.1647
28116W        W45640  16.707   7.614   2.793  0.1358  0.0407 -0.1275
28117W        W45641   7.626   8.005   3.371  0.0144  0.1160  0.0220
28118W        W45642  10.655  10.012  12.883 -0.0971  0.0610 -0.1220
28119W        W45643   1.993   2.880  15.639 -0.2839 -0.0062 -0.1802
28120W        W45644  11.594   1.747  15.964  0.1881  0.1338 -0.3886
28121W        W45645   1.470   4.213   4.269  0.0799 -0.1766  0.2130
28122W        W45646   1.040  14.864   0.031  0.2180 -0.0463 -0.0040
28123W        W45647   8.961  12.017   5.082  0.1469  0.0421 -0.1649
28124W        W45648   2.842  17.108   1.951 -0.0325  0.2171 -0.1282
28125W        W45649  16.290   3.975  12.536 -0.1543 -0.3700  0.1777
28126W        W45650  12.119  17.667   4.676  0.0615  0.2988 -0.3336
28127W        W45651  13.984   1.477  13.990 -0.0376  0.3762 -0.1957
28128W        W45652  12.428   0.552  14.042 -0.2374 -0.1813 -0.0239
28129W        W45653  13.776  17.073   1.445 -0.1846 -0.2020  0.0742
28130W        W45654  14.606   0.655  13.500 -0.1431  0.0408 -0.0386
28131W        W45655   2.046   0.658  11.969  0.1162 -0.2668 -0.1735
28132W        W45656  13.564   1.920   2.370  0.1687 -0.0989 -0.0491
28133W        W45657  16.437  12.288   0.286  0.2651  0.0260 -0.0150
28134W        W45658  16.071  14.473   1.887 -0.0035 -0.0764 -0.0790
28135W        W45659  14.510  16.473   2.492 -0.2061 -0.0877 -0.0032
28136W        W45660  13.075  12.595  11.182  0.1965 -0.3242 -0.1040
28137W        W45661   7.042  17.812  14.208  0.0099 -0.0227 -0.3599
28138W        W45662  18.096   0.128  12.361 -0.2418 -0.2962  0.0646
28139W        W45663   5.014   6.887   1.079  0.0359 -0.1182 -0.1192
28140W        W45664   1.940   4.173   2.071  0.0679 -0.2007  0.2653
28141W        W45665   1.464   4.730   5.557  0.0584 -0.1880 -0.0793
28142W        W45666   6.024  12.726  14.678 -0.1282 -0.1707  0.0421
28143W        W45667  11.874   4.268  11.094  0.0042  0.0683  0.1820
28144W        W45668  16.507  15.530  14.005 -0.1662 -0.2159 -0.2129
28145W        W45669   2.256  14.395   1.939  0.1556  0.1426  0.4001
28146W        W45670  11.829   6.509  13.608  0.0453  0.4546  0.1659
28147W        W45671  17.134   4.830   1.449 -0.0199  0.1452 -0.2960
28148W        W45672   0.843   9.906   5.165  0.0031  0.0511 -0.0888
28149W        W45673   6.078   6.208  13.740  0.3396  0.0085  0.2123
28150W        W45674  14.239   0.563   5.768  0.0747  0.2499 -0.1999
28151W        W45675   4.430   9.417   0.784 -0.1279  0.0928  0.1851
28152W        W45676   0.162   7.643   5.182 -0.1603 -0.1940 -0.0480
28153W        W45677  15.691   7.321  11.591 -0.0324  0.0682  0.1246
28154W        W45678   1.877   3.513  14.914 -0.1619  0.0195  0.2930
28155W        W45679  12.734   7.300  10.435 -0.2722 -0.2850  0.0437
28156W        W45680  16.142  16.837   5.163  0.0705  0.1382 -0.0632
28157W        W45681   6.307   4.724  12.966  0.0151  0.0151 -0.2074
28158W        W45682   8.678   1.578   1.013  0.4850  0.2621  0.4040
28159W        W45683  12.973   8.749   2.396 -0.0568  0.1495 -0.3573
28160W        W45684  10.459   2.239  11.221  0.1825 -0.2315  0.1299
28161W        W45685   8.466   8.785  12.011 -0.0665  0.2340  0.3214
28162W        W45686  15.643  13.230   0.636  0.1940 -0.1989  0.2271
28163W        W45687   9.015  17.813   4.296  0.3926 -0.0399  0.1793
28164W        W45688  15.427   1.933   4.858  0.1264  0.0170  0.0453
28165W        W45689  13.705  11.685  14.299  0.0874 -0.1523 -0.1357
28166W        W45690   7.750  11.273   1.289  0.2294  0.0975 -0.2742
28167W        W45691   6.131  10.712   3.291  0.0811 -0.1588  0.0923
28168W        W45692  14.880   6.090   0.619  0.3447 -0.0351 -0.0523
28169W        W45693  13.515   1.601   4.103 -0.0336 -0.1584  0.0119
28170W        W45694   7.086   9.822  16.068  0.0276  0.2006 -0.1084
28171W        W45695   5.589   5.567   1.760  0.1407 -0.3816 -0.0442
28172W        W45696   4.533  14.203   1.165 -0.1486  0.3710  0.1889
28173W        W45697   0.876   4.783  12.596  0.0996  0.1619  0.0625
28174W        W45698   9.744   9.385   2.815 -0.1353  0.1878 -0.0511
28175W        W45699   6.796  17.748  13.730  0.1294  0.0233  0.4155
28176W        W45700  14.839  16.113   4.567  0.4843  0.1024 -0.0579
28177W        W45701   7.009   0.629   4.181  0.1995 -0.0491  0.2594
28178W        W45702   0.300   2.794  14.626  0.0459 -0.0357  0.0556
28179W        W45703  12.799   2.173  15.147  0.1741 -0.0699 -0.3111
28180W        W45704   6.007  11.859   0.276  0.1023  0.0647  0.1072
28181W        W45705  17.238  11.427  13.794 -0.0289  0.0471  0.1996
28182W        W45706  13.251  14.529  11.112  0.1123 -0.0618 -0.0181
28183W        W45707   8.026   8.249  15.683 -0.1743  0.1586 -0.1615
28184W        W45708   1.600   7.249   3.085 -0.2309 -0.0683 -0.0345
28185W        W45709  13.518   4.825   3.437 -0.0871  0.0991  0.1003
28186W        W45710  10.255   7.911   0.260 -0.0687 -0.0120  0.1619
28187W        W45711  12.779   5.730  12.851  0.1721 -0.2850  0.1629
28188W        W45712   8.972   0.272  12.857  0.0221  0.0736 -0.1312
28189W        W45713  15.377   0.474  14.600  0.1072  0.0547  0.0902
28190W        W45714  16.375  16.275   1.893  0.0586  0.0334  0.2602
28191W        W45715  13.351  11.363  11.644 -0.1090  0.1882 -0.0111
28192W        W45716   8.579  17.717   2.772  0.0122 -0.1012 -0.0642
28193W        W45717  15.683   1.383  14.329 -0.0390  0.1600  0.3626
28194W        W45718   1.031   1.229   0.572  0.0241 -0.0940 -0.1237
28195W        W45719  10.431  11.343  12.732 -0.2493 -0.0609 -0.1346
28196W        W45720  12.873   5.995   0.054  0.0034 -0.0477 -0.1540
28197W        W45721  17.582  11.070   4.455 -0.3254 -0.2323  0.0360
28198W        W45722   9.087   5.700   0.059  0.1413  0.0947 -0.0814
28199W        W45723  10.729   4.799  10.738  0.2574 -0.0258  0.1316
28200W        W45724   8.200   5.778  14.669 -0.0030  0.2919  0.2388
28201W        W45725   6.848  16.458  14.594  0.0254  0.1530 -0.0131
28202W        W45726   6.193   8.306  15.908 -0.2691  0.1315  0.1683
28203W        W45727   9.819  12.222   1.449  0.1894  0.4110 -0.0324
28204W        W45728   4.018   1.978   1.134  0.1183 -0.0295 -0.2017
28205W        W45729  15.584   6.128   4.938 -0.1894 -0.3001 -0.1291
28206W        W45730   8.579  12.633   5.718  0.0667 -0.0797 -0.3434
28207W        W45731  15.866   5.054   1.505 -0.1214  0.1678 -0.0605
28208W        W45732  15.578  17.283   0.382  0.0341 -0.0475 -0.2279
28209W        W45733  15.433   4.453  13.574 -0.0788 -0.2880 -0.0425
28210W        W45734  13.002   6.904   4.353 -0.5994  0.1295 -0.0880
28211W        W45735   7.771  17.512  11.895 -0.1946  0.2054 -0.2161
28212W        W45736   6.530   6.551  11.415 -0.0205 -0.0325  0.2342
28213W        W45737   1.579  12.032   3.969 -0.1797  0.5314 -0.0055
28214W        W45738  13.752   3.572   4.203  0.0764 -0.1432  0.0719
28215W        W45739  10.369   3.979   2.728 -0.1826 -0.0977  0.3457
28216W        W45740  16.074   5.697   5.169 -0.0943  0.3704 -0.0742
28217W        W45741  13.420   5.830   1.019 -0.0257 -0.3372 -0.2242
28218W        W45742  11.352   4.910  14.461  0.1663 -0.0792  0.2892
28219W        W45743  16.582  14.354  16.047 -0.1810 -0.0333  0.0722
28220W        W45744   6.782   7.405   2.700  0.0494 -0.0599 -0.0808
28221W        W45745  13.018   3.157   3.618  0.0568  0.1461  0.2396
28222W        W45746   7.422   8.783   1.685  0.0942  0.1717  0.0775
28223W        W45747   6.302   1.068  12.235 -0.1396  0.0726 -0.0560
28224W        W45748   2.909   8.253  14.990  0.3008  0.0573  0.1100
28225W        W45749  10.133  16.050   1.559 -0.2935  0.1669 -0.1070
28226W        W45750   4.263   7.188   4.492  0.0034  0.0925 -0.0149
28227W        W45751  11.540   4.555  15.522  0.0861 -0.0779  0.2885
28228W        W45752  16.726  11.406   2.698  0.0961 -0.1121 -0.0585
28229W        W45753  17.195   4.862  14.457 -0.1271 -0.3264 -0.1168
28230W        W45754   5.953  17.747  15.815  0.4095 -0.1236 -0.0498
28231W        W45755   3.868   9.333  11.083  0.0307  0.2225 -0.0145
28232W        W45756  11.498   5.807   4.091 -0.3681  0.1541 -0.2887
28233W        W45757   3.793  11.936  15.326 -0.2014  0.0606  0.0859
28234W        W45758  12.314  12.006  12.785  0.2053  0.2365 -0.2183
28235W        W45759  12.018  13.555   3.786  0.0856  0.1521  0.2294
28236W        W45760   8.167  11.580  12.911  0.2531 -0.0777 -0.2606
28237W        W45761   9.610  10.071   5.348  0.0314  0.3041 -0.0574
28238W        W45762   3.069   9.120  14.319 -0.0615 -0.1359 -0.1640
28239W        W45763   2.854  14.544  13.901  0.0290 -0.2043 -0.2607
28240W        W45764   1.222   2.564   1.237 -0.0248  0.2684 -0.3086
28241W        W45765   7.231   3.456  12.839  0.1825 -0.1195 -0.0250
28242W        W45766  10.456  14.130  14.801  0.3088  0.2362  0.0598
28243W        W45767  15.626  12.302  13.841  0.0817 -0.0312  0.6167
28244W        W45768   2.204   8.243  11.888  0.2929 -0.0876  0.1436
28245W        W45769  17.340  16.225   0.736 -0.0831  0.0886  0.2252
28246W        W45770  17.977  13.155   3.366  0.5006 -0.2254 -0.1236
28247W        W45771   1.026   2.112   3.224  0.2207  0.1699 -0.0876
28248W        W45772   5.782   9.990   1.594 -0.0940 -0.0371 -0.0020
28249W        W45773   9.580   0.947  13.585  0.1613 -0.4665 -0.5195
28250W        W45774  15.970  12.295   3.233 -0.0225  0.0081 -0.3339
28251W        W45775   6.063  14.587  15.930  0.0449 -0.3077 -0.0665
28252W        W45776  14.826   0.237  13.148 -0.1769 -0.0265  0.0402
28253W        W45777  10.968   7.023  10.672  0.3303 -0.0173 -0.0366
28254W        W45778   3.927   4.333  14.363 -0.2086 -0.2656 -0.0022
28255W        W45779  13.900  11.576   3.635 -0.3678  0.2433  0.0079
28256W        W45780   0.157  13.305  15.276 -0.0218  0.2319 -0.2886
28257W        W45781  11.401  17.516   0.563 -0.1229 -0.0640  0.1807
28258W        W45782  15.995  16.939  15.882 -0.1019  0.0186 -0.0024
28259W        W45783   8.718  11.490  12.973  0.3424  0.3713 -0.0445
28260W        W45784   5.723  12.494  11.157 -0.2356  0.4506 -0.2264
28261W        W45785  17.564   7.277  15.943 -0.2384 -0.2135  0.0077
28262W        W45786   6.337  10.238   0.023 -0.2739 -0.2223 -0.1171
28263W        W45787  15.737  16.703  13.783  0.1105  0.0350  0.2131
28264W        W45788   3.044   2.294  13.166 -0.1981  0.1491 -0.2075
28265W        W45789  15.398  12.121   0.872  0.0873  0.4506  0.1577
28266W        W45790   1.546   1.528   1.189  0.1937 -0.1580  0.1098
28267W        W45791   4.589   9.162   0.380 -0.2697  0.0481 -0.0631
28268W        W45792  11.966   0.764   4.171  0.0415 -0.1078 -0.0191
28269W        W45793   2.283   2.082  15.439  0.2017  0.0015 -0.0141
28270W        W45794   4.463   1.758   3.547  0.1804  0.0985  0.0451
28271W        W45795  14.204   9.164   1.050 -0.0473 -0.0660  0.0072
28272W        W45796  11.783  18.035   2.954 -0.0322  0.0206 -0.1224
28273W        W45797   7.814  11.732  11.579 -0.0405 -0.1251 -0.1312
28274W        W45798   5.381  11.071  15.856  0.0435  0.2459  0.2313
28275W        W45799   0.340  17.086  13.087  0.2540  0.1384 -0.3802
28276W        W45800   6.404  16.889   3.776 -0.1140 -0.1873  0.2708
28277W        W45801  12.294   3.906  15.373 -0.3888 -0.2399  0.1710
28278W        W45802   6.147   5.274  13.397 -0.2105 -0.0740  0.1958
28279W        W45803  16.754  16.445  10.614 -0.0865 -0.1246  0.0700
28280W        W45804   5.446  15.422  14.659  0.0579  0.0462  0.2938
28281W        W45805  16.993  10.452   2.275  0.3853  0.0412  0.3308
28282W        W45806  15.755   0.763   1.714 -0.1094 -0.0571  0.1619
28283W        W45807   4.759   7.692  15.342 -0.3253 -0.1361  0.1016
28284W        W45808  13.806   4.208  12.036 -0.0824 -0.2393 -0.0830
28285W        W45809  10.944  11.785  12.419  0.1113  0.1772  0.1265
28286W        W45810   6.464   3.727  15.439  0.0994  0.0307 -0.2203
28287W        W45811  11.922   2.766  11.582  0.2948  0.2769 -0.2399
28288W        W45812   7.302   5.939  14.561 -0.1500 -0.1167  0.2248
28289W        W45813   0.080   1.161   5.244 -0.0576  0.2491  0.1741
28290W        W45814   5.555   1.887  11.755 -0.0776 -0.1407  0.1777
28291W        W45815   1.648  15.287   4.012  0.0595 -0.2001 -0.0567
28292W        W45816  10.331   5.594  15.568  0.0160 -0.0041 -0.0708
28293W        W45817   9.414   3.853  12.287 -0.4904 -0.2806 -0.0529
28294W        W45818  17.579  14.375   4.945  0.0607  0.2618 -0.1112
28295W        W45819  17.055   9.947   5.246 -0.0462  0.0613  0.0359
28296W        W45820   5.931  12.314   4.347 -0.1093  0.2270 -0.1930
28297W        W45821   4.775   8.671  13.524 -0.2194  0.3672 -0.0583
28298W        W45822   4.285   6.787  15.321  0.0712  0.1884  0.1404
28299W        W45823  13.621   8.943  12.548  0.0417  0.1216 -0.0017
28300W        W45824   9.813   7.721  13.443  0.0657 -0.3196  0.0419
28301W        W45825   4.743   1.724  15.359  0.1808 -0.2378 -0.4073
28302W        W45826   5.591  16.132  13.463 -0.0769 -0.1351  0.0857
28303W        W45827   1.226   1.519   3.296  0.2255  0.2222 -0.1841
28304W        W45828   0.044   5.382  15.284  0.1666  0.3750 -0.2732
28305W        W45829   0.526  12.412   3.804 -0.3122  0.0605 -0.0213
28306W        W45830   4.177  15.944  14.351 -0.2329  0.3468 -0.0813
28307W        W45831  13.212   6.074  14.071  0.0159 -0.1184 -0.0821
28308W        W45832   1.802   5.431   2.389 -0.0179  0.1506 -0.1231
28309W        W45833  10.516   9.914   4.641  0.4495  0.0678 -0.3348
28310W        W45834  12.029  12.310  12.547  0.0512 -0.0006  0.0324
28311W        W45835   7.358   1.992  12.020 -0.1034  0.0473  0.0030
28312W        W45836  13.540  10.377   3.828  0.1152 -0.2293  0.0274
28313W        W45837   6.807  15.472   3.874 -0.3038 -0.2153 -0.0788
28314W        W45838   4.436   6.317  16.069 -0.0314 -0.0462  0.0703
28315W        W45839   5.206   0.357  11.022 -0.1648  0.3547 -0.0299
28316W        W45840  17.742  13.238   0.071  0.2529 -0.0853  0.0671
28317W        W45841   2.005  14.209  13.775  0.1480 -0.0941 -0.0885
28318W        W45842  15.749  15.999  14.608 -0.0690 -0.0144  0.2628
28319W        W45843  11.576  15.159  11.650 -0.0651  0.2743 -0.2624
28320W        W45844   8.830  10.119  10.250  0.1439 -0.1574 -0.1614
28321W        W45845   0.723  16.291  14.316 -0.2261 -0.1095 -0.0197
28322W        W45846  12.455  13.948  13.210  0.0285  0.0535 -0.0698
28323W        W45847   2.128   6.434  11.173 -0.1976 -0.0702  0.0630
28324W        W45848   3.936   0.916  14.418  0.1155  0.0340 -0.0443
28325W        W45849  15.455   4.529  15.955  0.2810  0.4175  0.2560
28326W        W45850  10.252   3.081  14.034  0.1463  0.2768 -0.1714
28327W        W45851   7.410   8.026  12.229 -0.1549 -0.2899  0.0247
28328W        W45852  11.774  13.383  12.903 -0.1349 -0.1282  0.1220
28329W        W45853   3.025   2.903   1.373  0.4714 -0.0571 -0.0237
28330W        W45854   3.404  10.186   0.319  0.2328  0.0150  0.0502
28331W        W45855  16.404   3.311  11.731  0.0223 -0.0463  0.0024
28332W        W45856   9.022  16.540   3.534 -0.0241  0.0575  0.4212
28333W        W45857   4.740  16.775  10.342 -0.0507 -0.2019  0.2401
28334W        W45858  15.420  16.500  12.468 -0.4579 -0.1316  0.0162
28335W        W45859  17.993   3.070   0.176  0.0264  0.0270 -0.1145
28336W        W45860  12.128   8.369   4.039 -0.0323 -0.0937 -0.2587
28337W        W45861   2.402  10.189   2.683 -0.2102  0.2136 -0.1908
28338W        W45862  11.754   4.547  12.688 -0.1004 -0.2322  0.0681
28339W        W45863   2.778  11.533   4.278  0.3858 -0.1041 -0.0821
28340W        W45864   3.988   7.850  13.222  0.1421 -0.2775  0.2850
28341W        W45865   4.513   8.559   4.983  0.2647 -0.0652  0.0306
28342W        W45866   4.683   7.896  12.161 -0.1713 -0.0704  0.1261
28343W        W45867  18.109  17.588  11.787 -0.4263  0.0289  0.1979
28344W        W45868  11.189  15.846   2.179 -0.0728  0.1313  0.1702
28345W        W45869  15.325   4.600   2.049  0.3956  0.0270  0.0461
28346W        W45870  11.784   8.075  12.817 -0.6337  0.2104 -0.2655
28347W        W45871  10.040  10.287   5.307  0.3370 -0.0535 -0.0484
28348W        W45872   8.424  13.660  15.175 -0.2338  0.0821  0.1082
28349W        W45873   8.954  13.101   5.617 -0.0591 -0.3401  0.2006
28350W        W45874   4.215   8.213  12.860  0.1386 -0.3076  0.0471
28351W        W45875  17.441   1.421  16.091 -0.1400  0.0439 -0.0021
28352W        W45876   3.097  16.139   4.654  0.0649  0.0486  0.2630
28353W        W45877  15.208  17.754  14.413  0.0199 -0.1602 -0.0459
28354W        W45878  12.814  17.861   2.548 -0.1047 -0.0098  0.1094
28355W        W45879   7.822   8.553  13.857 -0.1321 -0.0526  0.1023
28356W        W45880  17.514   4.896   4.727 -0.4380  0.1405 -0.1081
28357W        W45881  11.433   7.094  11.893 -0.0581 -0.1656  0.0955
28358W        W45882   6.771  10.606   4.218  0.2091 -0.0288 -0.0401
28359W        W45883   8.428   0.854  13.019 -0.1094  0.2094 -0.1031
28360W        W45884   6.896   1.706  13.952  0.0588 -0.2559 -0.2711
28361W        W45885   9.649   5.424   5.269 -0.1655  0.3603  0.1596
28362W        W45886   3.864  16.805  12.040 -0.1181  0.0090  0.1272
28363W        W45887   9.903   4.879   0.565  0.2908 -0.2987  0.1304
28364W        W45888   0.898   5.812   5.005 -0.0025  0.0680  0.1500
28365W        W45889  16.003   9.638   3.161  0.2099 -0.0269 -0.0005
28366W        W45890   9.943   8.734  11.576  0.0323  0.1930 -0.2639
28367W        W45891   0.370  12.646   0.518 -0.0161 -0.1666 -0.0663
28368W        W45892   0.565  13.102   3.189  0.2504  0.3787 -0.1034
28369W        W45893   0.117  18.026  11.490 -0.0604 -0.2948 -0.1803
28370W        W45894   5.964   2.557  11.162 -0.0550 -0.2996 -0.0012
28371W        W45895  18.057   6.001   2.634 -0.3803 -0.3094 -0.3503
28372W        W45896  17.786  17.954  12.365 -0.2010  0.1646 -0.2450
28373W        W45897   7.783  15.561   3.445 -0.0870 -0.0098  0.1156
28374W        W45898  14.924   3.661   5.428  0.4053  0.4184 -0.1652
28375W        W45899  13.887   2.743   0.509  0.2949 -0.1034 -0.2397
28376W        W45900  15.506   2.169   1.565 -0.2456  0.1634 -0.0845
28377W        W45901  11.621   3.316   3.434 -0.0315 -0.1803  0.0484
28378W        W45902   7.220  12.562   1.844  0.0504  0.0229 -0.0508
28379W        W45903   4.720  12.860  15.903  0.2659 -0.1469 -0.1590
28380W        W45904   2.886   7.152  13.002 -0.1643  0.3195 -0.0422
28381W        W45905  10.567  12.482   2.565  0.0458  0.1913  0.3465
28382W        W45906  10.072   2.072   0.461 -0.2050  0.1391  0.0185
28383W        W45907   9.629   5.613  15.433 -0.0091 -0.3501 -0.3036
28384W        W45908   4.399  15.444  15.527  0.1580  0.3148 -0.0596
28385W        W45909   5.054   0.922   1.617  0.2305 -0.2107  0.3704
28386W        W45910  15.408  17.313  14.309 -0.0446 -0.0789  0.1158
28387W        W45911   8.125   5.062   3.422 -0.0801  0.0883 -0.0116
28388W        W45912   1.540   5.330   3.431  0.0092 -0.1511 -0.2142
28389W        W45913   2.466  14.931   0.115 -0.3186  0.1191 -0.0304
28390W        W45914   0.326   1.242  13.248  0.2261  0.1058  0.1129
28391W        W45915  10.547  14.537   4.537  0.1898  0.1644  0.1826
28392W        W45916  10.534   9.291  13.548 -0.0709  0.0951 -0.0290
28393W        W45917   6.457   1.686  11.413  0.0864  0.1246  0.2746
28394W        W45918  10.621   3.813  12.230 -0.0863  0.0645 -0.1396
28395W        W45919  13.789   9.486   1.054 -0.0060  0.3888 -0.1029
28396W        W45920  11.932  13.867   3.227 -0.1516 -0.0912  0.3074
28397W        W45921  14.768   1.441  16.020 -0.4856  0.0347 -0.0495
28398W        W45922   4.383   2.109   9.913 -0.3427  0.0531 -0.1432
28399W        W45923   0.218   4.399   5.288  0.0317 -0.1028 -0.1187
28400W        W45924   7.405  10.405  10.403 -0.0456  0.0860  0.1909
28401W        W45925  14.960   5.756   2.014 -0.2558  0.0020  0.2852
28402W        W45926   7.978   4.993   0.836  0.0466  0.0388  0.0831
28403W        W45927   7.815   5.262  12.065  0.1099 -0.1698  0.1232
28404W        W45928   0.422   5.116   4.813  0.0406  0.0180  0.1982
28405W        W45929  11.763  16.382   4.572  0.3761  0.1007 -0.2378
28406W        W45930  10.727  11.770  14.311  0.0451  0.0172  0.1211
28407W        W45931  17.752  15.074  15.554 -0.0711 -0.1133  0.0048
28408W        W45932  11.252   0.088  13.993 -0.0928  0.0080 -0.1726
28409W        W45933   7.214   6.083   1.062  0.1243  0.1253  0.3610
28410W        W45934  16.246  16.715  15.019 -0.0244 -0.0722  0.1534
28411W        W45935  14.060   9.941   3.281 -0.0080 -0.0114 -0.0961
28412W        W45936  12.695  11.188   3.225  0.0856 -0.3726  0.3040
28413W        W45937  15.725  12.238   4.536  0.0675 -0.2378 -0.0343
28414W        W45938  14.355  16.760   4.778  0.4464 -0.1135 -0.1463
28415W        W45939   7.761  15.618  12.824  0.0957 -0.0384  0.0741
28416W        W45940   1.586   9.845   1.098  0.0337 -0.1661  0.1296
28417W        W45941   1.811   2.118  13.356 -0.3163  0.1869  0.2071
28418W        W45942  14.926   0.891   0.030  0.3280 -0.0681 -0.0178
28419W        W45943   4.011   4.744  15.643 -0.1211 -0.0838  0.1469
28420W        W45944   1.695  16.304  16.096  0.0276 -0.0964  0.0290
28421W        W45945  15.846   9.042   3.309  0.0369  0.1097  0.0547
28422W        W45946   4.639   8.171   3.480 -0.1457 -0.1035  0.2252
28423W        W45947  17.357   7.031  15.140  0.0340  0.1110 -0.2702
28424W        W45948  11.335  16.207   4.692  0.0471 -0.0835 -0.1783
28425W        W45949  12.062  12.013   0.836 -0.2556  0.0188  0.2636
28426W        W45950   6.398  15.332   3.545  0.1854 -0.2377 -0.0791
28427W        W45951   5.576  13.555  13.742 -0.1792 -0.3071 -0.0561
28428W        W45952   7.411  16.049   2.697  0.0834 -0.0690 -0.1614
28429W        W45953  15.407  10.226   4.458 -0.0895  0.0751 -0.2808
28430W        W45954   7.439   6.703   0.119  0.0358  0.1840 -0.0142
28431W        W45955  14.475  10.131  15.537 -0.0645 -0.0781 -0.1771
28432W        W45956  17.069   5.984   2.927  0.1370 -0.1742  0.0406
28433W        W45957  10.668  11.300  15.478  0.0695  0.2228 -0.3397
28434W        W45958   0.016   3.695   3.759 -0.1941  0.1567  0.0114
28435W        W45959  15.066   7.176   3.492 -0.0055 -0.0816 -0.0619
28436W        W45960   3.854  16.123   1.200  0.2233  0.1069 -0.3198
28437W        W45961   5.912  17.112  13.476  0.1665 -0.1898 -0.2216
28438W        W45962  17.609   1.442   3.681  0.1115  0.1014 -0.0139
28439W        W45963   4.775   9.718   4.775  0.1269  0.1261  0.0190
28440W        W45964   5.230   4.274  13.935 -0.0159  0.0632  0.1066
28441W        W45965  10.911   5.650  14.294 -0.2013  0.0499 -0.2455
28442W        W45966  11.602   9.303   2.868  0.1041 -0.2067 -0.1318
28443W        W45967  17.923   8.876  11.675  0.0360  0.0839  0.1007
28444W        W45968  14.242  11.081   0.620 -0.2442  0.2793 -0.1939
28445W        W45969   6.739   8.402   1.030  0.1343 -0.4051 -0.1125
28446W        W45970  13.295   4.527   0.721 -0.1875  0.0057 -0.2230
28447W        W45971   3.521  12.040  13.017 -0.1399  0.0663  0.0877
28448W        W45972   7.697  15.245  13.911  0.1672  0.0918  0.0764
28449W        W45973   3.842   3.687   4.808 -0.4831 -0.0406  0.2941
28450W        W45974  14.307  14.336   0.254 -0.0119 -0.1112  0.0936
28451W        W45975   0.232   8.183  13.207  0.1313  0.1579 -0.2690
28452W        W45976   9.887  10.684  13.758 -0.2193  0.1151 -0.3812
28453W        W45977   5.945   2.703   2.841  0.1550  0.0750 -0.0627
28454W        W45978  11.292   3.599   1.132  0.0688 -0.0810  0.2516
28455W        W45979   8.363   4.799  13.117 -0.1642 -0.1704 -0.0500
28456W        W45980   2.645   2.165   0.768  0.0830 -0.1863  0.4845
28457W        W45981   7.178   2.747  14.713 -0.2991  0.0192 -0.0383
28458W        W45982  10.560  16.776  15.541  0.3073  0.0830  0.0769
28459W        W45983  11.742  14.905  12.243  0.0544 -0.2347  0.2905
28460W        W45984  14.751  13.441  15.266 -0.4889 -0.1026 -0.0068
28461W        W45985   8.020   8.670  12.116 -0.0067 -0.0859 -0.0940
28462W        W45986   9.674  15.316  11.773 -0.1839 -0.0675  0.4391
28463W        W45987   0.454  14.446  15.599  0.1872  0.0561 -0.0506
28464W        W45988   0.261  17.590   3.370  0.1968  0.0782  0.0431
28465W        W45989   0.345   1.788   1.901  0.0895  0.0463 -0.1741
28466W        W45990   4.612  10.543  15.766 -0.0783  0.1845 -0.4183
28467W        W45991  11.331   1.239   1.415 -0.1255 -0.2275  0.3431
28468W        W45992  15.142  12.341   5.326 -0.0353  0.1037  0.1911
28469W        W45993  10.072  18.110  11.833 -0.3217  0.0943 -0.0814
28470W        W45994   7.695  11.622   0.974 -0.0907 -0.1683 -0.0198
28471W        W45995  14.293  14.487   1.562 -0.0350  0.2065  0.0601
28472W        W45996  12.828   7.015  12.223  0.1952 -0.2228 -0.2330
28473W        W45997  12.558  12.184  13.643  0.0882 -0.2726 -0.0983
28474W        W45998  12.861  16.297   0.426  0.1223  0.1313 -0.1611
28475W        W45999  17.746  12.554  13.524 -0.1267 -0.4928 -0.0656
28476W        W46000  17.629   7.421   4.476 -0.1363  0.2695 -0.2672
28477W        W46001  13.070  14.156  11.539 -0.0834 -0.2137  0.0983
28478W        W46002   4.487  13.885   4.745 -0.0612  0.1885 -0.1870
28479W        W46003   8.237   0.615   3.710 -0.0948  0.0892 -0.1070
28480W        W46004  14.212   5.864   3.447 -0.2174  0.0173 -0.0976
28481W        W46005  11.700   1.358  10.660  0.1509 -0.0390  0.5194
28482W        W46006   8.141   3.454  12.100 -0.0119  0.1657 -0.1403
28483W        W46007   1.099  17.491   3.232  0.0556  0.1035 -0.0151
28484W        W46008  13.491   4.382   2.482 -0.1996 -0.2100 -0.0657
28485W        W46009  14.930   0.421  14.976 -0.1536  0.0381  0.3255
28486W        W46010  13.987   8.974  12.241 -0.0772  0.0745 -0.3958
28487W        W46011   5.516   7.477  14.916 -0.2241  0.1670 -0.1443
28488W        W46012   8.864   8.022   2.710  0.0778 -0.1525 -0.0619
28489W        W46013   6.735   6.517  13.863 -0.0311 -0.0026  0.1950
28490W        W46014   3.467   1.769   1.119 -0.2212 -0.0567 -0.0001
28491W        W46015  13.660   0.781  13.553 -0.3161 -0.2088 -0.0564
28492W        W46016   6.697  12.215   3.067 -0.2004  0.3632  0.1349
28493W        W46017  15.652  13.169  11.375 -0.1030  0.0287  0.2442
28494W        W46018   2.715   4.655   3.496 -0.2380  0.2100 -0.1357
28495W        W46019   2.982   5.874  12.145 -0.3751 -0.2487 -0.0131
28496W        W46020  12.122  13.792  11.464 -0.1621  0.2092  0.0229
28497W        W46021  10.993   8.479   4.916  0.1098  0.2561 -0.0158
28498W        W46022   9.735   9.568  14.114 -0.3510 -0.0562  0.2497
28499W        W46023  10.030  11.237  13.535  0.3453 -0.4634 -0.3684
28500W        W46024   7.174   7.525  12.962  0.2866  0.0395 -0.1692
28501W        W46025   6.706   7.405  13.081  0.2664  0.0305 -0.0422
28502W        W46026   8.926   1.705   2.598 -0.3908  0.2434 -0.1506
28503W        W46027  15.741  10.212  13.994  0.0011  0.0104 -0.0810
28504W        W46028  14.250  17.373   4.377  0.2526  0.0123 -0.2109
28505W        W46029   1.613   7.023  11.655 -0.0893 -0.0542  0.4685
28506W        W46030   4.985  10.520  14.317  0.0116 -0.2788  0.2384
28507W        W46031  14.313   0.618  11.806 -0.0806  0.0264  0.1466
28508W        W46032   2.562  13.518  14.034 -0.3160  0.0452  0.1708
28509W        W46033  12.437   8.525   2.087 -0.2073 -0.1362 -0.0039
28510W        W46034  14.046   5.672   1.805 -0.1892 -0.1015  0.0017
28511W        W46035  16.885  12.767   2.703 -0.3924  0.1413  0.2484
28512W        W46036  15.320  13.853   1.809 -0.0853 -0.2784 -0.1848
28513W        W46037  15.459   4.620   0.464 -0.0441  0.1246 -0.1123
28514W        W46038  12.633   9.128  11.739  0.0312 -0.1059  0.1124
28515W        W46039   0.978   0.878   0.219 -0.0359 -0.0697 -0.0610
28516W        W46040   5.451  15.313   2.976  0.1110  0.0698  0.0495
28517W        W46041  14.839  16.809  14.574  0.1561 -0.3548  0.3134
28518W        W46042   9.429   0.931  15.738  0.0854  0.0345 -0.1685
28519W        W46043   1.857  11.033  13.511  0.1425 -0.1864 -0.0277
28520W        W46044  10.124  16.540   1.960  0.1456  0.2968  0.2064
28521W        W46045   1.778   8.676  14.610  0.0836  0.0652 -0.0663
28522W        W46046  16.400  12.488  15.927 -0.1710 -0.1935 -0.3448
28523W        W46047   1.783  13.201  15.977 -0.2649  0.2361  0.3591
28524W        W46048   7.979   4.486  14.732 -0.1412 -0.0865  0.0687
28525W        W46049   7.457  17.091   2.789  0.0695  0.1134  0.0527
28526W        W46050   4.408   4.811   0.889  0.0932 -0.1934  0.1808
28527W        W46051   3.389  11.385  13.062  0.1057  0.3873  0.0259
28528W        W46052   9.568  16.669   0.037  0.4486  0.0615  0.2882
28529W        W46053   5.615  13.529   5.542 -0.0453  0.0604 -0.0085
28530W        W46054  10.522   4.835   2.208 -0.4313  0.0364  0.1032
28531W        W46055   2.149   3.575   2.794 -0.0555  0.2919  0.0607
28532W        W46056   0.657   6.232  13.492  0.2204  0.1083 -0.5447
28533W        W46057   3.014  13.506   2.486  0.0607 -0.0248  0.0520
28534W        W46058   7.433   8.532  12.367 -0.1567  0.2397  0.1291
28535W        W46059  15.161  13.440  13.918 -0.1016  0.2610 -0.0822
28536W        W46060  11.002  10.563   1.493  0.2443 -0.2847  0.2044
28537W        W46061   6.439   4.667   2.107 -0.0677  0.2326 -0.0366
28538W        W46062   0.266  10.606   3.003 -0.0820  0.0560 -0.2080
28539W        W46063  11.295   6.610   2.973 -0.0639  0.1261 -0.0730
28540W        W46064   2.603   9.381   0.771 -0.1099 -0.2474 -0.0368
28541W        W46065  11.993   9.378  11.740  0.5774  0.2104  0.0551
28542W        W46066  13.829   4.213   0.603 -0.3102 -0.0038 -0.1208
28543W        W46067  10.753   2.523  14.760  0.0458 -0.0734  0.0736
28544W        W46068   1.296   2.333  15.275 -0.1126 -0.0944 -0.1251
28545W        W46069  14.635   1.773  12.550 -0.2764 -0.0568 -0.1083
28546W        W46070   8.209  12.296  14.083 -0.1783 -0.2511 -0.0242
28547W        W46071   4.530  11.460   1.251 -0.0580 -0.0270  0.0026
28548W        W46072   1.164  11.054   2.526 -0.2871  0.0129  0.0032
28549W        W46073  13.190   2.550  15.203  0.3246 -0.0715  0.2743
28550W        W46074   7.725   8.032  10.928  0.0025  0.0417  0.0150
28551W        W46075  17.797  11.554   3.541  0.2359  0.0257  0.2863
28552W        W46076  11.618  13.415  11.905 -0.0048  0.0566  0.0563
28553W        W46077   7.620   9.148  12.948 -0.0966  0.0679  0.0887
28554W        W46078   4.009   0.614  15.576 -0.0592  0.2352 -0.1909
28555W        W46079   5.280   2.127  13.592  0.0106 -0.1195  0.0220
28556W        W46080  13.440   4.926   3.914 -0.0933 -0.3095 -0.1237
28557W        W46081  13.874   2.762  12.889  0.1605  0.2083 -0.0582
28558W        W46082   7.168  10.486  14.547  0.2024 -0.0477 -0.1667
28559W        W46083   4.421   3.830  13.065  0.0122 -0.0228  0.0191
28560W        W46084   0.257   1.727  13.344 -0.2980  0.2809  0.3236
28561W        W46085   6.581  12.397   0.709 -0.0048  0.3585 -0.0264
28562W        W46086  14.040   4.324   4.537 -0.2562  0.4200 -0.1242
28563W        W46087  10.994   7.470  10.946 -0.2198 -0.2062 -0.0067
28564W        W46088  16.235   5.629  13.112 -0.1314 -0.0438 -0.0436
28565W        W46089   5.430  15.570   0.245 -0.0935  0.0010  0.1313
28566W        W46090  16.742  11.839  13.213 -0.1184 -0.1025 -0.1259
28567W        W46091   0.829  18.054  12.695 -0.2139  0.1462 -0.0688
28568W        W46092   1.704   9.155   1.679  0.0736  0.2228  0.1820
28569W        W46093  13.716   5.135   1.877 -0.0192 -0.2002 -0.0194
28570W        W46094   0.391   8.840  15.795  0.0863 -0.2481  0.4342
28571W        W46095   9.986   1.720   4.799 -0.0610  0.1613  0.1872
28572W        W46096  14.288   8.524  11.127  0.0647 -0.3795  0.1106
28573W        W46097   5.917   9.040   2.325  0.1391 -0.3098 -0.0174
28574W        W46098  17.569  12.367   2.291  0.1657 -0.0936 -0.1665
28575W        W46099   9.147   8.465   1.724 -0.1866 -0.2348  0.0412
28576W        W46100   0.616   9.510  13.170 -0.1576 -0.2330  0.3229
28577W        W46101   6.289   2.245  12.773 -0.2440  0.1943  0.3696
28578W        W46102   8.433   8.193   2.985 -0.0079  0.0796 -0.2177
28579W        W46103   1.140   2.100   0.539 -0.0271  0.1220  0.1798
28580W        W46104   5.959   2.607   3.976 -0.1539  0.1409  0.0658
28581W        W46105  16.744   9.585   3.937  0.1362  0.4990 -0.1271
28582W        W46106   5.595  17.933  11.526  0.1832  0.0910 -0.0728
28583W        W46107   5.367  13.445   3.770  0.3986 -0.2996  0.2022
28584W        W46108   5.760   6.632  10.960 -0.0125  0.0952  0.1388
28585W        W46109   5.761  10.143  14.671  0.1754  0.3044  0.3917
28586W        W46110   9.325   9.783   0.588  0.2672  0.0316  0.0878
28587W        W46111  13.452  14.282   3.460 -0.1290  0.1521  0.1110
28588W        W46112  10.079   2.779   0.167  0.4116 -0.2270 -0.1162
28589W        W46113  17.670  10.380  10.367  0.1992 -0.0664 -0.3046
28590W        W46114   2.449   3.436   0.551  0.1693  0.5502 -0.1582
28591W        W46115   8.302   3.787   4.501  0.1369  0.0043  0.2629
28592W        W46116   1.555   7.695   2.357 -0.1982 -0.0553  0.1072
28593W        W46117  13.567   7.861  12.759 -0.2016  0.2734 -0.1689
28594W        W46118  11.551  16.468   1.227 -0.0877 -0.1662 -0.0320
28595W        W46119   7.065   0.931  11.789  0.0056 -0.0912 -0.1680
28596W        W46120  15.377   5.284   4.586  0.3998  0.2413  0.1626
28597W        W46121   8.224   0.972   0.285  0.1763 -0.1739  0.1363
28598W        W46122   6.505   2.153  11.640  0.0756  0.1505  0.2196
28599W        W46123   9.450   6.708   0.250  0.0807  0.3698 -0.2458
28600W        W46124  10.869   3.890  12.669 -0.2239 -0.0247 -0.5134
28601W        W46125  14.769   5.643   0.873 -0.1390 -0.0220 -0.3671
28602W        W46126   7.832   3.724   4.374  0.0260 -0.3071 -0.1320
28603W        W46127  11.952   8.115   2.697  0.3764 -0.2623  0.0434
28604W        W46128  15.332   2.133  14.130 -0.2036  0.0959 -0.0377
28605W        W46129  13.558  16.045  14.833  0.0814 -0.1277 -0.1745
28606W        W46130   0.055   8.701  15.132  0.0894 -0.1328  0.0136
28607W        W46131   7.771   5.016  11.462 -0.1743  0.1546 -0.0130
28608W        W46132   7.774   7.616   4.057  0.0034  0.2509 -0.0428
28609W        W46133  11.628   1.000  11.986 -0.2573 -0.1437  0.2266
28610W        W46134  17.827   9.719  13.731 -0.2546 -0.1050  0.2242
28611W        W46135   1.071   7.974   3.948  0.0767 -0.0370 -0.0038
28612W        W46136  12.806  10.740   1.086  0.0881 -0.1065 -0.1376
28613W        W46137   1.624  13.442   2.624  0.0884  0.0024  0.2440
28614W        W46138   9.724   0.954   3.143 -0.2769  0.1042  0.2731
28615W        W46139   9.764  11.333  14.134 -0.2126  0.0873 -0.0452
28616W        W46140   1.742  11.054   3.789 -0.0614  0.0834  0.2182
28617W        W46141  11.705   8.888   5.011 -0.0601  0.0102 -0.1613
28618W        W46142   0.306  10.634  13.069  0.0588 -0.2218  0.1245
28619W        W46143  15.077  13.750   2.281 -0.0331 -0.0842 -0.0814
28620W        W46144  10.763   0.536   2.661  0.0699  0.2348 -0.3332
28621W        W46145   9.008   0.018  14.627  0.2422 -0.0801  0.0622
28622W        W46146   1.968   5.043   1.991 -0.1366  0.0531  0.1749
28623W        W46147   5.929  11.515   2.107  0.2562  0.1586  0.0713
28624W        W46148   5.952   4.044   4.587  0.2081  0.0992 -0.0039
28625W        W46149   1.940  17.889   2.975  0.1173 -0.3528  0.0431
28626W        W46150   2.647  14.818  12.866  0.1073  0.1321  0.1727
28627W        W46151   7.989   4.722   3.040 -0.2902 -0.2073  0.0726
28628W        W46152   2.622   2.918   2.496 -0.0702  0.1786  0.0204
28629W        W46153  16.086  14.526  13.683  0.2620 -0.1669  0.0177
28630W        W46154  15.299  13.009  13.597 -0.2097  0.0456 -0.0315
28631W        W46155   3.195   4.792   0.287 -0.0477 -0.2331  0.3102
28632W        W46156  17.140  11.733   2.923  0.1688  0.0912 -0.1238
28633W        W46157   5.060   0.825  10.432 -0.1464 -0.1106  0.0360
28634W        W46158   0.305  15.008  14.980 -0.0062  0.1119  0.4045
28635W        W46159   7.241   1.420  11.867  0.1186  0.0553  0.2464
28636W        W46160  17.739   1.152  14.777 -0.0618 -0.0598  0.2922
28637W        W46161  12.713  11.942   1.919  0.2498 -0.1257 -0.2117
28638W        W46162  16.505  17.582   3.139  0.1432 -0.1511 -0.0161
28639W        W46163   4.116  16.285  15.770 -0.0715  0.2067  0.1470
28640W        W46164  18.150  11.760   4.764  0.5686  0.0329 -0.0557
28641W        W46165  18.173   1.566   1.226 -0.1102  0.1021  0.2897
28642W        W46166  15.632  10.397   2.460 -0.3119  0.1059 -0.0535
28643W        W46167  15.031   7.952  13.321  0.1939  0.1379 -0.2331
28644W        W46168  15.831  18.093   3.339  0.0061 -0.0509 -0.0886
28645W        W46169   7.208   4.188  11.479 -0.2180  0.1825 -0.1335
28646W        W46170  13.597  12.126   1.909  0.2124 -0.0559 -0.0315
28647W        W46171  17.748   2.190   1.964 -0.1226  0.1414  0.4102
28648W        W46172   1.957  13.724   4.101  0.2663  0.0756  0.0152
28649W        W46173   9.674  12.413  13.847  0.2756 -0.0769  0.1869
28650W        W46174   8.813  13.790   2.269  0.1246  0.1007 -0.1533
28651W        W46175   2.410   1.066   1.638  0.0809 -0.1058 -0.3105
28652W        W46176   1.722   6.811  14.916  0.0093 -0.2228  0.1249
28653W        W46177  13.475  13.310   1.152  0.0410 -0.0810 -0.0823
28654W        W46178   2.052  10.877  13.060  0.0276 -0.2299 -0.1352
28655W        W46179  10.080  11.768  12.731 -0.0260 -0.0263  0.3270
28656W        W46180  18.193  10.584  13.974 -0.1627 -0.0688 -0.1445
28657W        W46181   7.319   8.644  11.509  0.1393 -0.0586  0.1730
28658W        W46182  12.369  16.295  16.090 -0.1068  0.1662  0.2046
28659W        W46183  13.611   3.160   0.524 -0.2639  0.3730 -0.0284
28660W        W46184  17.038  11.586  14.451  0.1473 -0.0286  0.1770
28661W        W46185   1.570  11.039   3.312 -0.2545 -0.3169 -0.2421
28662W        W46186  12.273  11.173   2.995  0.1064 -0.1670  0.0647
28663W        W46187   8.271  17.139   4.023  0.1098  0.2057  0.0291
28664W        W46188  13.740  12.928   1.544  0.1070  0.0243 -0.0937
28665W        W46189  17.206   7.493   3.651 -0.3356 -0.3196  0.1855
28666W        W46190   6.590   5.656   4.249 -0.0770 -0.4298 -0.1116
28667W        W46191   5.682  17.219  15.675 -0.2575  0.0340  0.1640
28668W        W46192   2.673  15.414  11.633  0.2387 -0.0482 -0.0215
28669W        W46193   6.563   5.004  14.224  0.0669  0.0900 -0.1523
28670W        W46194   7.434  10.270  12.399  0.2364  0.1213  0.1220
28671W        W46195   1.884   0.279   1.009  0.2180  0.3298 -0.0331
28672W        W46196   2.491   8.156  16.029 -0.0455  0.1016  0.1376
28673W        W46197  16.809   8.547  14.224  0.2436 -0.1384 -0.0188
28674W        W46198   1.502   6.607  13.777 -0.2466 -0.0445  0.0519
28675W        W46199   0.694  16.184   3.290 -0.3069 -0.0257 -0.0499
28676W        W46200   5.124  15.996  11.586  0.2063 -0.1258 -0.0029
28677W        W46201  11.593  16.780   4.835  0.1745 -0.1064  0.0041
28678W        W46202  12.031   4.825  14.187 -0.1048  0.0864 -0.2645
28679W        W46203   9.577  13.834   4.727 -0.1836  0.1039  0.0703
28680W        W46204  17.211  16.150  12.522  0.0274  0.0015 -0.0273
28681W        W46205   9.723   4.139  14.712  0.2571  0.1746 -0.1420
28682W        W46206  17.987  15.753   0.028 -0.2078 -0.1678  0.2613
28683W        W46207   5.506   8.382   0.653  0.0648 -0.0163  0.1615
28684W        W46208  16.713   1.275   2.688  0.1507 -0.0884  0.0638
28685W        W46209   8.231   2.118   1.509  0.3109  0.3664  0.0707
28686W        W46210   1.625   5.687   0.013  0.1278 -0.2066 -0.1663
28687W        W46211   8.862  14.432   3.507 -0.0816  0.0415 -0.1282
28688W        W46212   3.290   6.948   1.581 -0.0464  0.1209 -0.1176
28689W        W46213  12.666  10.232   3.021  0.0953  0.2204 -0.0519
28690W        W46214   2.882   8.817   3.789  0.3862  0.1358 -0.0320
28691W        W46215   6.403   3.055   0.879 -0.1660 -0.3424 -0.3331
28692W        W46216   9.812  10.113   1.213  0.1128 -0.1222  0.2708
28693W        W46217  12.616  11.781  10.965 -0.0295  0.0031  0.1732
28694W        W46218  14.289  16.212  14.791  0.0067  0.0022 -0.2081
28695W        W46219  17.279  14.458  14.110 -0.0188 -0.0212 -0.1623
28696W        W46220   9.315   6.455  11.558 -0.0156 -0.0637  0.2302
28697W        W46221  17.968   3.290  12.238 -0.1063  0.1889  0.2216
28698W        W46222   3.503   4.227   1.455  0.2396 -0.1983  0.0932
28699W        W46223   3.072  16.148  12.317  0.2227  0.2089  0.1289
28700W        W46224  11.837   6.716   2.499 -0.0673 -0.0273 -0.0498
28701W        W46225   8.613   8.645  14.319  0.0011 -0.4495 -0.0023
28702W        W46226   6.920   4.630  13.229  0.2812  0.1367  0.3387
28703W        W46227   4.206  17.482   1.132  0.0328  0.0210  0.1049
28704W        W46228  13.362   1.977  16.007  0.2677 -0.0548 -0.0040
28705W        W46229   6.042   0.189   1.751 -0.0183  0.0799 -0.0087
28706W        W46230   2.951  12.056  14.885 -0.1465 -0.0159 -0.0374
28707W        W46231  12.988  13.280  12.954 -0.0813  0.0842  0.4553
28708W        W46232   8.293   5.372   4.376 -0.2807 -0.2130  0.1252
28709W        W46233   8.170   5.286   1.286 -0.2291  0.0633  0.0118
28710W        W46234   8.946  15.741   2.431  0.3639 -0.1557 -0.0105
28711W        W46235  14.988  15.323   3.618 -0.5486 -0.3081  0.0244
28712W        W46236  11.907  16.366   2.813 -0.1786 -0.1154 -0.2557
28713W        W46237   9.439  15.989  15.100 -0.0364  0.2791 -0.2837
28714W        W46238   7.919   7.838  11.342 -0.1473 -0.0397 -0.1732
28715W        W46239  12.333  15.842   1.013 -0.2075  0.2426  0.0096
28716W        W46240   3.402   8.043   5.670  0.1287 -0.0427 -0.0511
28717W        W46241  15.512  18.165   5.097  0.1602  0.1444 -0.0456
28718W        W46242   3.073   6.371  12.151 -0.0906 -0.0320 -0.2871
28719W        W46243   9.849  17.590  14.455 -0.2322  0.0073 -0.2827
28720W        W46244  16.769   0.175  13.358 -0.1308  0.2306  0.3755
28721W        W46245   3.777  10.023  13.009 -0.0313 -0.0751  0.0075
28722W        W46246   4.177  11.011   1.147 -0.2517  0.0786 -0.0394
28723W        W46247   7.742   5.735  11.887  0.1478  0.1568  0.0640
28724W        W46248  15.406  17.055   3.848  0.1204  0.0323 -0.0877
28725W        W46249  12.634  12.053   0.382 -0.0988 -0.0090 -0.1856
28726W        W46250   2.375  11.178   1.670 -0.0492  0.2338  0.0206
28727W        W46251  11.449   1.136   0.499 -0.0551  0.0087  0.0356
28728W        W46252  13.649   8.541   3.908  0.2157 -0.2081 -0.1942
28729W        W46253  13.407  11.221  13.922  0.0825 -0.2264  0.0562
28730W        W46254   9.124  12.619   0.558 -0.3913 -0.2412  0.0835
28731W        W46255   4.426   6.698   2.595  0.2506 -0.1959 -0.3743
28732W        W46256  11.059  17.561  13.476 -0.1391 -0.0981  0.1476
28733W        W46257   9.764  15.286   0.290 -0.1139  0.1035  0.1097
28734W        W46258   6.381   9.983   3.897  0.1624  0.0578 -0.2618
28735W        W46259  15.518  17.843  13.986  0.1342 -0.0429  0.1470
28736W        W46260   0.331  16.723  12.339 -0.0864 -0.1662  0.0615
28737W        W46261   9.298   6.682   1.746 -0.1042 -0.2246 -0.1036
28738W        W46262   8.403   2.913  12.985  0.0147 -0.0865  0.1737
28739W        W46263   9.602   0.842   0.632 -0.1272  0.0895  0.0977
28740W        W46264   6.848   9.235  12.160 -0.1362 -0.3657  0.0121
28741W        W46265   5.039  12.949  12.745 -0.1313  0.1798 -0.1075
28742W        W46266  16.797  16.492   1.395 -0.1313 -0.2380  0.0120
28743W        W46267   9.878  14.328  13.531 -0.4802  0.2483 -0.2196
28744W        W46268   5.790   3.645  15.142 -0.0439  0.1781  0.2724
28745W        W46269   0.727   9.379   3.187 -0.0219 -0.3724  0.0194
28746W        W46270   5.333  16.773  14.849  0.0785  0.2852 -0.2278
28747W        W46271   4.003   6.354  11.493 -0.1845 -0.0987 -0.0180
28748W        W46272  17.861   7.958   3.221  0.0163  0.1871 -0.4479
28749W        W46273   8.867  11.492   0.759  0.0637  0.2552 -0.0005
28750W        W46274   6.051  12.126  12.312 -0.0542 -0.3268  0.1443
28751W        W46275   4.552   9.105  13.676 -0.0652  0.0782 -0.0225
28752W        W46276  17.396   3.829  16.064  0.0414 -0.2432  0.2023
28753W        W46277  14.204  14.464  15.252  0.0237 -0.2334  0.1465
28754W        W46278  13.321   9.274   1.150  0.0892  0.0495  0.0012
28755W        W46279   7.911  14.062   3.344  0.1624 -0.0003  0.1819
28756W        W46280  12.958   7.565   0.260 -0.0520 -0.2208 -0.0649
28757W        W46281  13.203  12.271  13.198 -0.2882 -0.2024  0.0929
28758W        W46282   8.867  17.460   3.594 -0.1415  0.0657  0.0294
28759W        W46283   7.597  16.548  13.006  0.3319  0.1267 -0.3158
28760W        W46284   7.252   5.573  12.616  0.1139  0.0584 -0.5113
28761W        W46285  10.422   7.966   2.203  0.1813  0.0025 -0.2633
28762W        W46286   9.972  11.441  14.712 -0.4724  0.0852 -0.1793
28763W        W46287   2.487  12.205   1.598 -0.1303  0.0086  0.1070
28764W        W46288   5.468  15.602  11.558 -0.0290  0.2415 -0.1184
28765W        W46289  15.846   8.964  10.480  0.0490 -0.3722 -0.1414
28766W        W46290   9.353   8.120  12.130  0.4672  0.0566  0.1520
28767W        W46291   5.574   1.277  14.947 -0.0599  0.0631  0.0417
28768W        W46292  10.467  10.039  11.476 -0.1435  0.2598 -0.2345
28769W        W46293  15.484   8.272  13.363  0.1005 -0.2167  0.3100
28770W        W46294  11.039  14.068  14.246  0.2815 -0.0724  0.0163
28771W        W46295  15.637  17.174   2.006  0.0872 -0.0875 -0.1058
28772W        W46296   3.363   8.614  13.063  0.2662 -0.2306  0.1570
28773W        W46297   0.685   6.275   3.409 -0.0240 -0.1115  0.2569
28774W        W46298  14.493  13.980  10.291  0.3260  0.1337 -0.1372
28775W        W46299   9.322  11.617  14.218 -0.3598  0.1221  0.0372
28776W        W46300  15.345  15.666   0.187 -0.1088 -0.0378  0.1537
28777W        W46301   9.566  12.582   3.849 -0.1583  0.1119  0.1953
28778W        W46302   2.568   7.277   4.111 -0.0418  0.0609  0.3993
28779W        W46303  11.277   8.027   4.685 -0.0933 -0.1972  0.0871
28780W        W46304  11.596  15.045   1.844  0.1827 -0.0373 -0.2184
28781W        W46305  10.107  16.761   0.441 -0.0656 -0.4072 -0.0339
28782W        W46306  17.252  14.498   2.432 -0.1165  0.1575 -0.3412
28783W        W46307  15.842  14.449  12.560 -0.1851  0.2302  0.1676
28784W        W46308  15.021   1.579   4.107  0.0447  0.0212  0.0959
28785W        W46309   5.316   3.374   0.359  0.0773 -0.2335  0.1553
28786W        W46310   8.758   1.326  11.521 -0.2222 -0.0311  0.1312
28787W        W46311   3.649   5.714  15.478 -0.2431  0.3096  0.1938
28788W        W46312   9.615  17.847  15.503 -0.1708 -0.2144 -0.1863
28789W        W46313   7.440  13.210   3.299 -0.2582  0.1164 -0.2684
28790W        W46314  10.074  14.952  13.563 -0.2274  0.0474 -0.1342
28791W        W46315   3.831  11.399   2.019  0.0279 -0.0771  0.1175
28792W        W46316   8.228  17.654  11.755  0.1742  0.0038  0.0633
28793W        W46317   4.303   3.556  11.827 -0.4139  0.0188 -0.1426
28794W        W46318  14.467   1.207  14.981 -0.2448 -0.3492 -0.1050
28795W        W46319  11.791  14.327   5.039  0.0426  0.3873 -0.2491
28796W        W46320   6.749   0.246  12.194 -0.4219  0.2163  0.0120
28797W        W46321  14.404   9.637  12.431  0.2855 -0.2325  0.3691
28798W        W46322  15.001  15.092  13.223  0.0438  0.0042  0.2234
28799W        W46323   2.679  10.725   1.613  0.3283  0.2120 -0.0734
28800W        W46324  11.069  12.899   0.522 -0.3455 -0.3138 -0.0423
28801W        W46325   4.074  15.447  12.196  0.2109 -0.0926  0.1047
28802W        W46326  15.616   1.835   5.301 -0.3496  0.0163  0.2752
28803W        W46327   7.461   9.619   0.311  0.2832  0.3719  0.1215
28804W        W46328   0.438  11.795   3.745 -0.1437 -0.0915 -0.0620
28805W        W46329   9.640  16.524  15.283  0.1214  0.0517 -0.3212
28806W        W46330  10.126   5.414  11.208 -0.1031 -0.1648  0.0849
28807W        W46331   9.865   7.349   0.737 -0.1943 -0.0663 -0.0687
28808W        W46332  10.735   2.257   0.620  0.2284 -0.3698  0.0843
28809W        W46333  16.023   5.798  15.147  0.7589 -0.0613  0.2593
28810W        W46334  13.078   6.623  15.507  0.0426 -0.5120 -0.1586
28811W        W46335   0.033   0.803  11.729  0.2586  0.0928 -0.3049
28812W        W46336   1.066   3.661   1.522  0.3486 -0.0817  0.0731
28813W        W46337   6.332   9.174  12.981 -0.2279 -0.2709  0.3137
28814W        W46338   1.324   1.598   2.106 -0.2155  0.2940  0.1524
28815W        W46339  13.502   7.799  15.032 -0.2064 -0.5442  0.1336
28816W        W46340   5.183   2.481   4.704 -0.3085 -0.1285 -0.0805
28817W        W46341  10.846   1.429   2.678  0.3167  0.0425  0.2397
28818W        W46342  15.157   2.137   3.368 -0.3126  0.2211 -0.1390
28819W        W46343   3.406  14.451  14.151 -0.0997  0.1704  0.2036
28820W        W46344  14.683  12.100   1.779 -0.3690 -0.0448 -0.1438
28821W        W46345  14.237  11.563  13.342  0.0305  0.2023 -0.2507
28822W        W46346   4.067  11.608  11.392 -0.0862  0.1354  0.0880
28823W        W46347  14.013   9.352  12.610  0.0812  0.0137  0.1058
28824W        W46348  14.433   7.301  12.358  0.0737  0.1468 -0.0671
28825W        W46349   5.134  11.646   3.245 -0.0651  0.0483  0.1678
28826W        W46350   7.064   9.133  11.479  0.4062 -0.5480  0.1284
28827W        W46351   0.598  18.096  14.402  0.0130  0.0529 -0.1218
28828W        W46352   7.660  11.530   0.317  0.2451  0.3099  0.2383
28829W        W46353   5.189   4.440   5.305  0.1038  0.0203 -0.2178
28830W        W46354   4.106   0.530  11.920 -0.1084  0.4362 -0.0126
28831W        W46355   8.574   4.157  13.776  0.4387  0.0889  0.0487
28832W        W46356  16.463   4.214   1.400 -0.1266  0.2665 -0.0759
28833W        W46357   6.765  15.940   4.006  0.0985  0.0687  0.0132
28834W        W46358  17.721   6.951   3.605  0.0629 -0.2397  0.1582
28835W        W46359   1.979  10.788   3.438 -0.0041 -0.2960  0.1928
28836W        W46360   2.346   2.034   3.327 -0.0197  0.1476 -0.0653
28837W        W46361   3.190  14.596  10.676  0.2352  0.1291 -0.1006
28838W        W46362   7.158  14.598   4.241 -0.3010 -0.0375  0.3404
28839W        W46363   9.801  15.320   2.528 -0.2175 -0.2482  0.0414
28840W        W46364   8.342  12.602   2.400  0.2015  0.1066 -0.1036
28841W        W46365  17.403   5.727  16.055  0.1086 -0.0558 -0.0191
28842W        W46366   6.291   8.998  13.667  0.1690  0.1438 -0.1700
28843W        W46367  12.307  11.204   5.874 -0.2215  0.0324 -0.1047
28844W        W46368   3.472   1.651  15.295  0.2666  0.0191 -0.0695
28845W        W46369   3.749  15.235   3.377  0.1745  0.1461  0.1517
28846W        W46370  12.643   8.350   3.977  0.2265  0.1352  0.5148
28847W        W46371  15.707   3.981   1.686 -0.0312 -0.0768  0.3106
28848W        W46372  11.240   4.531  11.980 -0.0511  0.4974  0.0993
28849W        W46373  18.076   9.203  15.072  0.2800  0.1770  0.3493
28850W        W46374  17.264  12.333  12.503 -0.2898  0.1635  0.1914
28851W        W46375  14.916   6.811  11.441 -0.1375  0.4898  0.0259
28852W        W46376   6.945  10.251   4.805 -0.2182  0.1201  0.0776
28853W        W46377  12.399   6.897   0.215 -0.2140  0.1797 -0.0504
28854W        W46378  16.762   9.015   3.238 -0.0554  0.0278  0.3790
28855W        W46379   8.454  11.463   3.711 -0.1253 -0.1252 -0.1705
28856W        W46380  12.974  17.056   0.411 -0.0073  0.2342 -0.2010
28857W        W46381   5.265   7.263  13.310 -0.0296  0.2542  0.1447
28858W        W46382  10.421  16.965   3.849  0.1475 -0.3059 -0.0815
28859W        W46383   2.266   8.935  13.163  0.2482 -0.0486 -0.2608
28860W        W46384   7.870   4.687  12.981 -0.0904  0.0484  0.1072
28861W        W46385   6.013   1.893  14.805  0.2499 -0.0617  0.0265
28862W        W46386   6.198  11.801  14.504 -0.1798  0.0876  0.1024
28863W        W46387   5.274   6.064  15.926 -0.1537 -0.1981  0.0970
28864W        W46388  12.581   1.781   4.254  0.0634  0.0308 -0.0162
28865W        W46389   2.117   5.277   0.741  0.3890 -0.0463  0.0386
28866W        W46390  10.562  17.741   0.650 -0.0529  0.1887 -0.2609
28867W        W46391   0.145  11.019  14.086 -0.0589 -0.1176 -0.1471
28868W        W46392   4.294   9.922  13.131  0.2797  0.0454 -0.3056
28869W        W46393   5.909  10.644  15.106 -0.0493  0.0718 -0.1328
28870W        W46394   3.083  10.849  11.298 -0.2146 -0.0517 -0.2791
28871W        W46395  12.103  11.884   4.932  0.0051  0.1364  0.0739
28872W        W46396   2.304  14.938  13.266 -0.1324  0.2572  0.0821
28873W        W46397   1.133   7.628   0.650  0.0041 -0.1108  0.2318
28874W        W46398   6.959  14.212  14.423 -0.1668 -0.1264 -0.2070
28875W        W46399  16.335  17.413  12.836 -0.1521  0.2767 -0.2151
28876W        W46400  11.145  12.576  12.031  0.1499 -0.2431 -0.0843
28877W        W46401  17.217   9.124  12.821 -0.0818 -0.0519  0.0326
28878W        W46402   3.738   3.295   0.918  0.2264 -0.2076  0.0529
28879W        W46403  16.513  13.496   2.734 -0.0349  0.0211 -0.1512
28880W        W46404  13.202  10.367   4.188  0.2290 -0.1625  0.0779
28881W        W46405   5.871  15.810  11.367 -0.1132  0.0501  0.2237
28882W        W46406  14.910   9.435  12.107  0.0575 -0.0151 -0.1948
28883W        W46407   3.784   2.278  11.662  0.1583  0.1787 -0.1406
28884W        W46408   1.922  11.544   3.862 -0.0213  0.0215 -0.0900
28885W        W46409  17.275   9.157  14.935  0.1212  0.3534  0.1326
28886W        W46410  14.300   1.239   4.744 -0.1326  0.0603 -0.3374
28887W        W46411  16.051  11.123   3.060 -0.3208 -0.1897 -0.2482
28888W        W46412  13.140   6.068  12.681  0.2966 -0.2036  0.1716
28889W        W46413  13.137  10.445   0.063  0.2221  0.1829  0.0691
28890W        W46414  10.050  16.062  10.269 -0.0027 -0.1765  0.3114
28891W        W46415  16.197   4.028   0.859 -0.0913 -0.0124  0.1720
28892W        W46416   3.858  11.378   3.542 -0.0588 -0.2184 -0.0199
28893W        W46417   9.486   4.650  14.012 -0.0035  0.3051 -0.2313
28894W        W46418  10.947  12.141   4.642  0.0159 -0.1523 -0.1711
28895W        W46419   4.186  17.754  10.862  0.2701  0.1555  0.0340
28896W        W46420  10.957  11.527  11.853  0.3935 -0.1584 -0.2208
28897W        W46421  13.084   4.970  10.602  0.1194  0.2585 -0.0574
28898W        W46422   5.885   0.942  13.111 -0.0758  0.0296  0.2481
28899W        W46423  11.990  13.315  15.465  0.1654 -0.3993  0.1188
28900W        W46424  17.216   4.630  14.015  0.0999 -0.0563 -0.1907
28901W        W46425   3.304   7.564   2.822 -0.0389 -0.3345 -0.0128
28902W        W46426  16.112  17.335   2.988  0.1576 -0.0602  0.0539
28903W        W46427  10.475  11.845   1.765  0.2897  0.4259 -0.1815
28904W        W46428  13.924   7.421   4.461 -0.3175  0.0472 -0.1231
28905W        W46429   6.366  11.308  14.676  0.0258  0.1561  0.1866
28906W        W46430  15.637   3.778   4.237  0.1234 -0.2262 -0.1950
28907W        W46431  12.249   3.651  13.416  0.0863  0.3337  0.1196
28908W        W46432  17.597   9.254  12.438 -0.3367  0.1917  0.2894
28909W        W46433   2.074  13.163   3.152  0.0838 -0.0645 -0.2698
28910W        W46434   4.650   0.249   0.705 -0.4237  0.0936  0.1939
28911W        W46435  13.188  12.649  12.372  0.1493 -0.0847 -0.1190
28912W        W46436  11.542   2.612   4.018 -0.2653 -0.1315 -0.0175
28913W        W46437   5.451   8.100   0.262  0.3358  0.1475  0.1991
28914W        W46438   8.880  16.027   3.920  0.1031  0.1108  0.0668
28915W        W46439   1.000   0.231  14.593 -0.0424 -0.0802  0.2776
28916W        W46440  16.632  11.934   3.982 -0.0352  0.1796  0.1103
28917W        W46441   8.997   7.383   0.712  0.1320  0.1183  0.4370
28918W        W46442   2.213   5.451   3.969 -0.0337  0.1690  0.0839
28919W        W46443  13.481   9.933   4.105 -0.0070 -0.0003  0.1131
28920W        W46444  16.837   6.917  12.370 -0.0573 -0.1580  0.5017
28921W        W46445  14.411   3.454   0.983 -0.1090 -0.1155  0.0123
28922W        W46446  16.214  10.784   4.550 -0.3001 -0.3534  0.4052
28923W        W46447   1.589  15.411  13.045  0.3748 -0.4696  0.0620
28924W        W46448   9.456   3.568   2.835 -0.2514  0.0209 -0.1103
28925W        W46449  11.295  12.237  13.896  0.1778  0.1527 -0.1753
28926W        W46450   3.163  16.860  11.345  0.1503  0.1554 -0.1304
28927W        W46451  10.796   4.418  12.690 -0.3759 -0.1501  0.1298
28928W        W46452   1.455   4.502  13.222 -0.0834  0.3865  0.0982
28929W        W46453   7.214  16.281  15.875  0.0599  0.2508 -0.0531
28930W        W46454  13.579   5.206   4.760  0.0674 -0.0447  0.0486
28931W        W46455  10.875   4.589  13.179  0.1926  0.3158  0.2270
28932W        W46456  10.461   3.479   2.782 -0.0017  0.1069  0.1060
28933W        W46457  17.930  11.186   1.847  0.1888 -0.0504 -0.0484
28934W        W46458   9.278  14.228  12.723 -0.3698  0.1130 -0.2278
28935W        W46459   4.045  12.631   4.535 -0.0995  0.0326 -0.0127
28936W        W46460  13.521  11.026   4.682 -0.1648 -0.0210 -0.0255
28937W        W46461   5.888  17.206  11.087 -0.3294 -0.1412  0.3507
28938W        W46462  10.996   0.547   1.756 -0.1278 -0.3242  0.0337
28939W        W46463   2.703  12.940  11.292 -0.1110 -0.1931 -0.3291
28940W        W46464   0.571   2.588   5.128 -0.0983 -0.2448  0.1399
28941W        W46465  17.615   7.098   2.074  0.2078  0.0320  0.0424
28942W        W46466  17.655   2.242  15.096  0.3976 -0.1874  0.0474
28943W        W46467   7.702   3.485  16.010  0.0237  0.0473  0.0105
28944W        W46468   6.609   0.496  14.532 -0.2421  0.2839  0.3670
28945W        W46469  10.256  13.569  15.939  0.2048  0.1632  0.1235
28946W        W46470  12.619  14.681   3.182  0.1480 -0.2164  0.0385
28947W        W46471   2.579   6.092  14.562 -0.1508  0.0471 -0.0176
28948W        W46472  17.326  15.413   4.312  0.0596 -0.2334  0.0326
28949W        W46473  14.461   6.858  15.730 -0.1713  0.1759  0.2046
28950W        W46474  17.867  10.066  11.193 -0.1476  0.1959 -0.0584
28951W        W46475  12.226   7.709  12.549  0.1578  0.0553 -0.1198
28952W        W46476   8.550   6.464  10.608 -0.2105 -0.1293 -0.1644
28953W        W46477   8.416  17.614   3.964 -0.0892  0.0570 -0.0220
28954W        W46478  13.337  12.560   1.691  0.0471  0.2601  0.0397
28955W        W46479   9.177   8.428   2.259 -0.0264  0.0078 -0.0800
28956W        W46480   7.345   3.363   6.133 -0.1705 -0.0872 -0.0835
28957W        W46481   1.283  15.518  15.702 -0.1632 -0.2022  0.0275
28958W        W46482   9.452  12.976   2.571  0.1068 -0.1250  0.1908
28959W        W46483   1.091   2.949  11.931  0.0918  0.0359  0.3299
28960W        W46484  13.564   2.543   4.023 -0.2079  0.2261 -0.2343
28961W        W46485  16.902   0.081   2.732  0.1092 -0.2477 -0.0986
28962W        W46486  10.143   4.465  13.021 -0.1465 -0.1338  0.0324
28963W        W46487   9.605   9.286  16.066  0.0272 -0.1572  0.4948
28964W        W46488   9.770  14.773   3.801 -0.2687 -0.1379  0.2731
28965W        W46489   0.236  10.051  15.434 -0.0677 -0.2028  0.0522
28966W        W46490  13.420  15.423  13.837 -0.0501  0.1189  0.3903
28967W        W46491   9.864   9.971  14.481  0.2255  0.0317  0.1198
28968W        W46492  14.192   9.471  14.711  0.0470 -0.0282  0.2366
28969W        W46493   7.048  16.251  15.383 -0.0059 -0.1141 -0.1461
28970W        W46494   8.598   1.124  12.083 -0.0763  0.0836  0.1098
28971W        W46495   5.741   7.633   4.139  0.0169 -0.1494  0.0360
28972W        W46496   9.170   0.387   2.880 -0.1278  0.0114 -0.2662
28973W        W46497   8.361   9.569  13.553 -0.1727 -0.1725 -0.1399
28974W        W46498  10.696  10.966  10.994 -0.1073  0.4462  0.2315
28975W        W46499   8.796   6.755   2.862 -0.3435  0.2249 -0.0572
28976W        W46500  13.731   1.341  12.702  0.1447  0.1309 -0.0302
28977W        W46501   4.385  15.912   4.137  0.0948 -0.4098 -0.0712
28978W        W46502   6.290  13.704  11.540  0.0302 -0.1363  0.3678
28979W        W46503   4.875  13.356  15.719  0.2425  0.1815 -0.4532
28980W        W46504  13.110  13.132  16.040 -0.1560 -0.1073 -0.0740
28981W        W46505  11.118   5.797   3.437  0.2089  0.1800  0.0161
28982W        W46506   1.219   6.252   2.026  0.1417  0.3358 -0.0069
28983W        W46507   7.844  12.489  14.849  0.0685  0.3631 -0.3913
28984W        W46508  13.099   2.738  12.466  0.0048  0.0810 -0.1554
28985W        W46509   0.148   2.006   3.252  0.0033  0.0468 -0.0974
28986W        W46510   6.622   0.821   1.434 -0.0463 -0.1155 -0.1734
28987W        W46511  13.124  10.882  14.167 -0.1439 -0.0235 -0.2195
28988W        W46512   6.192  10.556   2.378 -0.0849  0.0315 -0.2182
28989W        W46513   2.660   4.218   4.300 -0.2090 -0.2367 -0.0618
28990W        W46514   6.940  17.267  11.962 -0.0286 -0.4656  0.2350
28991W        W46515   0.145   4.762   4.980 -0.0352 -0.1981  0.0656
28992W        W46516  17.958  12.881  14.937  0.2127  0.1441  0.1995
28993W        W46517  15.495  11.368   0.075  0.4757 -0.1350 -0.0803
28994W        W46518   4.582  12.821  11.822  0.0844 -0.0864 -0.0487
28995W        W46519   5.258   4.605   1.913  0.2053  0.0941 -0.2751
28996W        W46520  12.523   8.693   0.861  0.1270  0.2065  0.0123
28997W        W46521  17.692   7.381  11.217 -0.0601  0.0603  0.1400
28998W        W46522   4.887  15.602  15.511 -0.3658 -0.0820 -0.4758
28999W        W46523   6.986   8.149   4.397  0.1642 -0.1478  0.0596
29000W        W46524   7.251  13.563   1.302  0.1697 -0.0311 -0.0530
29001W        W46525   1.771   6.327   3.579 -0.0268 -0.2671 -0.0623
29002W        W46526  15.476   4.737  14.007 -0.0511  0.2985  0.4324
29003W        W46527  12.290  12.360   1.846 -0.1059  0.2776 -0.1736
29004W        W46528  14.684  18.048   3.803 -0.2034  0.1932 -0.1387
29005W        W46529  13.412  16.851  10.282  0.1822 -0.0243  0.1665
29006W        W46530  16.296   8.745   3.423 -0.0111  0.3171 -0.4108
29007W        W46531   8.158  17.446  13.317  0.1147 -0.2629 -0.3250
29008W        W46532   9.111   3.153   1.657 -0.0001 -0.1135 -0.1330
29009W        W46533   7.654  17.587   2.709 -0.4179  0.5292 -0.0503
29010W        W46534  14.031   0.765   2.955  0.1008  0.3014 -0.0937
29011W        W46535   5.693  14.317   5.281  0.3171 -0.0143 -0.0085
29012W        W46536   4.941   2.025  15.718  0.1876 -0.1826  0.2530
29013W        W46537  12.076  11.108  11.209 -0.0583  0.1874 -0.0490
29014W        W46538   3.272   6.886  12.058  0.3190  0.0331 -0.3464
29015W        W46539  10.997   6.721  13.113  0.1698  0.1240 -0.2585
29016W        W46540  11.926   0.007   3.476  0.1973 -0.2947 -0.3228
29017W        W46541  16.949  17.081   4.137  0.1784  0.1312  0.1631
29018W        W46542   5.223   2.331  14.843 -0.1641 -0.0598 -0.0049
29019W        W46543   1.688  11.847   5.911 -0.1006  0.0320 -0.0210
29020W        W46544   8.918   1.501  12.311 -0.1347 -0.2098 -0.1737
29021W        W46545   7.738  10.263  15.057 -0.1277  0.2505  0.1092
29022W        W46546   7.005   2.871  15.342 -0.1453  0.0573  0.1497
29023W        W46547   1.369   6.021   2.512  0.3041  0.0893  0.0948
29024W        W46548  12.564   7.573   3.115 -0.1053 -0.0083  0.2195
29025W        W46549  10.573   6.317   3.917 -0.2669 -0.0285  0.0417
29026W        W46550  16.946   8.162   3.362 -0.0872 -0.0122 -0.1114
29027W        W46551   2.825   0.082   2.201 -0.0454 -0.0553  0.1243
29028W        W46552   9.599   4.689   3.027 -0.2033  0.1708 -0.1419
29029W        W46553  15.025  16.264  12.495  0.4755  0.0260 -0.1013
29030W        W46554   3.593   4.475   0.343  0.1472  0.1745 -0.0291
29031W        W46555  16.750  12.281  11.616  0.1477  0.2826 -0.1989
29032W        W46556  11.947  12.316   3.249 -0.1388  0.1557  0.1439
29033W        W46557   9.759  14.098  15.263  0.0575 -0.0757 -0.0852
29034W        W46558   2.368   3.502  10.183 -0.0931 -0.1079 -0.0887
29035W        W46559  10.535  18.045  12.968  0.1270  0.0304  0.1808
29036W        W46560   9.187  15.387  15.414 -0.4460 -0.1394 -0.0922
29037W        W46561  10.661  11.367  10.494  0.1916 -0.0611  0.0918
29038W        W46562  18.172  15.422   4.237  0.1189  0.0687  0.1820
29039W        W46563   3.439   8.986   2.070 -0.0778 -0.4074 -0.2626
29040W        W46564   9.517   0.229  14.615  0.2750  0.2593 -0.2741
29041W        W46565  15.369   9.542   2.356  0.1048  0.2040  0.1115
29042W        W46566   3.801   7.836   2.139 -0.1016  0.0825 -0.3237
29043W        W46567  11.314   2.986  11.603  0.4575 -0.5414  0.2103
29044W        W46568   9.039  13.988  15.678  0.3098  0.1619  0.2239
29045W        W46569   6.197   7.695   1.031  0.1262  0.0271  0.2642
29046W        W46570  12.905   9.894   4.725 -0.2375 -0.2369 -0.1178
29047W        W46571   1.202   7.085   3.933 -0.2778 -0.0070  0.1456
29048W        W46572  10.138   0.251  11.069  0.0886  0.1320  0.1680
29049W        W46573  17.489   5.281   5.514  0.0036  0.0360  0.0596
29050W        W46574  16.217   6.939   0.117 -0.2215  0.3311  0.2390
29051W        W46575   2.742   7.741  14.288 -0.1297 -0.2975 -0.2256
29052W        W46576  14.296   5.372   2.732  0.1250 -0.1591 -0.1628
29053W        W46577  15.268   0.363   4.811  0.0919 -0.1089 -0.0322
29054W        W46578   8.876   2.008  12.414 -0.1728 -0.2429  0.3709
29055W        W46579   1.493   5.693   4.352  0.1991  0.0134 -0.1140
29056W        W46580  16.292  17.087  15.367  0.0346 -0.0518  0.0569
29057W        W46581   2.234   1.168  10.135 -0.3037  0.2630 -0.1177
29058W        W46582   6.084   6.543  15.796  0.0652  0.1207  0.0504
29059W        W46583   7.296   4.607   2.065 -0.1579 -0.1129  0.1520
29060W        W46584   3.455   4.902  14.265 -0.1295 -0.3991  0.1494
29061W        W46585   6.250  15.991   1.434 -0.0008  0.0020 -0.1097
29062W        W46586  12.018   5.653  15.852  0.0073  0.2580 -0.4488
29063W        W46587   3.329   2.405   4.346  0.0096 -0.0224 -0.3018
29064W        W46588   4.125   2.200   3.119  0.0742  0.1320  0.0812
29065W        W46589   9.029  15.258   4.613 -0.2955  0.5336 -0.1631
29066W        W46590  16.461   3.759  15.734  0.0207  0.2377  0.2232
29067W        W46591  16.956   3.282  14.400  0.0795 -0.3238  0.3211
29068W        W46592   8.263  11.547   3.182  0.1495 -0.0626 -0.3999
29069W        W46593   9.112   4.876  12.183  0.1052 -0.2795 -0.0430
29070W        W46594   0.884  14.963   2.799 -0.2846 -0.0387 -0.2675
29071W        W46595  11.411  10.285  14.510 -0.0013 -0.0971 -0.1389
29072W        W46596   1.143  14.899  11.664 -0.4009 -0.3851 -0.0153
29073W        W46597  17.654  12.658   3.850  0.0513 -0.0015  0.4780
29074W        W46598  13.761   5.032  15.403 -0.0643 -0.1155  0.3215
29075W        W46599  11.964   8.508   3.071 -0.0140  0.0326 -0.2729
29076W        W46600  14.977  17.296  14.572  0.1077 -0.0833 -0.0046
29077W        W46601   9.910   8.918   2.335  0.1411  0.1828 -0.1665
29078W        W46602   4.601  17.352   3.834  0.1366  0.3927 -0.0477
29079W        W46603  16.661  15.258  15.964 -0.1855 -0.0819  0.0851
29080W        W46604  14.809  11.025   2.403 -0.0388  0.0427  0.0405
29081W        W46605  15.823  17.804   4.927  0.0753  0.0198 -0.0124
29082W        W46606   6.431   2.253   2.487  0.1878 -0.1518  0.3147
29083W        W46607   7.820   1.818   4.348  0.0128 -0.0758  0.1445
29084W        W46608   4.148  12.053  11.581 -0.1110 -0.1972 -0.2825
29085W        W46609   0.410   4.295  14.244  0.2208 -0.1881 -0.2307
29086W        W46610  13.704   3.314  14.590 -0.1261 -0.1612 -0.0650
29087W        W46611   6.295   0.142  11.868 -0.2861  0.0137 -0.0130
29088W        W46612   6.732  14.097  14.949 -0.0427 -0.1704 -0.0189
29089W        W46613   4.974  16.595   0.713 -0.1561 -0.1309  0.1921
29090W        W46614   6.067  12.857  11.487  0.1199  0.0381 -0.0254
29091W        W46615  12.532   8.686  12.099 -0.1629 -0.1795 -0.2936
29092W        W46616   9.217   9.566  12.067 -0.1450  0.0206  0.0242
29093W        W46617  18.153   9.372  12.378  0.0750  0.2318  0.1366
29094W        W46618  11.391  13.897  14.571  0.0653 -0.3779 -0.1715
29095W        W46619   4.838   5.335  13.280 -0.2570  0.0699  0.5929
29096W        W46620  10.995   6.474  15.785 -0.2306 -0.0402 -0.0159
29097W        W46621  17.106  14.864  11.575 -0.0429 -0.1038 -0.0830
29098W        W46622  13.086   3.216   5.716  0.2885  0.0514 -0.0452
29099W        W46623   0.610  15.912   2.878  0.0904  0.1902 -0.2352
29100W        W46624   9.939  13.699   3.439  0.3227  0.1412 -0.2375
29101W        W46625   5.940   5.989   2.706 -0.1296 -0.2351  0.1040
29102W        W46626   8.130  16.010   0.047  0.1982 -0.2266 -0.1131
29103W        W46627  15.995  11.520   3.929  0.2532  0.1240 -0.0371
29104W        W46628  14.156   4.172  12.975 -0.1125 -0.0572  0.0512
29105W        W46629  17.991  14.604   0.240 -0.0455 -0.0798  0.1019
29106W        W46630  15.486   4.044   3.281  0.0654  0.1268  0.0791
29107W        W46631   2.310   7.317   2.439 -0.1176  0.0421 -0.1053
29108W        W46632   9.372  12.095   0.561 -0.2759  0.0989 -0.1998
29109W        W46633   4.985   5.632  14.026 -0.4229 -0.2477 -0.0110
29110W        W46634  11.820   6.006  14.864  0.1986 -0.3965 -0.0467
29111W        W46635  16.901  17.319  12.426  0.3389  0.2135  0.0710
29112W        W46636  13.965   2.390  15.480  0.2604  0.0760 -0.1118
29113W        W46637   7.462  13.769   0.069  0.1124 -0.5675  0.1704
29114W        W46638  10.154   2.326   1.973  0.0173  0.0473  0.1627
29115W        W46639   8.127   1.623  13.117 -0.1734 -0.3546  0.1363
29116W        W46640   5.568  17.572  13.652 -0.0727 -0.0577 -0.1401
29117W        W46641  16.452  12.370  15.378 -0.0127 -0.2834 -0.1072
29118W        W46642   4.534  12.487   0.635 -0.0057 -0.1095  0.1581
29119W        W46643  14.075   2.662  14.919 -0.0416 -0.1486  0.0093
29120W        W46644   1.870   6.195   4.974 -0.0819 -0.2281 -0.2533
29121W        W46645  11.956  14.107   2.153  0.1328 -0.0610  0.0122
29122W        W46646   1.632   2.529   3.972  0.0787 -0.1475  0.0069
29123W        W46647   3.995  13.863  11.262  0.0290 -0.1131 -0.1141
29124W        W46648   1.323   8.762  12.329  0.2422  0.1072  0.3870
29125W        W46649  12.256  15.716  14.383 -0.3028 -0.0499 -0.2993
29126W        W46650  11.429   5.409  14.453  0.2189  0.2695 -0.0183
29127W        W46651  16.385  17.441  13.365  0.0087  0.0604  0.0360
29128W        W46652  18.164   4.214   3.823  0.2216 -0.0675  0.1881
29129W        W46653  17.330   9.268  14.428 -0.0489 -0.1968  0.2492
29130W        W46654   7.342   3.814   4.269 -0.2077  0.0289 -0.0104
29131W        W46655  12.279   1.676   2.542  0.0273 -0.0988  0.0060
29132W        W46656   8.488  11.754   1.698  0.0874  0.0422 -0.1714
29133W        W46657  14.763   5.554  11.261  0.2074 -0.0972 -0.1230
29134W        W46658   3.635  15.404  12.975  0.2994 -0.2759 -0.0118
29135W        W46659  15.700   7.920   0.735  0.1534  0.2119 -0.1229
29136W        W46660   1.834  10.259  13.019 -0.0870  0.0239 -0.0561
29137W        W46661  18.006   9.432   4.520  0.0455  0.2613  0.2057
29138W        W46662   4.999   8.044   2.724 -0.0235 -0.1514 -0.0677
29139W        W46663   6.329   7.921   3.825  0.3084 -0.0886  0.0125
29140W        W46664  13.068  11.988   0.673  0.2519  0.1247  0.2405
29141W        W46665   3.421  14.379   4.722  0.1788 -0.2410  0.2290
29142W        W46666  11.518   2.222   3.666 -0.0353  0.0522 -0.1395
29143W        W46667   2.097   0.530   5.577  0.2194  0.0936  0.1905
29144W        W46668  16.840  12.956   3.235 -0.0657  0.1543  0.0718
29145W        W46669  11.001  16.539  13.881 -0.0279  0.1347 -0.1880
29146W        W46670  16.547   8.219   1.107  0.0911  0.3679  0.1726
29147W        W46671  10.514  13.776   5.369 -0.1616  0.0803 -0.1807
29148W        W46672   2.400  17.435  15.774 -0.2003 -0.2169 -0.0267
29149W        W46673   0.638   6.589   3.830 -0.0565 -0.0039 -0.1747
29150W        W46674  12.614   8.634  11.587  0.0112 -0.0161 -0.3358
29151W        W46675  14.154  10.623   5.279 -0.0165 -0.1437  0.1413
29152W        W46676   2.847   1.236   0.350  0.0155  0.4455  0.0073
29153W        W46677  13.496  12.644  13.410 -0.0259  0.1360 -0.0512
29154W        W46678   3.243  17.620   0.672 -0.1283 -0.0729 -0.0783
29155W        W46679  12.332   3.965   4.068 -0.0831  0.0218  0.2330
29156W        W46680   0.652   3.152  14.838 -0.1395 -0.1982  0.1177
29157W        W46681  10.683   7.771   0.865 -0.2016 -0.0709 -0.0090
29158W        W46682   5.475   0.063  14.765 -0.5984  0.2671 -0.1811
29159W        W46683  11.458  16.003  11.534  0.0018  0.1125 -0.1901
29160W        W46684  12.330  15.351  15.916  0.1654 -0.0463 -0.0803
29161W        W46685  12.672   8.830  14.861  0.0338  0.0784  0.1287
29162W        W46686  17.066   5.005   5.282 -0.2967  0.0816  0.1128
29163W        W46687   7.102  17.585   1.864  0.1333  0.0376  0.0431
29164W        W46688  10.942   7.458   1.588  0.0013  0.0205  0.0004
29165W        W46689   4.703  16.175   0.525  0.1346 -0.1196  0.2352
29166W        W46690   9.203  17.675  12.837  0.0458  0.0890  0.0551
29167W        W46691  18.078   6.506  11.990 -0.0831  0.0481 -0.0267
29168W        W46692  14.899  12.770   4.258 -0.2939 -0.4390  0.1988
29169W        W46693  10.335  10.537   0.376 -0.1810  0.0826  0.1385
29170W        W46694   0.912   3.064   0.553 -0.3365  0.0124  0.0381
29171W        W46695  11.788  14.474  15.785  0.0069  0.2331 -0.1383
29172W        W46696  14.043   6.774  14.338  0.0128 -0.0433  0.0001
29173W        W46697  14.575   5.593   2.338  0.0185  0.1041 -0.3951
29174W        W46698   8.403   7.637   3.875 -0.0208 -0.0303  0.1231
29175W        W46699  10.083   0.461  15.336  0.2069  0.0384  0.0834
29176W        W46700   9.563   8.246   2.035  0.0399 -0.0095  0.0906
29177W        W46701   1.600  15.515   4.528  0.1459  0.0187 -0.2317
29178W        W46702   7.556   7.050   5.051 -0.0040  0.1353  0.2028
29179W        W46703   9.766  12.959  10.790  0.4610 -0.0598 -0.1578
29180W        W46704  16.341  13.395  12.588  0.1131 -0.1313  0.1190
29181W        W46705   5.471   0.862  13.324  0.1705 -0.0196  0.1299
29182W        W46706  15.910   4.759   1.943  0.1012  0.0210  0.1005
29183W        W46707  11.284  12.022  11.287  0.0156 -0.4628  0.1241
29184W        W46708  12.503  14.255  15.711  0.2517 -0.0940  0.0846
29185W        W46709  15.388   5.008   5.072  0.1025  0.0807 -0.1226
29186W        W46710   0.181   8.886   2.977 -0.0791 -0.0847 -0.0441
29187W        W46711   7.530  17.117  11.164  0.1461 -0.1134  0.0606
29188W        W46712   9.600  12.349  15.242  0.1448  0.1716  0.0292
29189W        W46713  13.705  16.735   2.308  0.1038 -0.1284 -0.0787
29190W        W46714   6.483   5.109  12.665 -0.2204 -0.0851 -0.0000
29191W        W46715  11.361   0.856  12.739 -0.1208 -0.0509  0.1315
29192W        W46716  12.414  17.950   3.338  0.0461  0.1108  0.2222
29193W        W46717  14.995   1.113  12.621 -0.0390 -0.2066  0.0569
29194W        W46718  14.679   4.236   0.181 -0.1272 -0.2386  0.1623
29195W        W46719  15.019   0.853   1.184  0.2102  0.0745  0.2010
29196W        W46720  16.189   1.853   1.682 -0.4869 -0.1027  0.0396
29197W        W46721   1.416  17.831   3.648  0.2717  0.0118 -0.1703
29198W        W46722   6.230   0.923   3.323 -0.0875  0.0266 -0.3558
29199W        W46723   8.757   7.362  13.745  0.0825 -0.0443 -0.0623
29200W        W46724   1.678   3.504  13.539 -0.1844  0.0558  0.0823
29201W        W46725  13.822  13.591   0.657 -0.0211  0.0800 -0.1298
29202W        W46726   2.716   2.957   0.951 -0.1486  0.0660 -0.1581
29203W        W46727   7.961  13.968   2.751  0.4240  0.0567 -0.0880
29204W        W46728  16.933  15.146   1.323 -0.0978  0.0458 -0.1392
29205W        W46729  10.803   6.197  13.453  0.2543  0.0910 -0.1707
29206W        W46730  16.482  17.200   6.113 -0.1459  0.0395  0.1549
29207W        W46731   9.675   8.702  12.038 -0.1815  0.0605  0.3762
29208W        W46732   9.123   2.286   0.461 -0.0957  0.1775  0.1174
29209W        W46733  17.853  17.653  10.179 -0.2671 -0.1994  0.3048
29210W        W46734   7.303  12.967   1.337  0.2907 -0.0790  0.1088
29211W        W46735   8.537   3.509  15.480  0.1893  0.3891  0.2172
29212W        W46736   1.305  11.768  14.025  0.2554  0.1472 -0.1778
29213W        W46737  16.940  13.530  12.651 -0.0453 -0.1461  0.2218
29214W        W46738  15.972  15.036  12.896  0.3020 -0.1820  0.4166
29215W        W46739  14.025  14.632   5.144  0.0324 -0.3163 -0.1810
29216W        W46740  13.216  16.878  15.479 -0.2485 -0.2589 -0.0141
29217W        W46741   4.064  17.832   5.279  0.0509 -0.2214  0.1317
29218W        W46742   6.317   1.514   1.945  0.1671 -0.1603 -0.1494
29219W        W46743  11.885   7.523  13.756  0.0931 -0.1657 -0.0345
29220W        W46744  12.493   9.398   1.968  0.3425 -0.2863 -0.2306
29221W        W46745  14.830  14.447   4.564  0.0041  0.2020  0.1037
29222W        W46746   0.693  16.063  16.071  0.0411 -0.0487  0.0735
29223W        W46747   1.935  11.446   1.882 -0.1959  0.2022 -0.1089
29224W        W46748   0.452   9.043   5.135 -0.0564  0.1699 -0.1996
29225W        W46749  15.515  15.197   3.656  0.0090 -0.0487  0.1438
29226W        W46750   6.184  11.114   9.787 -0.0133 -0.2032  0.1586
29227W        W46751   9.963   3.364   2.834  0.0575  0.0579 -0.0464
29228W        W46752   3.779   5.867   0.495  0.2454 -0.0552  0.2681
29229W        W46753  17.735   9.550   5.022 -0.0101  0.2699  0.3260
29230W        W46754  17.532   1.153  12.224  0.1065 -0.2294  0.0745
29231W        W46755  11.014   5.414   5.205  0.0532 -0.1369  0.0887
29232W        W46756  16.847  16.545   5.063  0.1108  0.5130  0.2714
29233W        W46757  13.198   4.033   4.293  0.1183 -0.2113  0.0063
29234W        W46758  11.925  14.398   2.607 -0.2976  0.1139  0.0738
29235W        W46759  17.604  12.360  14.032 -0.2533 -0.3091  0.1797
29236W        W46760   1.708   4.944   0.136 -0.3085  0.0591  0.1676
29237W        W46761  16.918   1.645   0.031 -0.1791 -0.0190 -0.1925
29238W        W46762  16.201  13.974  14.209 -0.2326  0.2701  0.2296
29239W        W46763  10.725   7.424   4.968  0.3455  0.1573 -0.0239
29240W        W46764  11.935   4.259   2.451 -0.0164  0.0294  0.2194
29241W        W46765  10.111   0.420  10.147 -0.1959 -0.2888  0.5164
29242W        W46766   2.279   6.255  14.975 -0.3485  0.1850 -0.0593
29243W        W46767  12.421  16.088  11.985 -0.0891 -0.2228 -0.3559
29244W        W46768   3.123   4.729  12.737  0.2193  0.0638  0.2195
29245W        W46769  11.585   5.522  12.420 -0.0713  0.2045 -0.1537
29246W        W46770  15.648  10.092   0.140 -0.0298 -0.2345 -0.2547
29247W        W46771  14.247   9.485   1.918 -0.0209  0.0351  0.1820
29248W        W46772   5.918  12.813   4.630 -0.2407 -0.2105  0.2543
29249W        W46773  11.916   7.226  14.699  0.4905  0.2266  0.1460
29250W        W46774   1.881   7.220  10.605 -0.2953  0.1982 -0.1090
29251W        W46775   3.443   8.781   3.169 -0.3635 -0.0364 -0.3092
29252W        W46776   0.155   9.443   3.008 -0.0452 -0.1041 -0.0311
29253W        W46777  14.966   6.572   1.296 -0.7369  0.1047 -0.1310
29254W        W46778  11.860   1.487  15.475 -0.0600 -0.1718  0.2846
29255W        W46779   9.274  15.144   1.526  0.0322  0.3574  0.0429
29256W        W46780  17.694  12.785  15.814 -0.0435  0.2200 -0.2350
29257W        W46781   4.612   6.626   2.168 -0.2218 -0.1564  0.0686
29258W        W46782   6.736  12.312  12.918 -0.0279 -0.1373  0.1464
29259W        W46783  14.741   7.625  14.540 -0.1697  0.2010 -0.0428
29260W        W46784  16.109  17.855  12.226  0.0604  0.1993  0.0017
29261W        W46785  14.500   8.827  15.102  0.0085 -0.0244 -0.0751
29262W        W46786   6.433  16.532  15.786 -0.0135  0.1959  0.1338
29263W        W46787   4.922   9.604  15.271 -0.0984 -0.1928 -0.2485
29264W        W46788  11.994   2.045   2.401  0.3927 -0.0877  0.2412
29265W        W46789   2.138   9.791   2.878 -0.0227  0.0667 -0.2993
29266W        W46790   3.622   1.923   3.128 -0.0931 -0.0604  0.2368
29267W        W46791   5.676   7.026   0.068 -0.1551  0.0179  0.3840
29268W        W46792   5.453   3.663   1.748  0.1549 -0.0191  0.0732
29269W        W46793   3.283  13.994  15.314  0.0453  0.2208 -0.0889
29270W        W46794   3.596   4.431   3.356  0.0768 -0.0719 -0.0765
29271W        W46795   3.858  10.376   0.130 -0.0796 -0.2326 -0.2534
29272W        W46796  14.505  10.201   5.264  0.2552 -0.4320  0.1026
29273W        W46797   0.056  15.086   2.588  0.0925 -0.1497  0.1029
29274W        W46798   8.856  10.139  10.862  0.2584  0.0705 -0.1415
29275W        W46799   0.128  10.851  13.480  0.0749  0.2479  0.0299
29276W        W46800  12.749   1.272   3.546 -0.2617  0.0928 -0.2203
29277W        W46801  17.805   6.432   3.484 -0.1296 -0.0981  0.1328
29278W        W46802   1.407  16.656   5.735 -0.0651 -0.1842 -0.2468
29279W        W46803  15.338  11.942  14.809  0.1652  0.0552 -0.0327
29280W        W46804   2.942   1.082   4.151  0.1015  0.0844 -0.0676
29281W        W46805  18.193   8.448   3.065  0.4048  0.0821 -0.2056
29282W        W46806   0.345   9.158   3.380 -0.1216 -0.1248 -0.3457
29283W        W46807  16.236  14.463   2.678 -0.1094  0.1258 -0.3261
29284W        W46808  17.220  12.621   1.827  0.3132  0.0161 -0.5607
29285W        W46809  15.872  13.619  11.444 -0.0323 -0.0675  0.0205
29286W        W46810  10.574   0.373   0.402  0.1664  0.1895 -0.2255
29287W        W46811   4.865  17.147  15.504 -0.1749  0.5093 -0.0042
29288W        W46812  17.644   6.150  13.190 -0.2590 -0.1016 -0.2405
29289W        W46813   8.554   9.034   2.197  0.2192 -0.0327 -0.2492
29290W        W46814   6.944   4.161   3.351 -0.0880 -0.2008  0.2202
29291W        W46815   4.548  10.527  13.085  0.1976  0.1837 -0.0013
29292W        W46816  12.471   1.607  11.016 -0.1376 -0.2202  0.0444
29293W        W46817   3.663   8.147   1.292 -0.0747  0.1262  0.0553
29294W        W46818   1.861  11.946   2.651 -0.1310  0.2453 -0.2628
29295W        W46819   9.885   5.463   9.868  0.2115  0.0691  0.1173
29296W        W46820  11.159   8.027  13.721 -0.0613  0.0575 -0.0475
29297W        W46821  14.832  13.966  15.031  0.1647 -0.1076  0.0070
29298W        W46822   6.473  12.778   3.852  0.0328 -0.2648 -0.1764
29299W        W46823  11.453  14.185   4.763  0.0771  0.1183 -0.0815
29300W        W46824   0.059   8.679  12.054  0.2966 -0.1061 -0.1194
29301W        W46825  16.434  17.938  11.776 -0.0118  0.1633 -0.0568
29302W        W46826  17.921   5.683   5.709  0.3611 -0.1024 -0.0658
29303W        W46827   6.959   8.789   4.873 -0.0600  0.1886  0.0710
29304W        W46828   0.836   1.726   4.890 -0.0154  0.3373 -0.0859
29305W        W46829   6.902  13.986   3.055  0.1498  0.1307 -0.2020
29306W        W46830  13.311   2.645  11.608  0.0381  0.0603 -0.0627
29307W        W46831  10.760   7.787  11.328  0.0026  0.1035 -0.2033
29308W        W46832   8.286   4.017  15.828 -0.0977  0.0067 -0.0913
29309W        W46833   1.648   9.720   5.064  0.0331  0.1672 -0.0270
29310W        W46834  12.099   5.197   4.367 -0.0128  0.1013 -0.4050
29311W        W46835   3.487   7.985   0.231 -0.2806 -0.1938  0.0846
29312W        W46836   5.793  11.689   4.240  0.2290  0.1572 -0.3209
29313W        W46837  12.043   8.069   2.108  0.0204  0.0158 -0.0322
29314W        W46838   8.322   4.149  14.941  0.2099 -0.1342 -0.0683
29315W        W46839   3.820  16.799  12.644  0.1491 -0.0091  0.0093
29316W        W46840   3.406   1.701   3.558 -0.0689 -0.0909  0.2274
29317W        W46841   7.910   4.212   4.490  0.1893 -0.0169  0.3172
29318W        W46842   5.291  11.122   3.539  0.3521  0.1190  0.1556
29319W        W46843   9.654   1.045  14.856 -0.0328 -0.0422 -0.1016
29320W        W46844  14.082   1.789   0.613 -0.0722  0.2352 -0.3089
29321W        W46845  16.691   0.686  14.266  0.3003 -0.0824  0.1555
29322W        W46846  10.044  11.480   4.277  0.0225  0.0075  0.1634
29323W        W46847  13.813  13.194  14.005  0.1955  0.0028  0.1219
29324W        W46848   3.456  12.494   3.669  0.1137  0.0143  0.1422
29325W        W46849   1.145  10.062   2.730 -0.0493 -0.2579 -0.0461
29326W        W46850   8.166  16.639   4.805 -0.1798 -0.0285 -0.0770
29327W        W46851   3.454   6.493  15.174 -0.1470  0.0660  0.1319
29328W        W46852   9.228  14.462   2.273  0.3330 -0.1898 -0.3034
29329W        W46853   3.045  15.008   2.328  0.3066 -0.3673  0.2379
29330W        W46854  14.202  17.092  11.035  0.0858 -0.0548  0.3427
29331W        W46855  15.852   4.672   0.171 -0.0588  0.0293  0.1073
29332W        W46856   9.378   7.507  10.404  0.2700 -0.0889 -0.1226
29333W        W46857  14.604   5.022   0.986  0.0301  0.1287  0.0946
29334W        W46858  11.063   9.120  11.778  0.0852  0.2473  0.3987
29335W        W46859   5.414   0.856  15.806 -0.0285  0.0854  0.4215
29336W        W46860  17.349  18.177   2.576 -0.2054 -0.0326  0.0075
29337W        W46861   9.240   5.450   0.970 -0.0148  0.1627 -0.0219
29338W        W46862   1.125  11.689   0.743 -0.0385  0.0738  0.1398
29339W        W46863   4.737  16.185   2.410 -0.1888  0.1429  0.1125
29340W        W46864   8.074   6.223   1.424  0.2898  0.1547 -0.4743
29341W        W46865   8.789   7.908  11.584  0.0557  0.2187  0.1907
29342W        W46866   3.073   7.069   0.939  0.4119  0.1974  0.0569
29343W        W46867   4.925  11.125  11.233 -0.2625  0.0342 -0.2193
29344W        W46868  18.123  15.840   1.563  0.1591  0.0509 -0.0680
29345W        W46869   7.783  14.002  10.962  0.3023  0.1673  0.1490
29346W        W46870  11.959   6.902  12.636 -0.1377 -0.3219  0.0042
29347W        W46871  11.872   0.136   3.979 -0.0339  0.1011 -0.2666
29348W        W46872   7.048  10.848  14.074 -0.0120 -0.2427 -0.2352
29349W        W46873   7.396  13.411  15.256 -0.1684  0.0099  0.4351
29350W        W46874  15.736  14.585   1.448  0.1107  0.0729 -0.1296
29351W        W46875   2.623   4.012  14.906 -0.1698 -0.1533  0.2311
29352W        W46876  17.398   5.382  15.629 -0.1387 -0.0137  0.0929
29353W        W46877  13.594  17.979   3.222  0.2041 -0.2478 -0.0771
29354W        W46878   0.357  15.007   1.261  0.0766  0.4670  0.2058
29355W        W46879  18.040  10.238   2.757 -0.0826  0.0515  0.1231
29356W        W46880   1.081  14.092   2.686  0.0399 -0.1645  0.0641
29357W        W46881   8.443  16.357   3.819 -0.0266 -0.3546  0.1334
29358W        W46882  11.210   0.016   1.915  0.2050  0.1522 -0.1293
29359W        W46883   6.963  11.871  12.710 -0.0108 -0.1443  0.0873
29360W        W46884   8.823  11.446   5.750  0.2065  0.3017 -0.0922
29361W        W46885   5.912   3.039  13.677 -0.0022  0.1637  0.2789
29362W        W46886   3.549  14.722   1.489 -0.0932  0.2472 -0.3552
29363W        W46887   7.301   4.209  15.663 -0.0722 -0.0425 -0.0193
29364W        W46888  17.066   5.664   4.802 -0.0273 -0.1982 -0.1885
29365W        W46889  10.513  13.001  13.161 -0.0003 -0.0754  0.0884
29366W        W46890   5.631   2.803  11.638  0.0745 -0.0113 -0.1110
29367W        W46891  14.369  15.314   0.662 -0.0279 -0.0069  0.0772
29368W        W46892  14.109  14.916  12.596 -0.0156  0.2661  0.2525
29369W        W46893  11.480   6.284  14.304  0.5254 -0.3068  0.2874
29370W        W46894   8.637  10.245   3.679 -0.0824  0.0371  0.0354
29371W        W46895   2.161   4.828   0.342  0.1212 -0.2152  0.0107
29372W        W46896  15.212   8.636   2.273 -0.1255  0.1057 -0.0546
29373W        W46897  14.708   4.135   3.315 -0.0287  0.1927  0.1178
29374W        W46898   7.553   1.528  14.220  0.2194  0.1787  0.1002
29375W        W46899  11.910  16.702  13.432  0.1620  0.0732  0.0470
29376W        W46900   7.351   0.805  14.343  0.0228 -0.0032  0.1073
29377W        W46901   6.202  17.958   3.352 -0.1518 -0.1474 -0.0726
29378W        W46902   3.121   3.799  15.899  0.2977  0.1058  0.0999
29379W        W46903  17.584   3.636   3.249 -0.0371  0.1823 -0.2531
29380W        W46904   4.522  13.628  15.979 -0.3753 -0.0022  0.1572
29381W        W46905  15.730  14.202  13.350  0.1509  0.1006  0.4520
29382W        W46906   9.543   5.884   1.895  0.4060  0.0814 -0.1500
29383W        W46907   9.800   8.760   4.110 -0.0707  0.0744 -0.2865
29384W        W46908   0.855   3.502  15.162  0.1003 -0.0382 -0.0793
29385W        W46909  15.387  11.738   4.599  0.1739  0.0089 -0.2278
29386W        W46910   2.756   7.014  10.609  0.1717 -0.1598  0.0074
29387W        W46911   6.863   9.771   3.778 -0.2679 -0.1706  0.2715
29388W        W46912  13.200   9.700  11.137  0.1550  0.1314 -0.1678
29389W        W46913   0.444   5.187  11.424 -0.0566  0.1631 -0.3275
29390W        W46914   3.043  15.837  11.454  0.1593 -0.0036  0.1637
29391W        W46915   6.503  15.846   3.560 -0.1297 -0.1849 -0.0460
29392W        W46916  13.193  10.988  15.827 -0.0287  0.0201 -0.0937
29393W        W46917   0.830   9.401  15.724 -0.3115  0.1551  0.1539
29394W        W46918  12.141   8.947   1.828 -0.3305 -0.1679 -0.3047
29395W        W46919  10.092  17.461   0.479  0.0941  0.1903  0.0659
29396W        W46920  10.814  18.128  11.336  0.0049 -0.1146 -0.1393
29397W        W46921   9.583   8.600   0.217 -0.0510 -0.4300  0.0324
29398W        W46922  16.039   5.694   5.684  0.0877  0.1340  0.1687
29399W        W46923   7.003  10.981  11.343  0.2255 -0.1569 -0.0836
29400W        W46924  16.905  13.622  14.543  0.1798  0.0438 -0.0361
29401W        W46925   5.123   1.857  14.508  0.1119 -0.2488 -0.2396
29402W        W46926   8.218  17.930   3.530 -0.1046 -0.2688 -0.0560
29403W        W46927   7.504   9.793  15.086 -0.1821  0.2001  0.1592
29404W        W46928  10.978  12.096   1.800  0.0116 -0.2404  0.0108
29405W        W46929  13.552   1.114   1.516  0.2287  0.0821 -0.0545
29406W        W46930  13.772  11.813  12.579 -0.3090  0.1948 -0.1896
29407W        W46931   7.255  16.446   1.698 -0.1408 -0.1620 -0.0964
29408W        W46932  13.895   6.413   4.541 -0.3802 -0.4873 -0.5118
29409W        W46933   4.242  16.430  10.583  0.2624 -0.1929  0.0145
29410W        W46934  14.987  18.119  11.713  0.0167  0.0426  0.1448
29411W        W46935  16.985  15.935  14.827  0.0191  0.2643 -0.0708
29412W        W46936  10.227   9.443  14.418  0.0414 -0.0696 -0.2708
29413W        W46937   5.611  14.365  14.648 -0.0964  0.0495 -0.0492
29414W        W46938  14.372   9.536   3.236  0.1489  0.2937  0.1556
29415W        W46939   7.628   6.283  12.406  0.0015  0.2773 -0.0525
29416W        W46940   0.672   0.066   1.727 -0.0518  0.0314 -0.1961
29417W        W46941   6.859   3.041   1.145  0.0388  0.0694  0.2391
29418W        W46942  16.533  16.044   1.430 -0.3489 -0.1466  0.0977
29419W        W46943   7.333   3.714   5.308 -0.0158 -0.1368  0.3199
29420W        W46944  14.068   2.095   0.999  0.0139  0.1370 -0.0254
29421W        W46945  10.537  17.737  13.443  0.3874 -0.0147 -0.0153
29422W        W46946   1.523  13.329   0.355 -0.0111 -0.1887 -0.3242
29423W        W46947  11.559  12.093  10.880 -0.0039 -0.1383 -0.4799
29424W        W46948  11.066  11.646  13.997 -0.5466  0.1115 -0.0607
29425W        W46949  16.560   6.656   4.351  0.1588 -0.1048 -0.1384
29426W        W46950  11.691  16.792  12.562 -0.2688  0.2673  0.1567
29427W        W46951   4.180  16.199  15.278  0.3133  0.0699 -0.1046
29428W        W46952  14.939  12.148   3.134  0.4016  0.2166 -0.0404
29429W        W46953   4.180   5.988   3.092  0.2439 -0.2667 -0.1139
29430W        W46954   3.117  15.470  15.904  0.0300 -0.2138  0.1375
29431W        W46955   5.472   6.363   3.887 -0.0644 -0.2616  0.0361
29432W        W46956  10.468   9.519  12.915  0.0269  0.0306  0.0693
29433W        W46957   4.584   5.442  15.384  0.2188 -0.0159 -0.0253
29434W        W46958   7.255   9.930  14.226 -0.1157  0.1618  0.0296
29435W        W46959   1.413  15.985  11.958  0.0231 -0.0149 -0.1217
29436W        W46960  15.584  16.570   4.231  0.3152 -0.3945 -0.1637
29437W        W46961  11.669   2.570  12.810 -0.0594 -0.0099 -0.2757
29438W        W46962  17.355  16.644  15.161  0.3352  0.0392  0.2970
29439W        W46963  10.969   5.934  13.837 -0.1078 -0.4623  0.3084
29440W        W46964  11.246   5.082  12.014  0.1218  0.1673 -0.2408
29441W        W46965  10.117  17.720   4.130 -0.0829 -0.3068 -0.1888
29442W        W46966  14.023  12.843  11.415  0.1260  0.1515  0.0922
29443W        W46967  13.358   0.330   4.814  0.0569  0.0370  0.0401
29444W        W46968  13.871  13.175   0.946 -0.3169 -0.0445  0.4891
29445W        W46969  13.254  11.052  15.077  0.2440 -0.0809 -0.4382
29446W        W46970   8.569   5.934   3.259  0.1741 -0.1397 -0.2335
29447W        W46971  16.496  13.512   0.917  0.0530  0.2653  0.1300
29448W        W46972  10.071  17.277  14.043  0.0044 -0.1888 -0.0907
29449W        W46973  10.382   1.649  13.153 -0.1204  0.1377  0.1549
29450W        W46974   2.294   6.303   4.283  0.2092 -0.0449  0.2914
29451W        W46975   5.056   2.837   1.069 -0.1774 -0.1073  0.2765
29452W        W46976  13.282  13.059   1.541  0.0069  0.1674 -0.2077
29453W        W46977   5.788  14.296  15.119 -0.3456  0.1572  0.2570
29454W        W46978   9.517  17.550   4.312 -0.0127  0.2029 -0.0372
29455W        W46979   8.888  17.999  12.613 -0.0076  0.0497 -0.0486
29456W        W46980   3.337   0.057   2.448 -0.4546  0.3109  0.2368
29457W        W46981  12.685  12.540  15.547  0.1200  0.2298 -0.1078
29458W        W46982   4.346  14.071  14.585 -0.2895 -0.1279 -0.0475
29459W        W46983  13.830   4.730   0.866 -0.1210 -0.3519  0.0160
29460W        W46984   0.210   0.585  12.400 -0.0187  0.0636 -0.1673
29461W        W46985   7.789   3.239   1.799 -0.2307  0.2151  0.1166
29462W        W46986   1.251  14.408  15.069 -0.1495  0.1237 -0.0587
29463W        W46987   3.497   0.903  13.276 -0.0159 -0.0496 -0.2681
29464W        W46988  10.681  15.716   5.110 -0.0772 -0.1196  0.0249
29465W        W46989   9.768  15.842  13.980 -0.0435  0.0955  0.0958
29466W        W46990   5.676  13.662   1.948  0.1607  0.1164  0.0035
29467W        W46991  17.802  17.788  14.076 -0.0621  0.1821  0.0067
29468W        W46992  13.637   8.195  11.782  0.0044  0.0633 -0.0453
29469W        W46993   6.818   9.791   2.492 -0.0807  0.1725 -0.1625
29470W        W46994   5.816  13.558   1.241 -0.0713  0.2797 -0.2211
29471W        W46995  10.176  14.518  14.535 -0.0227  0.2433  0.2999
29472W        W46996  14.936  14.835   3.343  0.0522 -0.0582 -0.0733
29473W        W46997  15.499   7.689  12.486 -0.0293  0.0916 -0.0377
29474W        W46998  13.498  10.644  15.690  0.0397 -0.0105  0.2555
29475W        W46999   1.711   9.628   3.359 -0.1625  0.0699  0.1638
29476W        W47000  14.434   9.061   5.298  0.1877  0.0788 -0.2098
29477W        W47001  17.842  17.506   2.807 -0.0445  0.0026  0.1498
29478W        W47002   4.634   9.277   3.870 -0.1709  0.1303 -0.0667
29479W        W47003   8.947  17.697  14.807 -0.0054  0.0374  0.2259
29480W        W47004   9.801  11.036  14.905  0.1984 -0.2935 -0.4326
29481W        W47005   1.058   5.650  14.644  0.0866  0.1142 -0.3012
29482W        W47006   0.184   3.245   2.839 -0.0937  0.1599 -0.4933
29483W        W47007   0.078  13.174  14.678  0.2248 -0.0195  0.2515
29484W        W47008   6.357  15.599   3.170 -0.1519 -0.2744  0.1482
29485W        W47009   1.750   1.748   1.843  0.0654  0.0028  0.1912
29486W        W47010  16.521  12.480  14.307 -0.2120 -0.1174  0.0909
29487W        W47011   6.073  16.102  14.169 -0.0198 -0.0701 -0.0160
29488W        W47012   1.514   7.633  15.217  0.3123  0.3087 -0.1190
29489W        W47013   9.763   0.690  14.533  0.0510 -0.0001 -0.0822
29490W        W47014   5.233   8.815  13.868 -0.2278  0.1763 -0.0903
29491W        W47015   5.643   9.196  14.513 -0.0358 -0.0983 -0.1927
29492W        W47016   0.097   9.825  13.528 -0.1484 -0.2630  0.0617
29493W        W47017  16.106   1.836   4.939 -0.3243 -0.1508 -0.0370
29494W        W47018  15.832  11.700  15.712  0.0786  0.0876 -0.1172
29495W        W47019  16.542   9.761   1.269  0.3110  0.1938  0.2506
29496W        W47020   8.986   2.672   2.734 -0.3047 -0.1632 -0.3329
29497W        W47021  16.898  11.794   1.494 -0.0935  0.0489 -0.0101
29498W        W47022  17.815  16.676  14.437 -0.0426 -0.1267  0.2245
29499W        W47023  12.367   1.162   1.293  0.0357 -0.0351 -0.0339
29500W        W47024  14.585  16.470  12.290 -0.1732  0.0628  0.2459
29501W        W47025   4.000   2.637   3.591  0.4798  0.0888  0.0930
29502W        W47026   8.006   4.988   3.981 -0.4175  0.0224  0.0587
29503W        W47027  12.365  10.727  11.409  0.1091  0.2700 -0.1537
29504W        W47028  16.438  16.134  13.302  0.1485  0.0385 -0.0236
29505W        W47029   5.770   7.183   3.961  0.0166  0.1535  0.2327
29506W        W47030  12.517  11.967  11.424 -0.0401 -0.0357 -0.0703
29507W        W47031  17.042  12.145  14.869 -0.0628  0.0277 -0.1921
29508W        W47032  10.744  14.689  14.734  0.2410 -0.1559 -0.1823
29509W        W47033   6.906   8.830   2.783 -0.0098 -0.1422  0.0958
29510W        W47034  12.416  16.271  15.546 -0.0831  0.1561 -0.1221
29511W        W47035  14.303   4.185   0.538 -0.3299  0.2776 -0.5971
29512W        W47036  17.676   7.804  15.888 -0.0508  0.1887 -0.1064
29513W        W47037   0.454   2.186  13.452 -0.0522 -0.2619 -0.1339
29514W        W47038  11.090   4.562  16.074 -0.1479 -0.0455  0.2265
29515W        W47039  11.563  17.517   2.676  0.3030 -0.2096 -0.0145
29516W        W47040  11.328  14.922  14.373  0.0627  0.0865  0.0891
29517W        W47041   5.329   5.434  10.963  0.1212  0.2083  0.0605
29518W        W47042   3.413  11.330  14.103 -0.1095 -0.1524 -0.0764
29519W        W47043  14.112  14.551   1.090 -0.1402  0.3803  0.1491
29520W        W47044   8.661  12.515  14.075  0.1298  0.1835 -0.2018
29521W        W47045  10.484  10.853   2.058 -0.0380  0.0029  0.1807
29522W        W47046  11.617  16.243  12.543 -0.1666 -0.0008 -0.0491
29523W        W47047  17.710   8.020   0.794  0.0752  0.2810  0.3358
29524W        W47048   2.317   5.090   4.687  0.0668 -0.1506  0.0651
29525W        W47049   5.087  11.676   0.508 -0.0010 -0.2031 -0.0491
29526W        W47050  18.029  11.411  11.728  0.1658 -0.0771 -0.1765
29527W        W47051   2.446   0.771  15.716  0.0903  0.3964 -0.1195
29528W        W47052   6.376  17.869   3.886  0.1472  0.1402  0.1721
29529W        W47053   9.514   8.738   2.030  0.1054  0.1145 -0.2921
29530W        W47054  13.037   2.978  16.049  0.1371 -0.1300  0.2017
29531W        W47055   5.998   2.747  12.005  0.0498  0.0410  0.0780
29532W        W47056   5.027   5.235   2.217 -0.0540  0.0909 -0.0574
29533W        W47057  15.961  11.962   5.397 -0.2590  0.2666  0.1255
29534W        W47058  17.835   6.954   6.156  0.0433  0.0297 -0.0158
29535W        W47059  16.206   5.307   5.484  0.2409 -0.3715  0.1096
29536W        W47060  17.451   5.636   3.190  0.0373 -0.3854  0.0205
29537W        W47061  14.690  17.634  13.453 -0.2748 -0.2098 -0.0897
29538W        W47062   9.222   7.224  13.443 -0.2317  0.3799 -0.0863
29539W        W47063   8.153   5.818   1.075  0.3615  0.4518 -0.3481
29540W        W47064   5.497   8.646  15.262 -0.0144  0.1422 -0.0045
29541W        W47065   2.129   0.354  15.650 -0.1878  0.2048 -0.3231
29542W        W47066  17.993   8.319   3.535 -0.2304  0.0182  0.3866
29543W        W47067   4.706  12.044  10.708 -0.0240 -0.0015  0.0036
29544W        W47068   2.888  16.723  10.912  0.1657 -0.0945 -0.0655
29545W        W47069   9.474  13.068  14.323 -0.0765  0.0804 -0.0966
29546W        W47070   9.697  16.876  12.718 -0.0181  0.0766 -0.0540
29547W        W47071   5.096  17.322   3.610  0.0980  0.0294  0.0245
29548W        W47072  13.958  10.152   5.218 -0.0026  0.4342  0.0116
29549W        W47073  10.493  14.751   1.230  0.1627  0.1529  0.0353
29550W        W47074  11.197   9.402   3.680  0.0076  0.0781 -0.0868
29551W        W47075   1.693   1.360  11.624  0.0083 -0.2660  0.0225
29552W        W47076  14.693   4.893  13.276  0.3184 -0.0241 -0.0123
29553W        W47077  16.555   5.753   5.616 -0.0164 -0.0489  0.0548
29554W        W47078   8.049   3.088  13.714  0.1620 -0.3340 -0.1247
29555W        W47079   9.121  16.549  11.658  0.0951 -0.1671 -0.1699
29556W        W47080   9.723  14.885  12.028 -0.4493 -0.0648 -0.0533
29557W        W47081  17.912   4.558  14.098 -0.1798 -0.1217  0.0991
29558W        W47082   1.868  16.631   2.890 -0.0826 -0.0604  0.3496
29559W        W47083   3.212  10.433  14.342 -0.2050 -0.0580  0.0140
29560W        W47084   8.548  11.854  10.103  0.1454 -0.0735  0.0371
29561W        W47085   3.067   4.722  11.679  0.0949 -0.3100  0.2635
29562W        W47086  11.999  15.456   1.130 -0.0410 -0.0588  0.0629
29563W        W47087   6.916   8.951   0.411  0.2392  0.2232 -0.0818
29564W        W47088   0.517   5.496   5.237  0.0811  0.0174 -0.0934
29565W        W47089  14.529   6.962   2.895  0.1902  0.0771 -0.1566
29566W        W47090  12.362  13.744   4.793  0.2420  0.0617  0.0809
29567W        W47091  10.201   0.237   2.105 -0.1839  0.1654 -0.3742
29568W        W47092   3.137  16.686   2.219  0.1580  0.0761  0.3243
29569W        W47093  13.769   4.113   1.614 -0.2102  0.1090 -0.0834
29570W        W47094   9.655  10.802   4.980 -0.1234  0.0835  0.1412
29571W        W47095  14.664  12.205   5.218 -0.4447  0.0480  0.0927
29572W        W47096  12.764  13.833  15.625  0.1287  0.2603 -0.0321
29573W        W47097  13.169   6.185   2.625 -0.0799 -0.2165 -0.1121
29574W        W47098  14.684   3.476  15.692 -0.0578  0.0188  0.1164
29575W        W47099   4.793  14.076  10.663 -0.0761 -0.0925 -0.0819
29576W        W47100   0.711  16.880  11.342 -0.0768  0.0946  0.3109
29577W        W47101   0.458   7.876   2.314  0.1716  0.1571  0.0378
29578W        W47102   8.048   7.887  14.464  0.2734  0.0507 -0.1915
29579W        W47103   2.232  16.848   1.828 -0.1027 -0.1121 -0.2050
29580W        W47104   8.647   2.357  14.170 -0.1598  0.0651  0.4932
29581W        W47105   0.112   1.274   4.487 -0.0234 -0.2264 -0.0693
29582W        W47106   3.343  15.532   3.590  0.0969  0.1630  0.0000
29583W        W47107   1.812  10.656  14.325  0.2384 -0.0371  0.0105
29584W        W47108   0.425   9.477  12.255  0.0677  0.0176  0.1085
29585W        W47109   8.685   7.367   1.890 -0.0837 -0.0386 -0.0741
29586W        W47110   5.929  13.104   1.594 -0.0532  0.0154 -0.0973
29587W        W47111  15.480  13.582   0.957 -0.0154  0.1579 -0.0082
29588W        W47112  10.747  17.509  12.547  0.0385 -0.1028 -0.1144
29589W        W47113  13.304  16.481  15.802 -0.1312 -0.1965 -0.4207
29590W        W47114  13.448  16.784   5.294 -0.2844 -0.2737 -0.1365
29591W        W47115  12.317   8.496  12.994  0.2140 -0.3915  0.0206
29592W        W47116   3.415  14.158  14.836  0.0012  0.1192  0.0366
29593W        W47117  11.405  14.520   1.267 -0.0842 -0.1765 -0.0379
29594W        W47118   5.734  13.156  14.032  0.1322  0.2827 -0.1081
29595W        W47119   1.627  13.003   5.129  0.0823  0.1474  0.0064
29596W        W47120  18.029   5.323   0.290 -0.3915  0.4789  0.1216
29597W        W47121  11.736   2.373   2.772 -0.0614  0.0330  0.2975
29598W        W47122   9.436  15.424  10.571 -0.0273  0.0699 -0.1324
29599W        W47123   6.386  10.769   0.913  0.0336  0.0505 -0.0670
29600W        W47124  14.097  10.366   2.863  0.0155 -0.2681 -0.0278
29601W        W47125  13.554  15.632  14.509 -0.0299  0.1358 -0.0585
29602W        W47126  15.725   4.901   3.748  0.2512  0.1063  0.0158
29603W        W47127   5.699  17.855   0.356  0.1509 -0.0198 -0.0256
29604W        W47128   1.795  17.497   3.765  0.0207  0.3186  0.3406
29605W        W47129   7.816   9.248  15.912 -0.1024 -0.2501  0.3768
29606W        W47130  17.197  15.713  13.587 -0.2739 -0.2091 -0.3862
29607W        W47131   6.021   9.808  16.036  0.0177 -0.1917  0.2453
29608W        W47132  12.176  15.772  11.418  0.2308  0.0466  0.1554
29609W        W47133   2.016  13.959  11.258 -0.2944  0.2033 -0.1800
29610W        W47134  13.317  13.221   4.600 -0.0660 -0.0295  0.1467
29611W        W47135  14.545   2.094   5.123  0.3310 -0.3931  0.1134
29612W        W47136   0.229  11.737   0.873 -0.1740 -0.2133  0.0902
29613W        W47137   2.145  13.187  15.638  0.3042  0.0593 -0.0590
29614W        W47138   9.388  18.148  12.497  0.3005  0.0916  0.0234
29615W        W47139   4.192  13.849  14.964 -0.0743 -0.1874 -0.0599
29616W        W47140   6.013  11.470   4.713 -0.1813 -0.0930  0.1706
29617W        W47141   7.080  10.508  11.655 -0.2452  0.0948 -0.1722
29618W        W47142   6.132   7.091   1.156 -0.5267 -0.0340 -0.0121
29619W        W47143   5.364   9.111   1.658 -0.0285  0.1619 -0.0148
29620W        W47144  14.730  10.684  13.921  0.0512  0.0538 -0.1368
29621W        W47145   5.962   6.500   3.607 -0.0350  0.0703  0.0419
29622W        W47146  17.405   3.983  15.609  0.1352  0.2233  0.4885
29623W        W47147  10.846   1.612  11.805 -0.2551 -0.1026 -0.0623
29624W        W47148   7.753  10.591   0.498 -0.0919  0.2431  0.1610
29625W        W47149  11.316  16.837  11.349 -0.2038  0.0996 -0.1527
29626W        W47150   8.120   4.501  15.271 -0.1042 -0.1965  0.2353
29627W        W47151  15.873  10.529   1.299  0.0242 -0.0533  0.2975
29628W        W47152   8.837   5.816   2.710  0.0001  0.0054  0.1854
29629W        W47153   5.635   4.085  12.862 -0.2513  0.0672 -0.1358
29630W        W47154  13.900   8.890   2.932 -0.1952  0.0420 -0.1480
29631W        W47155  17.545  10.522  13.097  0.0466  0.1561 -0.4523
29632W        W47156   6.604  15.421   2.736  0.2081  0.2809  0.1843
29633W        W47157  11.118  11.045   0.649 -0.1605  0.0941 -0.2251
29634W        W47158  13.110   5.061  15.393  0.0177  0.2546 -0.0272
29635W        W47159  15.216  15.618   0.910  0.1823  0.0077  0.1703
29636W        W47160   7.638   7.665  15.222 -0.0903 -0.1543  0.0673
29637W        W47161  14.079   4.528   1.734 -0.4150 -0.0001  0.0313
29638W        W47162   6.744   5.447  11.116  0.3999 -0.4158  0.0582
29639W        W47163   6.446   0.672  11.269  0.0055  0.0086 -0.1225
29640W        W47164   7.063   8.195   3.231  0.4416 -0.1336  0.0368
29641W        W47165  16.675   5.036   1.523  0.1264 -0.1363 -0.0284
29642W        W47166  14.195  17.253   0.938  0.4022 -0.1589 -0.1916
29643W        W47167   3.517   3.953  12.442  0.1754 -0.0941 -0.2413
29644W        W47168   3.380  14.287   1.314  0.0146 -0.0347  0.2443
29645W        W47169  14.908   1.772   0.676  0.1713 -0.4747 -0.1393
29646W        W47170   8.049  12.099   1.695  0.1782  0.1694 -0.2630
29647W        W47171  11.713  15.656  10.042 -0.1310  0.1343  0.2498
29648W        W47172  12.010   8.096  15.852 -0.1273  0.1977 -0.0228
29649W        W47173  17.778   1.358   4.469  0.0449  0.0263  0.0306
29650W        W47174  17.115  15.431   2.150  0.0969  0.2728  0.1877
29651W        W47175   5.459  18.087   3.672 -0.2333  0.1617  0.2753
29652W        W47176  10.041   9.994   2.254 -0.1743  0.2042 -0.2934
29653W        W47177   9.347   5.037   2.779 -0.1916  0.0433 -0.0095
29654W        W47178  11.835   3.572   1.280  0.0992  0.1402  0.0181
29655W        W47179   6.152  16.099  13.113 -0.0591 -0.1112  0.0310
29656W        W47180  12.424   7.535   1.976  0.1151 -0.0331  0.4953
29657W        W47181  17.496   1.518  15.637 -0.0101 -0.0072  0.0046
29658W        W47182  16.206   6.572  15.840 -0.2265 -0.0829  0.1772
29659W        W47183   0.502   0.762  13.377  0.1249  0.0554 -0.3244
29660W        W47184  13.452  17.849   1.304  0.0608  0.2184 -0.0794
29661W        W47185   4.235   4.553  13.458 -0.0591  0.0937  0.2318
29662W        W47186   2.019  15.358  13.944  0.0005  0.4334 -0.0658
29663W        W47187   8.254   1.915  12.739 -0.0985 -0.0246 -0.1124
29664W        W47188   6.823   2.899   0.694 -0.1974 -0.2381  0.1056
29665W        W47189  14.231   2.280  14.262  0.1994 -0.1694  0.1218
29666W        W47190  13.191  14.499   2.010 -0.1807  0.2444 -0.1627
29667W        W47191   7.241   5.924   2.002 -0.0060  0.1609  0.0202
29668W        W47192   0.659  16.122   2.034  0.1255 -0.0553 -0.1331
29669W        W47193   7.748   5.612  12.956 -0.0390  0.0707  0.1846
29670W        W47194  16.662  15.284   0.927 -0.2651 -0.2408 -0.1110
29671W        W47195  15.760  14.249   4.021 -0.0694 -0.1286 -0.0863
29672W        W47196   6.383   0.237   3.691  0.2893  0.2236  0.3179
29673W        W47197   2.241  17.966   2.146 -0.2227  0.0877  0.2281
29674W        W47198  16.090   3.045  13.213  0.2912  0.1026 -0.0836
29675W        W47199  10.848   3.522   4.936  0.2749 -0.1054 -0.1418
29676W        W47200   5.151   2.812  15.136  0.0623  0.1329 -0.0827
29677W        W47201   1.534   8.938   4.496  0.0418  0.0107  0.0100
29678W        W47202   8.070   9.190  15.413 -0.1379  0.0623 -0.0213
29679W        W47203   9.454   3.558   3.910  0.1590 -0.0348 -0.0070
29680W        W47204  17.180   8.689  13.022  0.1611  0.1773 -0.0695
29681W        W47205   2.788  13.477  12.673 -0.2716  0.0639  0.1207
29682W        W47206  13.604   8.293  14.250 -0.2656 -0.1574 -0.1279
29683W        W47207   9.029   2.307   3.939 -0.4406  0.0058 -0.0009
29684W        W47208  13.370   3.968  12.105  0.0226  0.2381  0.1114
29685W        W47209   0.396  13.369   2.638 -0.3326 -0.1668  0.1825
29686W        W47210   2.379  13.895   4.447 -0.3821 -0.1759 -0.3837
29687W        W47211  15.487   1.156   3.294  0.1300  0.1906 -0.0498
29688W        W47212   4.545  15.369  11.426 -0.0836  0.1602  0.0789
29689W        W47213   5.262  10.266   4.503 -0.1756  0.0272  0.0525
29690W        W47214   7.746  11.803   3.323 -0.1651 -0.1701 -0.1834
29691W        W47215   2.416  15.761   2.024 -0.3462  0.1386  0.1841
29692W        W47216   5.463   1.317   3.888  0.3343 -0.1979  0.0041
29693W        W47217  17.837   1.188   1.975  0.0663  0.2655 -0.3156
29694W        W47218   8.979  11.171  13.271 -0.0495 -0.0223  0.2425
29695W        W47219  13.156  17.631  11.161  0.3426 -0.1534  0.2049
29696W        W47220   1.043   1.306   1.823  0.1716 -0.0648  0.1030
29697W        W47221  10.599   6.954  13.949  0.2115 -0.3747  0.2834
29698W        W47222   9.763   6.029  11.139 -0.0348  0.0113  0.0158
29699W        W47223   1.133  10.449   1.710  0.1402 -0.0370 -0.1911
29700W        W47224  16.615   8.147  15.800  0.1498  0.0332 -0.0492
29701W        W47225  15.740   4.302   2.205  0.2719 -0.2971  0.0951
29702W        W47226   3.680  15.216  13.497 -0.0391  0.1617  0.0179
29703W        W47227   1.295  10.905  14.311 -0.2351 -0.2285 -0.3172
29704W        W47228   8.571  15.468  11.072  0.0060  0.4166 -0.1820
29705W        W47229   4.095   2.812  12.026  0.0034 -0.2893  0.1216
29706W        W47230  17.636   9.064   5.905 -0.1262  0.0141  0.2513
29707W        W47231   7.433   9.824   4.056  0.1377 -0.0217  0.0436
29708W        W47232  17.926  16.176   0.279 -0.1828 -0.0243 -0.0015
29709W        W47233  13.457   2.733   1.767  0.2186  0.3002  0.0067
29710W        W47234  17.891   4.553   5.064  0.1278 -0.0160  0.2637
29711W        W47235   2.462  15.100  14.509  0.1751 -0.4195 -0.0389
29712W        W47236   4.883  14.009  11.634 -0.3493  0.0681 -0.0102
29713W        W47237   5.519   8.825  11.102 -0.0566 -0.1508 -0.0391
29714W        W47238  16.089   6.452   4.757  0.0554  0.2347 -0.1671
29715W        W47239  15.111  14.901   2.835 -0.0721  0.0606 -0.1407
29716W        W47240  12.994  10.399  14.820  0.3274  0.2304 -0.0242
29717W        W47241   0.482   3.809   3.559 -0.0360 -0.1906  0.1043
29718W        W47242  14.227   4.958  11.886 -0.4792 -0.2255 -0.0307
29719W        W47243   0.401   3.879   4.054  0.2681  0.1962  0.0391
29720W        W47244   6.507  17.667   0.722  0.0476  0.2079  0.2601
29721W        W47245   4.440   9.198  11.976 -0.2202  0.0378 -0.0024
29722W        W47246   9.330   4.068  15.474 -0.0826 -0.4473  0.1648
29723W        W47247   5.008   7.300  14.154 -0.2614  0.0605  0.3193
29724W        W47248   6.171  15.676  12.272  0.0019  0.0614 -0.2000
29725W        W47249   7.486   7.241   1.444 -0.0808 -0.0435 -0.1818
29726W        W47250   6.657   5.823   2.857 -0.0468 -0.2247  0.1390
29727W        W47251   2.816  13.659   4.498 -0.0713 -0.3753  0.0738
29728W        W47252  11.884  17.677   0.715  0.1028  0.1571  0.0254
29729W        W47253  10.172  13.529   2.602 -0.0431 -0.3039  0.1268
29730W        W47254   6.716  15.735  11.277  0.0080 -0.0697  0.2131
29731W        W47255   8.605  15.661  13.374  0.1316  0.0999  0.0253
29732W        W47256   1.094   3.605   2.119  0.0512 -0.1319  0.3887
29733W        W47257   9.538   1.926   0.563 -0.0391  0.0020 -0.1399
29734W        W47258   9.592   2.561  14.574 -0.0204 -0.2635  0.0935
29735W        W47259   5.641  10.394   2.437 -0.2616 -0.1050 -0.0640
29736W        W47260   3.010  10.461  13.811 -0.4330  0.0586  0.2109
29737W        W47261   7.482  15.271  11.024  0.3013  0.2736  0.0013
29738W        W47262   8.641   1.261   4.384 -0.1909 -0.4047  0.0022
29739W        W47263   5.050   3.729  15.635 -0.0786  0.0092  0.1042
29740W        W47264   4.573  16.166   0.023 -0.1184  0.0910 -0.3157
29741W        W47265   3.670  17.325  14.947  0.1379  0.1119  0.0220
29742W        W47266  10.284  17.902   0.281  0.0000 -0.1317 -0.1338
29743W        W47267   0.939   2.120  15.585  0.1143  0.2339  0.4451
29744W        W47268   0.291   1.020   3.187  0.0864 -0.2049 -0.4572
29745W        W47269   0.705  13.171   3.719 -0.0552  0.0516 -0.4559
29746W        W47270   7.954  11.423   3.558  0.0898 -0.1569  0.1364
29747W        W47271   4.270  12.212   4.628  0.0726  0.2552 -0.1615
29748W        W47272  17.543  13.560  11.792 -0.0071  0.2321 -0.0469
29749W        W47273   3.007   8.738   5.629  0.1128 -0.2419  0.2457
29750W        W47274  12.371  15.657  11.000  0.1144  0.2544  0.1097
29751W        W47275  16.740  18.033   3.801 -0.1461 -0.4839 -0.0510
29752W        W47276   9.084  14.645  16.000 -0.0578 -0.3381  0.0940
29753W        W47277  11.482  14.871   4.097  0.2355 -0.0732  0.1497
29754W        W47278   7.473  13.110   2.716  0.2032  0.2685 -0.5079
29755W        W47279   5.810   8.273   2.220 -0.2569  0.3214 -0.1542
29756W        W47280  14.319  13.263  15.424  0.2248 -0.1465  0.2292
29757W        W47281   9.463   8.212   4.654 -0.0081 -0.3425  0.2180
29758W        W47282   0.604   1.920   5.349 -0.4828  0.4309 -0.0255
29759W        W47283  14.747   3.246  14.500 -0.0154  0.1204  0.1423
29760W        W47284  15.561   6.459  10.962  0.0065 -0.0149 -0.1438
29761W        W47285  17.311  11.604  10.569  0.3059 -0.1786 -0.0184
29762W        W47286   2.186  15.836   1.587  0.1258 -0.3074 -0.0075
29763W        W47287  11.817  15.762   2.949  0.1661 -0.3906  0.1031
29764W        W47288  11.468   0.242  15.870 -0.1157  0.0255 -0.0033
29765W        W47289   5.854  11.947  12.918  0.2388  0.3752 -0.0479
29766W        W47290   8.089   3.779  14.036 -0.0745 -0.1837  0.3756
29767W        W47291  17.832   0.947   1.560  0.1903  0.2204 -0.1316
29768W        W47292   9.787  12.306  11.597  0.3008 -0.2756  0.1219
29769W        W47293   7.664  17.780   4.417 -0.1533 -0.0922 -0.0897
29770W        W47294  14.181   0.872  15.307  0.1688 -0.3091 -0.2374
29771W        W47295   2.310   5.725   5.605 -0.0068  0.3377 -0.1213
29772W        W47296   0.406  12.816  12.093 -0.1137  0.0390 -0.4517
29773W        W47297  14.040  13.216   0.320 -0.2257  0.3501 -0.2101
29774W        W47298   7.181   7.239   3.487  0.1021  0.2376  0.0525
29775W        W47299   3.538   7.952  14.513  0.1750  0.0408  0.2596
29776W        W47300   2.901  12.334   3.887 -0.0310 -0.2496 -0.0077
29777W        W47301   0.997  10.749  13.884  0.3005  0.1199 -0.1054
29778W        W47302   4.397   6.682   1.102 -0.4661  0.2454 -0.3465
29779W        W47303  17.423   3.282  14.052  0.2925  0.0628  0.2047
29780W        W47304   0.147   6.150  14.227 -0.2071 -0.1372 -0.2285
29781W        W47305   7.351   1.952  13.983  0.3112  0.0193 -0.0434
29782W        W47306   6.297  10.187  14.450 -0.0525 -0.1212 -0.1723
29783W        W47307   5.554   2.025   0.694 -0.1156  0.0708 -0.3898
29784W        W47308  10.311  14.399  15.988 -0.4267  0.1710 -0.2620
29785W        W47309   2.258   9.275  13.927  0.1925  0.0619  0.0687
29786W        W47310  12.808   4.859   1.700  0.4792  0.0336 -0.0228
29787W        W47311  13.445   1.012   2.439  0.1532  0.0273  0.0702
29788W        W47312   5.186  16.487  13.294  0.0233  0.2697 -0.0053
29789W        W47313   9.563  14.534  15.152 -0.3657 -0.1662  0.1350
29790W        W47314   8.862   6.191  11.450  0.0292  0.1759  0.2655
29791W        W47315   2.431   4.707   5.428  0.2172  0.1008  0.1347
29792W        W47316   6.936   7.011   3.903 -0.3341  0.0386 -0.1735
29793W        W47317   1.368   0.056  13.183  0.1687  0.1043 -0.0589
29794W        W47318  17.869   8.823  12.408 -0.2041 -0.1717 -0.0476
29795W        W47319   7.484  12.585   3.707 -0.0806  0.0643 -0.0468
29796W        W47320  13.824   2.080  15.978  0.1051 -0.0529  0.0278
29797W        W47321   0.121   1.631   4.028 -0.1277  0.0647 -0.4089
29798W        W47322  10.341  12.036  13.940  0.1476 -0.1768 -0.0582
29799W        W47323  13.404   6.810   1.038  0.0722  0.1639 -0.0680
29800W        W47324   1.775  15.631  13.561 -0.0906 -0.0833  0.0084
29801W        W47325  12.585  10.661   0.248  0.0234  0.0441  0.0664
29802W        W47326  15.401   1.095  15.191 -0.1491  0.1146 -0.1172
29803W        W47327   9.296   9.383   4.656 -0.0633 -0.2844  0.0989
29804W        W47328   5.372  15.921   4.362 -0.1128 -0.0020  0.0307
29805W        W47329   4.862  12.254  11.785 -0.1373  0.0464 -0.1350
29806W        W47330   6.522  16.619  14.267 -0.0591 -0.3678  0.1751
29807W        W47331   0.610  14.139   1.721  0.0406  0.0153  0.0407
29808W        W47332   4.310  15.940  10.610  0.0458 -0.0690 -0.1113
29809W        W47333   0.065  12.729   4.729  0.1569 -0.1355  0.2050
29810W        W47334   6.462   2.873  12.887 -0.4511  0.0192 -0.0554
29811W        W47335  10.342  13.959  13.627  0.1175 -0.3073  0.1092
29812W        W47336  12.922  15.583  13.564 -0.2588 -0.0264  0.0493
29813W        W47337   3.283   0.236  10.610 -0.2272 -0.0786  0.3315
29814W        W47338  11.220   8.914   4.959 -0.1989  0.3692 -0.2896
29815W        W47339  10.916  15.826   0.636  0.0422  0.2187 -0.0580
29816W        W47340  15.964   3.262   4.798  0.0538 -0.1509 -0.0910
29817W        W47341   2.782   2.830   2.993  0.1768 -0.0903  0.1541
29818W        W47342   0.435  16.135   4.504  0.0284 -0.0096 -0.1424
29819W        W47343   5.047  13.814   2.068 -0.0279 -0.0880  0.1381
29820W        W47344   4.646  11.524   0.721  0.1487  0.1734 -0.1586
29821W        W47345   4.021  15.082  15.671 -0.5631 -0.0525 -0.1873
29822W        W47346   2.474   0.184   4.109 -0.4450 -0.0600  0.1497
29823W        W47347   7.413   7.722   1.121  0.0966  0.0602  0.0522
29824W        W47348   5.235  17.433  14.219 -0.0299 -0.0600  0.0139
29825W        W47349  10.485  12.877  12.126  0.0552  0.0415  0.1213
29826W        W47350   8.204   3.048   1.096 -0.0485  0.2455  0.1855
29827W        W47351  18.078  12.842   0.620 -0.3660  0.1102  0.3376
29828W        W47352   0.057   5.217   3.824 -0.2555 -0.1583  0.1325
29829W        W47353   6.646   0.794  13.613  0.2745 -0.0509 -0.0010
29830W        W47354   0.938   6.118   3.918 -0.2220  0.2109 -0.1972
29831W        W47355  15.525  15.490  14.389  0.0033 -0.0305 -0.0107
29832W        W47356  17.628   5.129   2.273 -0.0212  0.0658  0.3229
29833W        W47357   9.258  16.360   1.980  0.0645  0.1139  0.1040
29834W        W47358  12.198  16.657   0.902  0.3673 -0.2373  0.1857
29835W        W47359  10.886  11.571   0.635  0.2399  0.3843  0.0023
29836W        W47360  15.847   9.871  12.842  0.2898 -0.1082  0.2587
29837W        W47361   1.934   4.888   4.390  0.1919 -0.1917 -0.0406
29838W        W47362   5.577   7.667   2.348  0.0062 -0.0699 -0.1382
29839W        W47363  12.084   9.868   2.335 -0.0583  0.3489  0.1580
29840W        W47364  17.174  12.310  11.984 -0.0715 -0.0599 -0.3993
29841W        W47365   7.902   1.001  15.834 -0.0303 -0.0840  0.1677
29842W        W47366  11.968   7.403   3.754 -0.1017 -0.2135  0.3068
29843W        W47367  16.172  11.992  12.785  0.0748 -0.0023  0.1917
29844W        W47368  16.308  16.528   2.370 -0.0071 -0.1227 -0.2229
29845W        W47369   6.675  15.266  15.559 -0.0061  0.1109 -0.0543
29846W        W47370   1.877   5.699   5.343 -0.2562  0.1307  0.0760
29847W        W47371   6.169  14.329  11.645 -0.1639 -0.2315 -0.2582
29848W        W47372  12.818   3.065  12.827  0.3494 -0.1837 -0.1948
29849W        W47373  13.075   2.298   4.166 -0.0326 -0.2101  0.2568
29850W        W47374   4.143   0.052   1.476  0.0550  0.0136  0.0948
29851W        W47375  15.112   7.089   2.972  0.1464 -0.1873  0.0700
29852W        W47376   3.113   3.708   3.764  0.0572 -0.0222 -0.0421
29853W        W47377   2.843   6.889   4.303  0.1702 -0.2838 -0.0591
29854W        W47378  10.119  17.632  13.635  0.0917 -0.2042 -0.1309
29855W        W47379   3.694   8.355   2.325 -0.0086  0.2028 -0.1351
29856W        W47380   2.525   1.565   0.091  0.0266  0.3086 -0.1526
29857W        W47381   5.387  10.117  13.224 -0.2203 -0.0242 -0.3064
29858W        W47382   3.713   7.180   4.707  0.1949 -0.0264 -0.3655
29859W        W47383   8.701  12.793   4.330 -0.2635  0.0466 -0.0056
29860W        W47384  15.794  14.703   3.755 -0.0387  0.2017 -0.1970
29861W        W47385   7.574   2.509   0.996  0.2050 -0.0443 -0.1068
29862W        W47386   4.262   4.005   4.654 -0.0586  0.2693  0.1050
29863W        W47387   8.496  15.188  15.511  0.0005 -0.0193  0.1804
29864W        W47388   6.000  16.159  13.675  0.0028 -0.3208  0.0564
29865W        W47389   6.229  15.429   4.039  0.3035 -0.2019 -0.1025
29866W        W47390   6.761   1.769   3.566  0.1245  0.4862  0.1477
29867W        W47391   2.765   8.475  13.463 -0.2571 -0.4005  0.0413
29868W        W47392  13.185  12.526  11.794 -0.1236 -0.1991  0.1607
29869W        W47393   5.224   3.390   2.435  0.1342  0.0545  0.1658
29870W        W47394   0.664  15.210   3.196 -0.0372  0.1221 -0.0473
29871W        W47395  16.153  10.082   4.133  0.1279 -0.1385 -0.0480
29872W        W47396  16.665  10.341  13.026  0.1588 -0.1415 -0.2528
29873W        W47397  15.661  18.005  13.489 -0.0544  0.1184 -0.1409
29874W        W47398   6.882   3.282  11.208 -0.4976 -0.3367  0.0995
29875W        W47399   3.024   1.034  12.759 -0.1438  0.1145  0.1311
29876W        W47400   0.587   6.147  11.787  0.0088  0.0428 -0.1295
29877W        W47401   6.729   9.117  14.461 -0.2865 -0.2236 -0.3971
29878W        W47402  10.720  15.944   4.060 -0.2652  0.1131  0.0718
29879W        W47403   5.835  12.412   4.874  0.1793  0.4256  0.2974
29880W        W47404  10.625   7.801  10.812 -0.1055 -0.2562 -0.1395
29881W        W47405   5.371  18.107   4.177 -0.0647 -0.1224 -0.1179
29882W        W47406   6.162  14.624   1.178  0.2470  0.0152 -0.2401
29883W        W47407   5.439  10.644  13.170  0.0764 -0.0324  0.2079
29884W        W47408   7.316   0.546   3.805 -0.1186  0.1394 -0.1866
29885W        W47409  12.271   8.237  12.580 -0.0524 -0.0527  0.0562
29886W        W47410  11.813  15.100   4.446  0.0714  0.0658  0.1193
29887W        W47411  14.689   0.824   3.409 -0.1630  0.0156 -0.1474
29888W        W47412   1.608   2.489  11.399 -0.3005  0.1290  0.1448
29889W        W47413   8.805  12.499   2.145  0.0593 -0.1365 -0.2632
29890W        W47414   8.403   7.466   2.331  0.0765 -0.2326  0.1869
29891W        W47415  13.496   4.383  13.346 -0.0662 -0.2538 -0.4368
29892W        W47416   7.126   0.813  12.644  0.1542 -0.0240 -0.0748
29893W        W47417  14.627  11.077   3.944  0.0099 -0.3158 -0.1180
29894W        W47418   2.792  10.689  14.210  0.2631 -0.2063 -0.2550
29895W        W47419   8.087   7.168   0.560 -0.0964 -0.1343  0.0958
29896W        W47420  13.378  10.655   0.502  0.0716 -0.0523  0.0130
29897W        W47421  16.847  14.812   3.909 -0.0593 -0.0395 -0.0008
29898W        W47422  10.716   1.168  15.738 -0.1366 -0.1482 -0.2004
29899W        W47423  10.970   9.524   0.185 -0.0090  0.0007  0.1049
29900W        W47424  10.886   4.091   3.503 -0.0439 -0.0623  0.0692
29901W        W47425   9.925   5.529  14.683 -0.0529 -0.0881  0.0501
29902W        W47426   1.916  17.296   2.517  0.0316  0.0414 -0.0965
29903W        W47427  10.687  14.327  14.418 -0.0580  0.0567  0.0374
29904W        W47428   5.036  11.351  15.684 -0.2063  0.0849  0.1079
29905W        W47429   7.278   5.571  13.148  0.2164  0.3688 -0.0558
29906W        W47430  14.500  11.869   0.932  0.0367  0.0942 -0.1881
29907W        W47431   6.875  14.626   5.552  0.2537  0.0879  0.2139
29908W        W47432   0.238   5.980   1.114  0.2273 -0.0255  0.0907
29909W        W47433   2.063  15.282  11.435 -0.2093 -0.1162  0.0912
29910W        W47434  14.837   9.608   3.942 -0.2455  0.2419  0.2573
29911W        W47435   3.683  15.749   2.544 -0.1366 -0.0860  0.1488
29912W        W47436   9.981   9.153   4.519 -0.0136 -0.0681 -0.2115
29913W        W47437  10.193  12.634  13.441  0.3344  0.1838  0.0460
29914W        W47438  11.451   2.596  10.332  0.1633 -0.1072 -0.1899
29915W        W47439  18.144   1.968  13.669  0.2388 -0.0968 -0.1500
29916W        W47440  11.331  12.883  12.418 -0.0378 -0.1298  0.1533
29917W        W47441   6.100  12.484   0.463  0.2193  0.0109 -0.0842
29918W        W47442  15.122   3.186   3.671 -0.0146 -0.4026  0.2870
29919W        W47443   6.508  11.559   0.263 -0.1158  0.0649 -0.2000
29920W        W47444  13.996  16.350  13.950 -0.3702 -0.0545 -0.1890
29921W        W47445  13.503   8.781   2.266  0.4537 -0.1575  0.0721
29922W        W47446  15.025   5.299   2.317 -0.1038  0.3912 -0.2144
29923W        W47447  12.662  18.015   1.198  0.0395 -0.1315 -0.2944
29924W        W47448   5.473   0.959   2.069 -0.0525 -0.0470 -0.0491
29925W        W47449   1.922  12.489   4.249  0.2050  0.2097 -0.3789
29926W        W47450   9.426   1.686  13.122 -0.2074  0.1455  0.2447
29927W        W47451  11.183   6.412   0.614  0.0621  0.1268  0.0563
29928W        W47452  16.988  10.804  14.508 -0.2100 -0.0012 -0.1265
29929W        W47453  17.863  18.181   1.448  0.1068 -0.2152  0.1985
29930W        W47454  11.636  16.664   1.783 -0.0032  0.1194 -0.2412
29931W        W47455  10.875   5.589   0.280  0.0307 -0.0560 -0.2366
29932W        W47456   6.132  12.829  15.180 -0.2037 -0.2115 -0.1264
29933W        W47457   6.613   5.207   3.857 -0.0577 -0.2086 -0.0322
29934W        W47458   9.348   0.862   1.134  0.0095  0.0265 -0.0513
29935W        W47459  15.533  16.103  12.139 -0.1919  0.0688 -0.0717
29936W        W47460   7.807  16.062  12.216  0.2956  0.1669  0.3624
29937W        W47461   5.034   9.432   2.977  0.0216  0.0799 -0.2506
29938W        W47462  15.374   1.024  11.638  0.1078  0.2818  0.0707
29939W        W47463   8.773  10.739  13.400 -0.1699  0.0445  0.3351
29940W        W47464  14.844   3.171   1.069 -0.2286  0.1914  0.3466
29941W        W47465  12.847   3.862  12.252  0.0184 -0.0889 -0.3546
29942W        W47466   6.161  14.349   4.376 -0.1876  0.1702 -0.0211
29943W        W47467   6.682   5.329   1.526 -0.2731 -0.1370  0.2435
29944W        W47468  13.809  14.785  15.121  0.0402 -0.1894  0.0961
29945W        W47469   7.475  17.629  15.324 -0.2201  0.0478 -0.2546
29946W        W47470  13.298   8.408  13.055 -0.3021  0.1836  0.0555
29947W        W47471  11.622  16.617   0.269 -0.0223 -0.1055  0.1216
29948W        W47472  17.502   3.064   2.838  0.0295  0.0498  0.0009
29949W        W47473   8.912  18.174  13.741  0.0567  0.1202  0.0523
29950W        W47474   0.778   9.890   2.444 -0.0170 -0.1373  0.0736
29951W        W47475   8.646   5.789  15.447 -0.2302 -0.1521  0.0577
29952W        W47476   6.457   8.778  14.053  0.0945  0.0344  0.0525
29953W        W47477  16.767   5.707  11.169  0.1024  0.4319  0.0384
29954W        W47478  11.778   3.164  11.365  0.0460  0.1043 -0.0756
29955W        W47479   2.751   0.559  13.731 -0.2505  0.0733 -0.1264
29956W        W47480   4.431   9.818  15.094 -0.0695  0.0739  0.0814
29957W        W47481   5.828   7.837  15.608 -0.0650  0.1418 -0.4412
29958W        W47482  17.035  12.385   2.238 -0.1454 -0.2872 -0.2496
29959W        W47483  14.995   4.290  11.414 -0.3294  0.0164 -0.0159
29960W        W47484   3.697   8.850  11.402 -0.2063  0.1673 -0.1885
29961W        W47485   5.644  11.775   3.117  0.0514 -0.1838 -0.1951
29962W        W47486   4.007   9.495  12.362 -0.2402 -0.0583 -0.0380
29963W        W47487  11.939  11.465  13.920 -0.0129 -0.1839  0.1564
29964W        W47488   4.633  14.712   2.251  0.0777 -0.3435 -0.2803
29965W        W47489  17.436   6.119  14.885 -0.1618 -0.1745  0.0444
29966W        W47490   1.181   2.987  13.481 -0.2448 -0.0082 -0.1073
29967W        W47491   6.072   4.162   1.250  0.0987  0.2315  0.0324
29968W        W47492   4.049   9.664  14.463 -0.0628 -0.1895  0.1838
29969W        W47493   1.480   0.031  14.838 -0.2788 -0.0033  0.0129
29970W        W47494   3.356   3.967   0.269  0.0599  0.4228 -0.1961
29971W        W47495  18.017  14.253   3.337  0.1656 -0.0332  0.0694
29972W        W47496   2.559  15.989   1.211 -0.3671  0.0554  0.0911
29973W        W47497  17.996   4.933   3.318 -0.0154  0.2662 -0.0198
29974W        W47498   6.019   3.463   1.738  0.2938 -0.0144 -0.0675
29975W        W47499  15.929   0.227  13.455  0.1234  0.2824  0.0326
29976W        W47500  17.589   8.582   4.506 -0.0797 -0.1924  0.0733
29977W        W47501  12.846   1.431  12.957  0.0128  0.0460  0.1263
29978W        W47502   3.217   7.544   0.884  0.0734 -0.2568 -0.2017
29979W        W47503   5.881   6.777   3.193 -0.1948  0.3250 -0.1673
29980W        W47504  17.146   5.140   2.397 -0.0246 -0.1969 -0.2937
29981W        W47505   1.345   6.894   4.364  0.0901 -0.1788  0.1909
29982W        W47506   9.643   9.754   0.143 -0.1698  0.1438 -0.0940
29983W        W47507  12.038  11.001  11.678  0.0261 -0.1339  0.1168
29984W        W47508   0.387   6.040   2.492  0.1686 -0.0585 -0.3031
29985W        W47509  11.551  16.436  12.107  0.1098 -0.0161  0.3259
29986W        W47510   4.528   9.434  10.479 -0.1220  0.0944  0.2228
29987W        W47511   5.190  13.449  12.840  0.0901 -0.2356 -0.0388
29988W        W47512  12.541   1.528  13.851 -0.0683  0.1927  0.4009
29989W        W47513  12.306  14.151   5.130 -0.2757  0.3581  0.1479
29990W        W47514  10.102  11.292   2.830  0.5051 -0.1918  0.2675
29991W        W47515  16.686   5.090  11.741  0.1046  0.1150  0.0812
29992W        W47516  13.665   4.384  15.866 -0.2730 -0.4519 -0.0134
29993W        W47517   4.359   2.415  14.472  0.0018 -0.2149  0.2459
29994W        W47518  11.564  15.246  15.423  0.1121  0.1044  0.1145
29995W        W47519   5.821  13.222  14.590  0.2922 -0.2613  0.0978
29996W        W47520   3.413   3.646  14.993  0.1610 -0.0248 -0.2167
29997W        W47521  10.328   9.864  15.311  0.2295  0.0736  0.0561
29998W        W47522   5.177  15.514  15.914 -0.0081 -0.1110 -0.1400
29999W        W47523   6.725  17.243   3.880  0.2503  0.0886  0.1996
30000W        W47524   9.462   3.389  15.567 -0.2655 -0.1479  0.0617
30001W        W47525   6.475   5.719  15.952  0.3153 -0.3354  0.4044
30002W        W47526   3.893   4.398  16.027 -0.3288  0.2304  0.0884
30003W        W47527   9.255  14.939  11.896  0.0472 -0.2402 -0.1170
30004W        W47528  15.303   9.542   4.172  0.1626  0.1278 -0.0714
30005W        W47529  11.009  14.197   1.160  0.1648 -0.4610  0.0726
30006W        W47530   7.991  12.761  14.369 -0.2699  0.0442  0.1443
30007W        W47531   1.527  15.271   2.748 -0.4901  0.2441  0.0845
30008W        W47532   7.011  15.404  15.209 -0.1268  0.0269  0.2253
30009W        W47533  14.274  16.052   0.117  0.0392  0.0654 -0.3563
30010W        W47534   0.392   0.249  11.304  0.2256  0.2370 -0.0431
30011W        W47535  11.050   7.124  12.182 -0.0470  0.0552  0.0053
30012W        W47536  13.994   6.023  11.608 -0.0976  0.1370  0.3140
30013W        W47537  11.589   4.132  13.591  0.3016  0.1712  0.0376
30014W        W47538  16.003   0.249   3.608  0.0743 -0.3588 -0.1520
30015W        W47539  14.177   1.893   0.148  0.0645  0.0012  0.2827
30016W        W47540   6.363  15.738  11.750 -0.1912 -0.3869 -0.0717
30017W        W47541  12.466   2.303  11.883 -0.0607 -0.3072 -0.1664
30018W        W47542   0.772   2.665  11.591 -0.0757  0.0653  0.5180
30019W        W47543  12.655   5.172   3.964 -0.5328  0.1236 -0.2255
30020W        W47544   3.288   5.690  13.082 -0.1392  0.0945  0.0742
30021W        W47545   9.125  13.962   1.820 -0.1467  0.2570  0.1629
30022W        W47546   5.839  14.821   2.398  0.3109  0.0389 -0.3166
30023W        W47547  12.966   1.124  15.130  0.1870  0.1152 -0.1598
30024W        W47548  10.652   7.610   2.418  0.1808  0.1413 -0.1867
30025W        W47549  13.144  13.630   0.265  0.1299  0.3975 -0.0678
30026W        W47550   6.415   3.278   1.297  0.3326  0.2852 -0.2675
30027W        W47551  17.232   8.262  15.059 -0.1324 -0.0907  0.2464
30028W        W47552   1.269   5.582   1.268 -0.0706 -0.2826  0.0442
30029W        W47553   3.157  10.502   4.897  0.2965 -0.3684  0.1020
30030W        W47554  10.574  10.771  11.420  0.3423  0.2328  0.4950
30031W        W47555  17.974  11.384  15.529 -0.0764 -0.1760 -0.1468
30032W        W47556   1.707   4.638   2.060  0.3015 -0.0815  0.1622
30033W        W47557   3.279   7.333   5.133  0.1246  0.0858  0.0488
30034W        W47558  15.237   6.492  13.730  0.1864 -0.1602  0.2708
30035W        W47559  17.807   7.537   5.092  0.0482 -0.1440 -0.2973
30036W        W47560   9.566   7.181   1.411  0.1052 -0.2638 -0.1958
30037W        W47561   3.864   6.927  12.810 -0.0411  0.1809  0.0790
30038W        W47562   0.355   3.707  15.396  0.1160  0.2238 -0.0913
30039W        W47563   4.412   4.108  14.313  0.1488 -0.1906  0.0837
30040W        W47564   9.730  15.879   2.775  0.1125 -0.1031 -0.0477
30041W        W47565  17.685  16.547   4.564  0.3510  0.2524 -0.4200
30042W        W47566  13.595   0.132  15.677 -0.3497  0.0963 -0.3243
30043W        W47567   5.721   4.079  13.704  0.2671  0.1884  0.2483
30044W        W47568  12.032  18.046   0.458  0.0163 -0.2619  0.0716
30045W        W47569  11.687   7.817  14.748 -0.0940  0.2560  0.1828
30046W        W47570   8.613   6.903  11.985  0.0113  0.0194  0.2448
30047W        W47571   4.804  12.261   3.997 -0.4333  0.0067  0.0363
30048W        W47572  13.193  14.276  10.630 -0.1086  0.2114 -0.1312
30049W        W47573   9.034  12.254   3.158 -0.1419  0.1332 -0.2388
30050W        W47574  11.752  17.086   3.067  0.1145 -0.1400 -0.1666
30051W        W47575   2.011  16.477  12.958 -0.0532 -0.1279  0.1527
30052W        W47576  16.743  12.728   1.987 -0.1040  0.2450  0.2020
30053W        W47577   9.492   8.127  13.538 -0.1275  0.4099  0.2077
30054W        W47578   2.818  12.907   0.942  0.1249 -0.3583  0.0436
30055W        W47579   7.635   8.026  14.821 -0.1819 -0.0502  0.0201
30056W        W47580  12.614  16.122  12.465  0.4442 -0.0269 -0.1207
30057W        W47581   7.201  11.461  13.347  0.2925  0.3078 -0.3582
30058W        W47582  16.006  17.981   4.376  0.1231 -0.1263  0.0773
30059W        W47583  11.341  16.415  15.443 -0.4110 -0.0890 -0.0014
30060W        W47584   8.131   2.598   2.439  0.1779 -0.1654 -0.1668
30061W        W47585   1.123  16.371   3.443  0.1240 -0.1177 -0.0591
30062W        W47586  14.461  15.712  15.841  0.0793  0.2234  0.0548
30063W        W47587  14.242  10.109  12.240  0.0149 -0.2553 -0.2261
30064W        W47588  13.557   3.168  12.395  0.1144 -0.0855 -0.0645
30065W        W47589   0.592  13.967   2.673  0.4284 -0.1714  0.2390
30066W        W47590  16.110   3.862   4.940 -0.0715  0.0911 -0.2577
30067W        W47591   9.389   7.495  11.377 -0.3309  0.1009 -0.1499
30068W        W47592   8.640  11.942   0.032  0.2119 -0.2326 -0.0469
30069ION     NA47593  16.038  15.353   5.680 -0.2878 -0.0097  0.1029
30070ION     NA47594  12.827   0.543   4.472 -0.0306 -0.2402 -0.1864
30071ION     NA47595  16.893  17.965  10.978  0.2206 -0.2107  0.1402
30072ION     NA47596   6.823  12.582  11.982 -0.3308  0.3390 -0.1040
30073ION     NA47597  17.233  16.752   2.733  0.1289  0.3338  0.0813
30074ION     NA47598  16.721   4.509   5.229 -0.0872 -0.1771  0.0655
30075ION     NA47599  16.978   0.160   5.444  0.2352  0.0621  0.1476
30076ION     NA47600   0.897  16.771  14.233  0.2030 -0.1588 -0.0921
30077ION     NA47601  13.013   3.791  10.411  0.0660 -0.1806  0.1927
30078ION     NA47602  13.471   9.899   0.982  0.3340 -0.1854  0.4119
30079ION     NA47603  15.878  12.981  10.463 -0.2405  0.1078 -0.0075
30080ION     NA47604   5.151   1.540   5.391  0.0131 -0.0370  0.0877
30081ION     NA47605  15.667   8.645   0.692 -0.1650  0.1067 -0.0036
30082ION     NA47606  18.064   2.795   2.803 -0.2791 -0.1885  0.0870
30083ION     NA47607   4.876   4.861  13.137 -0.0007 -0.0611  0.1249
30084ION     NA47608   0.241   9.682   0.185 -0.4241  0.1947 -0.0743
30085ION     NA47609   9.766  12.070  10.551  0.0195 -0.0638 -0.0396
30086ION     NA47610  11.468   8.747  14.089 -0.0321 -0.2723 -0.1198
30087ION     NA47611   2.646   2.022   5.392 -0.2922 -0.1195 -0.1117
30088ION     NA47612  12.475  15.782  10.539  0.1174  0.0731  0.3303
30089ION     NA47613   3.185   5.634   5.715 -0.0778  0.2010  0.3599
30090ION     NA47614  11.429   8.409   5.761  0.1688  0.0516 -0.1409
30091ION     NA47615  16.142   2.337  10.801  0.0951 -0.4570  0.2188
30092ION     NA47616   3.734  12.588   1.058  0.0592  0.2581  0.1489
30093ION     NA47617  13.999  10.713   6.108  0.0131  0.0774  0.1188
30094ION     NA47618   3.710   8.993   0.613 -0.1996 -0.1621 -0.0778
30095ION     NA47619  17.645   5.633  11.103 -0.3218 -0.1157 -0.2008
30096ION     NA47620  11.685  14.841  10.501 -0.0728 -0.2311 -0.2395
30097ION     NA47621  15.804   3.140  16.030 -0.0224  0.3151 -0.2807
30098ION     NA47622  15.574  17.280   5.849  0.0569  0.0097 -0.1598
30099ION     NA47623   5.675   5.124   5.743  0.0362  0.1931  0.0301
30100ION     NA47624  17.710   5.599   6.345 -0.1097 -0.0740 -0.0756
30101ION     NA47625  14.054   3.297  14.106 -0.1018 -0.0885  0.3602
30102ION     NA47626   9.684  14.548   1.839  0.4652 -0.0871 -0.0535
30103ION     NA47627   0.395   2.290   0.803  0.2516  0.0729  0.2052
30104ION     NA47628   8.121   8.487  14.307  0.0552  0.1087 -0.0332
30105ION     NA47629  11.050  11.870   5.104  0.0782  0.2412  0.3256
30106ION     NA47630   0.673  11.641  13.407  0.1077  0.1099 -0.0539
30107ION     NA47631   2.361   4.704   5.924  0.0141  0.1356 -0.0244
30108ION     NA47632   8.886   4.986  13.145 -0.0164  0.5015 -0.2347
30109ION     NA47633   9.350  11.345   5.836  0.1532 -0.0928  0.0563
30110ION     NA47634  17.622  12.766  10.761 -0.1296 -0.0259 -0.4373
30111ION     NA47635  15.977  16.007  10.728 -0.1794 -0.0802  0.1964
30112ION     NA47636   3.168   0.562   2.103  0.0557  0.0270  0.0550
30113ION     NA47637   4.813  13.861   5.354  0.1540  0.0810 -0.4552
30114ION     NA47638  17.869   1.849   3.172  0.0273  0.2089  0.0710
30115ION     NA47639   4.378  17.855  10.393  0.4215 -0.4798 -0.4188
30116ION     NA47640   8.206  17.143   0.940  0.0000 -0.1843  0.1171
30117ION     NA47641  15.688   3.910   5.745 -0.0169 -0.3944  0.1482
30118ION     NA47642   3.434  13.366  10.412 -0.0846  0.1197  0.1041
30119ION     NA47643   1.136  11.008   4.504  0.2124  0.0116  0.0564
30120ION     NA47644   5.972   0.863   5.498 -0.0359  0.1210  0.0222
30121ION     NA47645  16.911   5.805  14.254 -0.4220 -0.0112 -0.0426
30122ION     NA47646  17.967   3.964  11.160  0.0819  0.1544 -0.0711
30123ION     NA47647   0.502   4.334   6.188  0.4177  0.0181 -0.1192
30124ION     NA47648  11.332   2.802  13.705 -0.0411  0.2274  0.1641
30125ION     NA47649   6.270  14.576  10.090 -0.2365 -0.0557 -0.0365
30126ION     NA47650   1.406  15.241   0.036  0.2474 -0.0161 -0.0168
30127ION     NA47651   3.859  13.737   3.157 -0.0936  0.2854 -0.1448
30128ION     NA47652  15.539  13.923   3.061 -0.0789  0.0864 -0.1150
30129ION     NA47653  10.713  14.476  10.732  0.3113 -0.1707 -0.1287
30130ION     NA47654  17.813   0.826   3.686  0.1562 -0.3226  0.1008
30131ION     NA47655  10.145   4.334   5.541  0.0304 -0.0335  0.1641
30132ION     NA47656   0.863   7.362  12.629  0.0202  0.2312  0.1963
30133ION     NA47657  17.217   3.200   5.976  0.3321  0.0738 -0.0854
30134ION     NA47658  17.606  14.806   0.809  0.1458 -0.2630  0.1050
30135ION     NA47659  17.275   2.516   1.144  0.1320 -0.1036  0.0576
30136ION     NA47660  14.086  10.241  11.432 -0.4012 -0.3619 -0.1105
30137ION     NA47661   7.853   5.895  10.126 -0.3579  0.0983 -0.1313
30138ION     NA47662  15.674   7.771  13.429  0.0959 -0.2991 -0.3139
30139ION     NA47663   0.509  14.660   5.064  0.1006  0.0745  0.1368
30140ION     NA47664   0.655   3.054  10.744  0.2316  0.0135 -0.1446
30141ION     NA47665   5.521   2.228  15.745 -0.3595  0.0931 -0.0380
30142ION     NA47666   2.002   7.278  15.711  0.1221 -0.2160 -0.0591
30143ION     NA47667   1.810   0.208   3.226  0.1536 -0.0724 -0.1582
30144ION     NA47668  14.524   6.374  10.713  0.0965 -0.1658 -0.0614
30145ION     NA47669   2.665  13.071   3.955  0.2761 -0.0915  0.1999
30146ION     NA47670  15.224   5.048   2.913  0.0828 -0.0730 -0.0080
30147ION     NA47671   1.990   1.041  15.517  0.0749 -0.0364  0.1016
30148ION     NA47672  16.665   8.525   5.832 -0.0275  0.3186 -0.0504
30149ION     NA47673   4.091  14.190  12.688  0.0797 -0.1422 -0.2852
30150ION     NA47674   0.563  16.251   0.589 -0.2025 -0.0778  0.1842
30151ION     NA47675   3.838   1.019   5.323  0.1309 -0.1475 -0.0286
30152ION     NA47676   9.020   6.454  10.267  0.0733 -0.1770  0.1030
30153ION     NA47677   8.130  13.477  10.185  0.2748  0.1661  0.1211
30154ION     NA47678   2.633   8.532  10.382 -0.0940  0.2639 -0.0841
30155ION     NA47679  14.551  17.640   1.167 -0.1469  0.0965 -0.0683
30156ION     NA47680  13.465   6.223   4.447 -0.0657 -0.2372 -0.1575
30157ION     NA47681   5.451   3.332   5.397  0.3919 -0.1252 -0.1405
30158ION     NA47682  15.080   2.645   6.037  0.0054  0.1124  0.1886
30159ION     NA47683   2.537   3.028   1.528 -0.2318  0.1096 -0.2273
30160ION     NA47684   9.384   7.389  15.586 -0.0092  0.0675 -0.0318
30161ION     NA47685   4.765   0.147   2.056  0.2085 -0.2456 -0.0207
30162ION     NA47686   7.054   1.724  10.263 -0.0965  0.2618 -0.0339
30163ION     NA47687   6.664  13.825   1.962 -0.1509 -0.1170 -0.0613
30164ION     NA47688   2.819   2.703   5.474  0.2519  0.2566  0.4190
30165ION     NA47689   4.341  12.708  10.637  0.1960  0.2195 -0.1667
30166ION     NA47690  13.597   5.139  10.729  0.0711  0.1736  0.0620
30167ION     NA47691  14.997  15.410   5.928 -0.0298 -0.2120  0.4139
30168ION     NA47692  13.571  14.236  10.236 -0.0892  0.1086  0.3242
30169ION     NA47693  15.658  12.264  13.017 -0.2597  0.1464  0.0275
30170ION     NA47694   2.378  15.739  14.391 -0.2842 -0.3200 -0.0251
30171ION     NA47695  17.707  16.620  15.911  0.0921  0.4232 -0.0434
30172ION     NA47696  17.274  10.888   3.487  0.0499 -0.2880  0.0480
30173ION     NA47697  12.166   5.221   5.730  0.0027  0.0444 -0.1931
30174ION     NA47698  16.979   3.121   4.133 -0.1235  0.1472 -0.2907
30175ION     NA47699  16.626   2.581   5.818  0.1717 -0.0750 -0.1806
30176ION     NA47700  12.429  13.695   6.009 -0.1769 -0.1506  0.2272
30177ION     NA47701   0.367   7.680   6.026 -0.0067  0.1100 -0.2596
30178ION     NA47702   2.065  13.388  13.869  0.0715  0.2323  0.3666
30179ION     NA47703   4.541  11.750   2.305  0.1425 -0.0482 -0.1753
30180ION     NA47704   9.548   9.700  10.792  0.0981  0.3476  0.1066
30181ION     NA47705   1.353  11.472  11.704 -0.1321  0.0868 -0.1285
30182ION     NA47706   6.595  15.983  12.180  0.0627  0.2250  0.1436
30183ION     NA47707  14.511   7.885   3.115  0.2416 -0.3038 -0.0297
30184ION     NA47708  10.520   1.863   5.099 -0.0283  0.0519 -0.0127
30185ION     NA47709   5.143   1.973   1.031  0.2606 -0.2294  0.2437
30186ION     NA47710   8.354  18.016  10.444  0.1668 -0.3048 -0.2092
30187ION     NA47711   6.886  17.324  15.897  0.2018 -0.0728  0.0917
30188ION     NA47712   3.040  15.908  10.430  0.0000  0.0455  0.0204
30189ION     NA47713   7.227  11.805  10.264  0.0459 -0.2914  0.0879
30190ION     NA47714  11.863   6.846  10.620 -0.3083  0.1862 -0.0459
30191ION     NA47715   1.572   1.313  14.369 -0.1246  0.0967 -0.1923
30192ION     NA47716   0.742   7.200  10.805 -0.0835  0.1629 -0.0649
30193ION     NA47717   2.316   7.659  10.570  0.0318 -0.0279 -0.0029
30194ION     NA47718  10.290  10.117  10.616 -0.2214 -0.1572 -0.1447
30195ION     NA47719  11.327   2.543   1.184  0.0476  0.1708  0.1143
30196ION     NA47720   6.013   5.122  10.378  0.4507  0.0004 -0.2830
30197ION     NA47721  14.384  14.834  10.437  0.1799 -0.1961 -0.1391
30198ION     NA47722   9.899  15.306  14.820  0.1167 -0.1724 -0.1866
30199ION     NA47723   2.212  15.377   5.761 -0.1900  0.2239 -0.2257
30200ION     NA47724  12.848   0.273  10.356 -0.1421 -0.1182 -0.6414
30201ION     NA47725  10.707   2.720  14.315 -0.2290  0.1739  0.0977
30202ION     NA47726   6.719   0.893  10.337  0.2026 -0.3641 -0.1646
30203ION     NA47727  13.043  10.605   5.977  0.4787 -0.0795 -0.1805
30204ION     NA47728  13.152  15.755   2.615 -0.0659 -0.0093 -0.2015
30205ION     NA47729  16.066   5.395  11.113 -0.0299  0.0459 -0.1717
30206ION     NA47730   6.063  11.198  12.504  0.0022 -0.1560 -0.3495
30207ION     NA47731   2.522  11.656   0.935 -0.0617 -0.2690 -0.1060
30208ION     NA47732   0.026  12.008  10.890  0.0994  0.1192  0.2351
30209ION     NA47733   7.300  10.878   1.362 -0.0122 -0.0073  0.0237
30210ION     NA47734   4.673   6.966  10.043  0.0404 -0.0139 -0.1201
30211ION     NA47735   1.182  14.816  14.739  0.0252 -0.0472 -0.0130
30212ION     NA47736   0.672   0.178  10.481 -0.0393  0.0577  0.2620
30213ION     NA47737  12.361   7.218  14.964  0.0454 -0.1803  0.0279
30214ION     NA47738  16.098   3.324  10.891 -0.0286  0.2362  0.1679
30215ION     NA47739   6.886   8.774  10.051  0.2974 -0.1169  0.1059
30216ION     NA47740   0.079   4.711  10.998 -0.0047 -0.2042  0.0162
30217ION     NA47741   3.355   5.728  10.692 -0.2648  0.2319 -0.5024
30218ION     NA47742   5.780   3.479  16.087 -0.0736  0.2085  0.2088
30219ION     NA47743   2.202  16.145  10.382 -0.0307  0.1976  0.1291
30220ION     NA47744   8.514  10.148   5.178  0.3495 -0.1580  0.1550
30221ION     NA47745  16.514  10.032   3.805  0.0742  0.0207 -0.0132
30222ION     NA47746  15.034   5.151   5.839 -0.1220  0.0963 -0.0019
30223ION     NA47747   5.908  14.641  12.624  0.0529 -0.0272  0.0474
30224ION     NA47748   0.423  10.701  10.796 -0.2794 -0.0673 -0.1922
30225ION     NA47749  17.373   4.383   1.724  0.0212 -0.4063  0.1486
30226ION     NA47750   0.034   3.426   1.490  0.5338 -0.2701  0.0202
30227ION     NA47751   6.827   2.278   5.309  0.1743  0.1618  0.1763
30228ION     NA47752   3.965  15.775  15.408 -0.0587  0.1406 -0.0639
30229ION     NA47753   0.446  12.483  11.685 -0.0678  0.2710 -0.0829
30230ION     NA47754  13.027  10.475  10.604  0.0164 -0.1899  0.2406
30231ION     NA47755  13.819   7.151  10.885 -0.1783  0.1514 -0.1614
30232ION     NA47756   5.515   8.554   5.916 -0.2689 -0.0043  0.1269
30233ION     NA47757  11.460  15.676   5.867  0.2428  0.0533 -0.6926
30234ION     NA47758   3.000  17.092   5.436  0.1134 -0.1227  0.1505
30235ION     NA47759  12.714   9.843  13.146  0.1791 -0.1758  0.1118
30236ION     NA47760  12.234  14.606   6.177 -0.0111  0.1091  0.1357
30237ION     NA47761   5.678  15.916  14.404  0.1600  0.0951 -0.2786
30238ION     NA47762  13.518   8.347  10.818  0.0776 -0.1204  0.0646
30239ION     NA47763  14.472   1.558  10.862  0.0616 -0.2071 -0.2975
30240ION     NA47764   0.764  14.889  13.042  0.2647 -0.0069 -0.3468
30241ION     NA47765  14.534  13.369   6.091 -0.2740  0.2013  0.1102
30242ION     NA47766  14.787   3.183   0.024  0.0271 -0.1330 -0.3024
30243ION     NA47767  11.320  13.345   4.162  0.0326  0.1810  0.0634
30244ION     NA47768   1.866  17.153   0.298 -0.0945 -0.1224 -0.2359
30245ION     NA47769  16.902  13.379   0.634 -0.1144  0.2665  0.3320
30246ION     NA47770  10.768   7.161   4.095 -0.2202 -0.2494  0.0116
30247ION     NA47771  12.327   4.438  10.435  0.0464 -0.1713  0.0426
30248ION     NA47772  15.648   9.877  10.909 -0.1655 -0.0835 -0.2959
30249ION     NA47773   5.024  13.827  15.895 -0.2724 -0.0171  0.1900
30250ION     NA47774  12.995   9.960  14.527 -0.1704 -0.0781  0.0681
30251ION     NA47775  14.924  14.652  12.993  0.0480  0.0289 -0.0406
30252ION     NA47776   0.881  12.239  10.775 -0.1772  0.0844 -0.0708
30253ION     NA47777   1.257  17.743  13.035 -0.2908  0.1069  0.0911
30254ION     NA47778  13.131   7.034  14.376  0.0719 -0.1240 -0.3068
30255ION     NA47779  16.222  10.527   2.845  0.1078  0.1420 -0.2259
30256ION     NA47780   5.252   8.841  10.269 -0.1773  0.3357  0.0980
30257ION     NA47781  13.094  12.368  14.762 -0.2323  0.0227 -0.0984
30258ION     NA47782  17.420  12.044   5.896  0.4421  0.1036  0.0800
30259ION     NA47783  17.459   6.621  11.138  0.2423 -0.0488 -0.2160
30260ION     NA47784   3.361  14.932   0.967  0.1109  0.2119  0.1216
30261ION     NA47785   5.191   4.109  12.067  0.1532  0.4307  0.0238
30262ION     NA47786  17.205  16.212  10.866 -0.1489 -0.1010  0.2359
30263ION     NA47787  15.720  15.344   2.414  0.1882  0.1731 -0.1274
30264ION     NA47788   2.678   2.837   3.900 -0.0104 -0.0069  0.0127
30265ION     NA47789   0.679  16.851  12.722 -0.0009  0.1667 -0.0638
30266ION     NA47790  11.546   1.577   4.994  0.0438 -0.1683  0.0354
30267ION     NA47791   9.342  15.528   2.592  0.1096  0.0722 -0.0684
30268ION     NA47792  10.295   4.166  13.459 -0.0287 -0.1868 -0.1063
30269ION     NA47793  12.590  17.483  10.399  0.0374  0.0527 -0.1247
30270ION     NA47794  11.633  11.832   0.660 -0.2015 -0.1705 -0.0532
30271ION     NA47795  11.915   5.548  14.674 -0.4065  0.1577 -0.0082
30272ION     NA47796   8.964   5.055  10.010 -0.2173 -0.1594  0.0451
30273ION     NA47797  14.551  10.508  10.508 -0.2542  0.0234 -0.0737
30274ION     NA47798  18.154   2.950   6.022 -0.0830 -0.0381 -0.1187
30275ION     NA47799   6.699  15.847  15.334  0.2014 -0.0993 -0.0307
30276ION     NA47800  11.799   3.447   5.181 -0.3076  0.0391  0.1646
30277ION     NA47801   2.958   7.237  15.686 -0.0559 -0.3523  0.3659
30278ION     NA47802   9.822  17.239   5.109  0.0668  0.0177  0.2490
30279ION     NA47803   6.549   9.932  13.323  0.3416 -0.1799  0.0544
30280ION     NA47804  11.485   6.037  13.861 -0.4539  0.0996  0.0425
30281ION     NA47805   7.063  10.297   3.275 -0.0173  0.1496 -0.1194
30282ION     NA47806   0.745  12.819   5.486 -0.0492 -0.0234  0.1703
30283ION     NA47807   5.579  11.183  10.027 -0.1511  0.1471 -0.2225
30284ION     NA47808  17.142   1.341   0.531 -0.2255 -0.0832 -0.3457
30285ION     NA47809  10.568  17.961  10.368 -0.1891 -0.2681  0.0445
30286ION     NA47810   4.383   2.747   5.375  0.0805 -0.0341 -0.2231
30287ION     NA47811   4.206  14.796   5.555 -0.0644 -0.3005 -0.1945
30288ION     NA47812   7.335  17.365  10.369 -0.1943  0.2734 -0.0234
30289ION     NA47813  17.803  15.349   0.922  0.3457  0.3347  0.0532
30290ION     NA47814   7.060   6.208  10.100  0.0760 -0.3756  0.1287
30291ION     NA47815   3.033   2.875  10.468  0.2661 -0.0063  0.0287
30292ION     NA47816  10.968   5.279   3.376  0.0169  0.0262 -0.1121
30293ION     NA47817   6.421  10.852   1.904  0.2387  0.2818  0.2283
30294ION     NA47818   4.940  18.168  14.117 -0.0994 -0.1429 -0.2573
30295ION     NA47819   5.475  14.510   2.153 -0.1213  0.0731 -0.4842
30296ION     NA47820   0.531  16.939  15.045 -0.2535 -0.0325  0.1852
30297ION     NA47821   5.763  12.010   9.976 -0.0082 -0.0061 -0.3887
30298ION     NA47822  13.639   9.172   5.989  0.1788  0.2098 -0.1297
30299ION     NA47823   0.354   9.126  14.869 -0.0867  0.3223 -0.1591
30300ION     NA47824   6.903  17.295   5.226 -0.1033  0.1220  0.2408
30301ION     NA47825  16.981  16.547   0.674 -0.2320  0.0352  0.2360
30302ION     NA47826   7.717   4.989  10.127 -0.2633  0.0330  0.0379
30303ION     NA47827  12.918   2.547   5.450  0.3204 -0.0526 -0.0531
30304ION     NA47828  12.595   1.003  12.300 -0.1946  0.1545  0.1220
30305ION     NA47829   5.083  13.648   1.100  0.1943 -0.1198  0.2083
30306ION     NA47830  10.426  16.479   5.579 -0.1250  0.2650  0.1527
30307ION     NA47831   2.374   6.610   0.097 -0.1785  0.1270 -0.0149
30308ION     NA47832   0.962   5.240  10.771  0.1340 -0.0362  0.0528
30309ION     NA47833   2.203   3.145   0.962 -0.2003  0.0074 -0.2859
30310ION     NA47834   8.430   4.431  10.112 -0.1168 -0.0731 -0.0266
30311ION     NA47835  10.494   7.768   5.866 -0.1300 -0.0043 -0.2059
30312ION     NA47836   3.144   6.490   0.029  0.0623  0.0014  0.1498
30313ION     NA47837   2.318  11.226   0.192  0.0199 -0.1743  0.0632
30314ION     NA47838   1.954   8.642   4.324  0.2530 -0.1536 -0.0354
30315ION     NA47839   1.830   9.292   1.211 -0.2141 -0.1880  0.0514
30316ION     NA47840   7.248   7.836  10.171 -0.0265 -0.0811 -0.3647
30317ION     NA47841   9.656   6.388  10.818 -0.0849 -0.1382 -0.0591
30318ION     NA47842   8.339  14.304   3.570 -0.2843 -0.0351 -0.2022
30319ION     NA47843   9.170  13.825  13.925 -0.1795  0.2211 -0.2320
30320ION     NA47844   5.015   1.261   2.171  0.3162 -0.0125  0.2419
30321ION     NA47845   2.652  10.859   5.979 -0.1601  0.3731  0.0125
30322ION     NA47846   3.064  12.877   5.519 -0.0441  0.3728  0.1432
30323ION     NA47847  17.799  10.804  10.568 -0.2394 -0.1462 -0.2524
30324ION     NA47848  16.339  11.541  13.913  0.1805 -0.1573  0.0995
30325ION     NA47849   0.795  17.433  10.468 -0.1302 -0.2785  0.0390
30326ION     NA47850   0.798  10.648   0.792  0.0115  0.2325  0.2259
30327ION     NA47851  16.861  13.551   1.933  0.0457 -0.0141  0.2276
30328ION     NA47852   1.764  15.693   2.793  0.0684 -0.2773 -0.4306
30329ION     NA47853  10.557   6.759  13.394  0.0406 -0.2735  0.0647
30330ION     NA47854   1.799   8.078  15.212  0.0728 -0.0320  0.1659
30331ION     NA47855  13.503   7.518   5.983  0.1737  0.2508 -0.2471
30332ION     NA47856   7.981  17.271  10.970 -0.3096  0.2372 -0.3275
30333ION     NA47857  16.062  14.094  10.692 -0.5050 -0.0809 -0.1739
30334ION     NA47858   4.170  10.124  10.160 -0.0858 -0.2627  0.1068
30335ION     NA47859   6.758   4.048   1.464 -0.3197 -0.3149  0.0303
30336ION     NA47860  14.296   2.881  12.019  0.3470  0.1530 -0.0299
30337ION     NA47861   7.046  14.868  10.418  0.0666 -0.1724 -0.1326
30338ION     NA47862   3.302  10.166   2.084  0.2104 -0.0316  0.1951
30339ION     NA47863  15.031   7.937  10.811  0.0539  0.0318 -0.0237
30340ION     NA47864  12.177  14.609  15.487  0.1717  0.1387  0.1886
30341ION     NA47865   5.142  15.132   5.535  0.2217 -0.0312 -0.1611
30342ION     NA47866   7.798   3.320   5.651  0.1190 -0.1504  0.1518
30343ION     NA47867  15.381   4.009  10.744 -0.1271  0.5197  0.0923
30344ION     NA47868   1.734   7.011   5.733 -0.2211 -0.0412 -0.2377
30345ION     NA47869   0.471   7.649   1.551 -0.3257 -0.0849 -0.3274
30346ION     NA47870   2.944   0.409  12.174  0.1637 -0.0074 -0.0500
30347ION     NA47871  16.661   3.079  14.057 -0.2519  0.1914 -0.0015
30348ION     NA47872  17.052   5.046   6.265 -0.0878 -0.2049  0.1269
30349ION     NA47873   8.598   9.320   5.497 -0.2699  0.0055 -0.1929
30350ION     NA47874   3.433   4.414  15.090  0.1289  0.1937 -0.1374
30351ION     NA47875  14.132   3.163   5.632 -0.3570 -0.1344 -0.1349
30352ION     NA47876   9.709  11.159   0.668 -0.1161  0.0205  0.2793
30353ION     NA47877   8.834  13.577   5.841 -0.0856  0.0521  0.1118
30354ION     NA47878  10.706  10.741   5.771  0.2422 -0.2368  0.0125
30355ION     NA47879  11.970   6.000  10.598  0.0118  0.1368 -0.1696
30356ION     NA47880   6.331   6.441   5.472 -0.0964  0.2781 -0.0378
30357ION     NA47881   9.377  11.335  10.665  0.4311  0.0484  0.3093
30358ION     NA47882   9.752   0.179   3.808 -0.0151  0.0102 -0.2055
30359ION     NA47883   3.412   3.794  10.594 -0.1028  0.2653  0.1587
30360ION     NA47884   0.132   3.558  10.995 -0.2023  0.4510 -0.1022
30361ION     NA47885   3.038  14.322  14.468  0.1064 -0.0157 -0.1690
30362ION     NA47886  11.580   9.157  15.310  0.2834  0.1551 -0.0293
30363ION     NA47887  16.420  12.826  13.360 -0.0320 -0.0122  0.0045
30364ION     NA47888   8.053   3.446  15.070 -0.1459 -0.2675  0.1466
30365ION     NA47889  17.859   6.913   0.201  0.2011 -0.1947 -0.1746
30366ION     NA47890  12.717  13.671   1.502 -0.0375 -0.0209 -0.2277
30367ION     NA47891  13.644   8.388   6.202  0.0171 -0.4698  0.0058
30368ION     NA47892  17.100  16.252   5.414  0.1502 -0.3191  0.0674
30369ION     NA47893   6.740  17.259   0.503 -0.1812 -0.4152 -0.0621
30370ION     NA47894  15.654   8.379  10.585 -0.0765  0.1227  0.0032
30371ION     NA47895   1.925   2.312   3.527  0.0794 -0.0356  0.0884
30372ION     NA47896  17.175  12.843  15.682 -0.1808  0.4527  0.3968
30373ION     NA47897   6.598  10.616  13.902 -0.0636 -0.2079 -0.1215
30374ION     NA47898  11.562   3.833   3.365  0.4139 -0.1274 -0.1398
30375ION     NA47899   6.117   8.652   2.097 -0.0948 -0.0405 -0.0903
30376ION     NA47900  17.823   2.345  12.942 -0.0764  0.0097 -0.1659
30377ION     NA47901   5.383   4.953   4.410 -0.1401 -0.0057  0.2974
30378ION     NA47902   9.998   8.888   6.079 -0.1125 -0.3889 -0.2763
30379ION     NA47903  13.699   2.399   5.377  0.1946  0.1075 -0.0353
30380ION     NA47904  13.374  13.993   6.037 -0.2791 -0.1867  0.1288
30381ION     NA47905   3.093   7.456   3.401 -0.1273 -0.1631 -0.3467
30382ION     NA47906   3.227  12.019   5.618 -0.1699 -0.1242 -0.3792
30383ION     NA47907  12.334  11.728  10.481  0.3214 -0.2866  0.1331
30384ION     NA47908   6.178   5.844  10.072 -0.3528  0.1445  0.0102
30385ION     NA47909  12.768  16.750   1.022 -0.3087 -0.1038 -0.0655
30386ION     NA47910  17.713  17.239  13.434 -0.1336  0.1765 -0.2956
30387ION     NA47911   4.055  16.640   5.593  0.0541  0.1299 -0.0229
30388ION     NA47912   4.730  15.627  10.697  0.0623  0.0958 -0.2256
30389ION     NA47913  14.452  11.469   3.600 -0.1948 -0.0096 -0.0954
30390ION     NA47914   7.655   4.015  11.422 -0.0739  0.1503  0.2108
30391ION     NA47915   6.690   2.535   1.040 -0.0314  0.0953 -0.3684
30392ION     NA47916  14.730   7.469   5.733 -0.0618  0.0555  0.0570
30393ION     NA47917   6.273   7.824   5.468 -0.4297 -0.0133 -0.0597
30394ION     NA47918   7.035   1.664  13.278 -0.1294  0.1085  0.0325
30395ION     NA47919   0.819   4.074  13.996 -0.0054  0.2668  0.1343
30396ION     NA47920   5.121  15.114   3.933  0.2072  0.0980  0.1964
30397ION     NA47921   1.323  15.897   1.640  0.0914 -0.0196  0.0113
30398ION     NA47922  17.936  15.717   5.608  0.2805 -0.0888  0.2854
30399ION     NA47923  11.354   9.065  10.575 -0.1191  0.3595  0.2316
30400ION     NA47924   8.833   6.181  15.706  0.0906  0.1168  0.1194
30401ION     NA47925   3.401   9.122   5.439  0.0003 -0.0824 -0.0389
30402ION     NA47926  10.230   0.104   0.603 -0.0508  0.1998  0.2279
30403ION     NA47927   1.533   1.924  10.313 -0.1822 -0.0913  0.2343
30404ION     NA47928   3.876   8.285   5.800 -0.0334 -0.1485  0.0515
30405ION     NA47929   9.987  13.875  10.444 -0.2923 -0.1245 -0.2417
30406ION     NA47930   4.538   6.662   5.857  0.1155  0.1527 -0.0160
30407ION     NA47931   7.582   1.581   3.039 -0.0741  0.1863  0.2072
30408ION     NA47932  11.533  18.025  10.280  0.1996 -0.2968  0.4306
30409ION     NA47933   8.990  15.803   5.487 -0.3453 -0.3041 -0.0478
30410ION     NA47934   9.308   2.763  15.585 -0.0781  0.0004  0.1538
30411ION     NA47935   3.528  15.918  12.332 -0.1077  0.1962  0.1498
30412ION     NA47936  16.636   8.115  10.286 -0.0608  0.2621 -0.1700
30413ION     NA47937  16.613   1.356  11.439 -0.1820  0.6036  0.3358
30414ION     NA47938   3.339  12.521  10.282  0.0552  0.3356 -0.2033
30415ION     NA47939   1.915   2.124   0.826  0.1553  0.2858 -0.0002
30416ION     NA47940  13.050   0.427   3.060  0.2558  0.1633  0.0097
30417ION     NA47941  15.917   7.085   5.717 -0.1226  0.2493 -0.1317
30418ION     NA47942  17.278  15.233   5.157  0.1296 -0.0817 -0.2586
30419ION     NA47943   3.928   7.704  11.704  0.4276  0.4238  0.1143
30420ION     NA47944  11.133   8.555  12.532 -0.1814  0.0479  0.1214
30421ION     NA47945   2.147   5.342  10.530  0.1193 -0.0304 -0.2479
30422ION     NA47946  16.784   1.622  10.571  0.1828 -0.1503 -0.1781
30423ION     NA47947   9.080  17.338  10.331 -0.0233  0.0664  0.2999
30424ION     NA47948  17.033  18.014   1.661  0.3772 -0.2527 -0.2637
30425ION     NA47949  12.265  13.438   2.723  0.1537  0.0556  0.0515
30426ION     NA47950   6.123  13.805   0.905 -0.0566  0.0868 -0.0640
30427ION     NA47951   8.252   9.307  10.430  0.0196  0.0481  0.0551
30428ION     NA47952   2.201   1.029   5.722  0.1278  0.3554 -0.1475
30429ION     NA47953   0.302  14.167   5.978 -0.0537 -0.0215  0.0100
30430ION     NA47954   3.530  18.097   5.218  0.0113  0.0150  0.0315
30431ION     NA47955  10.555  11.867  10.640  0.1772 -0.2202 -0.3624
30432ION     NA47956  14.762  15.816  10.512 -0.1170  0.3534 -0.0561
30433ION     NA47957   7.793   6.223  13.915  0.1834  0.1141 -0.0228
30434ION     NA47958  12.865  16.587  10.371 -0.2521 -0.0020  0.1133
30435ION     NA47959  13.785  18.180  10.758  0.1037 -0.1631 -0.0269
30436ION     NA47960   5.054   5.120  10.709  0.1687  0.0448 -0.1483
30437ION     NA47961   6.051  13.273  10.127 -0.0212 -0.2611 -0.3404
30438ION     NA47962   4.357  13.557  10.233 -0.2026  0.2592 -0.3601
30439ION     NA47963   7.429  11.269  12.412  0.0074 -0.4175  0.1963
30440ION     NA47964  16.026  13.617   1.916 -0.3469  0.2350  0.3912
30441ION     NA47965  11.996  10.822   6.043 -0.5012  0.2335  0.2115
30442ION     NA47966  12.701   3.442   5.428 -0.1750 -0.0435  0.1792
30443ION     NA47967  12.057   5.043  13.644 -0.0223 -0.0265 -0.0982
30444ION     NA47968   8.913  17.790   2.340 -0.0056 -0.0540 -0.1576
30445ION     NA47969   4.988  10.589   5.616 -0.0964  0.1578 -0.0953
30446ION     NA47970  10.533  11.219  15.923 -0.0336 -0.1049  0.0064
30447ION     NA47971   4.163   9.602  10.187 -0.2966  0.1926  0.1196
30448ION     NA47972  15.313   8.163   6.102 -0.0694  0.0604 -0.1735
30449ION     NA47973  16.739   8.824  10.754 -0.2513 -0.2977  0.1470
30450ION     NA47974   2.226   4.820  10.804 -0.2465 -0.1149 -0.2022
30451ION     NA47975   0.244   6.380  11.017  0.1212  0.0529  0.2285
30452ION     NA47976   5.202  16.276  10.196  0.1252  0.2579  0.2871
30453ION     NA47977   3.637  11.827  10.234  0.0567  0.1634 -0.2340
30454ION     NA47978   3.035   6.882   5.326 -0.0515  0.1414  0.2977
30455ION     NA47979  15.549   1.273  10.803 -0.0664  0.3328 -0.1157
30456ION     NA47980  14.619  13.857   0.250 -0.0079 -0.2051 -0.3404
30457ION     NA47981   6.519   6.835  10.446  0.5082 -0.0491  0.0232
30458ION     NA47982   2.422   2.089  10.422 -0.1133  0.4986  0.3965
30459ION     NA47983  12.325   1.057  10.225 -0.1516  0.3529 -0.1379
30460ION     NA47984   8.454  11.931  13.198 -0.0696 -0.0396 -0.1373
30461ION     NA47985  14.070   5.372   5.947 -0.0808 -0.0447 -0.3105
30462ION     NA47986   8.392   6.008   5.242  0.0448  0.2789 -0.0667
30463ION     NA47987  14.286   2.477  10.896 -0.2587  0.1509 -0.1700
30464ION     NA47988  16.587  14.128   5.738 -0.1367 -0.3057 -0.0768
30465ION     NA47989  12.860  14.240  10.260  0.0840 -0.0834  0.1541
30466ION     NA47990   9.764  11.481  15.208 -0.1764 -0.1878  0.1067
30467ION     NA47991   9.865   3.035   3.682 -0.0224  0.2295  0.0130
30468ION     NA47992   7.169   0.593  10.508  0.1902 -0.1276  0.4554
30469ION     NA47993   8.424   1.727   3.662  0.0099  0.0109 -0.4332
30470ION     NA47994   4.691   8.791  12.144  0.2009  0.0244  0.0413
30471ION     NA47995   6.467   8.617   5.663  0.1790  0.0397  0.0439
30472ION     NA47996   0.496   2.145   5.801  0.1075  0.1309  0.2314
30473ION     NA47997   5.566   1.083  10.385 -0.0978  0.0516  0.0681
30474ION     NA47998   8.659   8.584   4.040 -0.2766 -0.3857  0.0933
30475ION     NA47999   4.406  12.341  14.623  0.3213  0.0859  0.1311
30476ION     NA48000  14.042   4.952   4.472 -0.3392  0.3494  0.1568
30477ION     NA48001  16.012   4.734   3.068  0.1110 -0.2754 -0.1303
30478ION     NA48002  15.188   6.065  15.321  0.2055 -0.3253  0.1400
30479ION     NA48003   0.547  15.173  10.668  0.4486  0.0261 -0.1225
30480ION     NA48004  14.309  10.993  10.467  0.0924  0.0881  0.2035
30481ION     NA48005  15.535  12.174  10.684 -0.2167  0.1456  0.0601
30482ION     NA48006   7.826   1.633   5.399 -0.1333 -0.4803  0.1684
30483ION     NA48007   2.925  15.183   5.673 -0.0681 -0.1001  0.0423
30484ION     NA48008  11.845  14.157  14.865 -0.1370  0.1394 -0.0342
30485ION     NA48009   6.192   5.544   5.238  0.0260 -0.3618  0.2149
30486ION     NA48010   2.641   9.060  15.560  0.0641  0.3238  0.1224
30487ION     NA48011   4.088   5.555  12.195  0.0488 -0.2405  0.1047
30488ION     NA48012   1.728  10.927   5.963  0.3160 -0.0098 -0.2519
30489ION     NA48013  16.999   7.938  15.381  0.1333 -0.1857 -0.2265
30490ION     NA48014   2.371   3.532   5.492 -0.2238  0.1285 -0.4430
30491ION     NA48015   8.324   4.009   5.344 -0.2036  0.2889  0.0491
30492ION     NA48016   1.607   4.545  10.736 -0.0694  0.1249 -0.0754
30493ION     NA48017   5.077  17.122  10.271  0.0152  0.1233  0.1680
30494ION     NA48018  18.093  16.064  10.695 -0.4179 -0.1599 -0.0459
30495ION     NA48019   4.404   2.815  10.443  0.1786  0.4662  0.0275
30496ION     NA48020   1.270  16.599  10.243  0.3122 -0.0834  0.0326
30497ION     NA48021  12.897   9.750  15.466 -0.1485  0.1787 -0.1119
30498ION     NA48022   8.106  11.488  10.401  0.0545  0.4079 -0.1843
30499ION     NA48023   6.704   4.535   5.570 -0.0152  0.3086  0.2853
30500ION     NA48024   1.428  15.957  11.476 -0.3156  0.2111 -0.0804
30501ION     NA48025  10.570   2.072  16.013 -0.1875  0.0238  0.1738
30502ION     NA48026   0.515   8.244  11.134 -0.1178  0.1161  0.1306
30503ION     NA48027  14.605   1.945   5.629  0.1523 -0.2614 -0.0760
30504ION     NA48028   0.791   4.960  12.053  0.1545  0.0230  0.2561
30505ION     NA48029  16.775   9.301  12.786  0.0565 -0.2142  0.0001
30506ION     NA48030   2.731  16.811  10.378  0.1376  0.0460  0.0216
30507ION     NA48031   7.740   2.384  14.122  0.2361  0.0756 -0.1543
30508ION     NA48032  15.778   5.416   0.016 -0.1595 -0.2096 -0.3990
30509ION     NA48033   6.617  16.388   5.267 -0.0758 -0.1479 -0.2230
30510ION     NA48034   1.963  10.715  11.981 -0.0285 -0.2686  0.1623
30511ION     NA48035   5.867  14.240   4.804 -0.0143 -0.3444  0.1053
30512ION     NA48036   6.271  15.528   5.556 -0.0418 -0.5533  0.0298
30513ION     NA48037  15.772  14.112   5.910  0.6051 -0.0405  0.0669
30514ION     NA48038  16.835   0.706  14.800  0.0564  0.1186  0.0312
30515ION     NA48039   5.316  12.014   5.462 -0.0047  0.2911 -0.0129
30516ION     NA48040   7.983   5.731   1.543 -0.0253  0.0273  0.2475
30517ION     NA48041   0.243  12.267  12.780 -0.2636  0.0857 -0.2731
30518ION     NA48042   0.878   1.453   2.288 -0.1223  0.1589 -0.1615
30519ION     NA48043   5.193   4.791   0.240  0.0003  0.2844  0.5019
30520ION     NA48044  12.899  11.443  14.960  0.0735  0.1339 -0.1502
30521ION     NA48045  13.147  16.687   2.301  0.2474  0.0973 -0.0058
30522ION     NA48046   5.374  16.958  13.309 -0.0098  0.0884  0.1884
30523ION     NA48047  10.545   5.390  15.007  0.0261  0.2332  0.2403
30524ION     NA48048  13.737  11.969  11.620 -0.0792 -0.2888 -0.0961
30525ION     NA48049  15.114   0.860  14.832  0.0302  0.2273 -0.0295
30526ION     NA48050   3.418   2.048  10.403 -0.0872  0.1495 -0.3096
30527ION     NA48051  17.074   3.011  16.087  0.0729 -0.0852 -0.1066
30528ION     NA48052  10.903   1.714  10.080  0.2335  0.1017 -0.1411
30529ION     NA48053  13.349   4.157  10.613 -0.0465  0.0284 -0.1242
30530ION     NA48054  11.378  17.711   5.350 -0.1881  0.2178  0.0105
30531ION     NA48055  15.641   5.396   3.622 -0.1934 -0.1496 -0.2089
30532ION     NA48056  13.951  12.382  15.952  0.0774 -0.1604 -0.0227
30533ION     NA48057   3.375   3.769   1.345  0.3042  0.1079  0.1113
30534ION     NA48058   3.217  17.611   4.163 -0.0950 -0.0211 -0.0228
30535ION     NA48059  12.013   0.254   5.645  0.1115  0.0674 -0.0533
30536ION     NA48060  10.212   9.635  14.884 -0.1420 -0.0259  0.3096
30537ION     NA48061   5.303   4.305   2.328 -0.0285  0.0978  0.0719
30538ION     NA48062   5.283   3.273  10.473  0.3884 -0.0735 -0.1681
30539ION     NA48063   4.001  12.459   5.484  0.2394 -0.0459  0.2893
30540ION     NA48064  10.487   4.092  10.236  0.1293  0.1810 -0.0935
30541ION     NA48065   4.528  15.911   5.514  0.1518 -0.0731  0.1882
30542ION     NA48066  13.109  18.114  15.182 -0.0053  0.1043 -0.0800
30543ION     NA48067  13.782   0.867   0.324  0.0158 -0.2833 -0.2384
30544ION     NA48068   3.670   2.558  12.146  0.2124  0.0256 -0.0225
30545ION     NA48069   8.341   7.673  14.050  0.0835  0.2428  0.1052
30546ION     NA48070   9.158   6.589   5.112  0.0509 -0.2538  0.0755
30547ION     NA48071   6.874  18.149   5.469 -0.2346  0.1779 -0.0665
30548ION     NA48072   0.972   2.157   1.481  0.1598  0.1150  0.0751
30549ION     NA48073   7.207   6.833   5.364 -0.2353  0.2436  0.0760
30550ION     NA48074   4.721  11.939   5.738  0.3238 -0.2333 -0.1597
30551ION     NA48075  11.307  11.344  12.581  0.0436  0.2428  0.0712
30552ION     NA48076  16.077  10.417  13.629  0.1844  0.4051  0.1265
30553ION     NA48077   1.646   6.229   1.717 -0.0171 -0.1293 -0.0125
30554ION     NA48078  15.311  16.566   1.987 -0.2673  0.0432 -0.2517
30555ION     NA48079  17.779  14.777   5.669 -0.2074 -0.1108  0.1200
30556ION     NA48080   8.853   2.555   5.275  0.1354  0.0978  0.0573
30557ION     NA48081  10.246   6.360   0.568 -0.1278 -0.1379 -0.1286
30558ION     NA48082   7.843   1.951  10.435 -0.3607 -0.2142 -0.1513
30559ION     NA48083   1.968   9.147  10.449  0.2162  0.0968 -0.0506
30560ION     NA48084   0.788  18.086   5.646  0.2237  0.1870 -0.3747
30561ION     NA48085   4.508  14.447  10.381  0.0348 -0.0610 -0.1665
30562ION     NA48086  16.732   1.798   1.705  0.0144 -0.1450  0.0224
30563ION     NA48087  16.925  17.921   5.736  0.4643 -0.0861 -0.0007
30564ION     NA48088  16.396   3.506  12.192 -0.0155  0.0413  0.0080
30565ION     NA48089  15.699  13.675  13.148  0.1566 -0.0650 -0.1444
30566ION     NA48090  15.243   2.219  11.011  0.4139 -0.0244  0.1969
30567ION     NA48091   2.885   1.188   5.469  0.0051  0.0742 -0.1373
30568ION     NA48092   9.853   5.018   1.563  0.0407 -0.3404 -0.0432
30569ION     NA48093   9.114   2.654  10.528 -0.2428  0.1897  0.0187
30570ION     NA48094  13.610  10.453   5.408  0.0692  0.1928 -0.0472
30571ION     NA48095  10.531  13.271   5.591  0.0791 -0.1779  0.0745
30572ION     NA48096   1.431   5.463   6.121  0.0272  0.1619  0.0362
30573ION     NA48097   8.951   1.795   5.440  0.1469 -0.0795  0.2924
30574ION     NA48098   4.858  13.079   5.525  0.0083  0.0031 -0.0900
30575ION     NA48099  14.041  16.782   3.219  0.0536 -0.1745 -0.0234
30576ION     NA48100  15.186   6.889  11.022 -0.0592  0.0991  0.3608
30577ION     NA48101   4.861  11.535  11.945 -0.1097 -0.2796 -0.0924
30578ION     NA48102   9.787  13.279   5.684 -0.0602 -0.0155  0.2512
30579ION     NA48103   1.889   8.698   6.128 -0.2621  0.0756  0.0184
30580ION     NA48104   8.555   7.421   5.513  0.3773  0.3940  0.1104
30581ION     NA48105  16.064   2.493   2.314 -0.0409  0.0580 -0.2167
30582ION     NA48106   0.419  13.393   4.446  0.0809  0.0608 -0.2574
30583ION     NA48107   6.231   8.243  10.124  0.0233 -0.2654 -0.1184
30584ION     NA48108  13.611  17.383   0.072 -0.0377  0.3874  0.2313
30585ION     NA48109   8.839   9.083  10.684 -0.2215  0.2608  0.2099
30586ION     NA48110   5.310  11.661  12.630 -0.0777 -0.0133 -0.3788
30587ION     NA48111  15.816  12.022   5.864  0.2096 -0.1037 -0.3051
30588ION     NA48112  11.031   5.821   5.543  0.2819  0.0298 -0.3008
30589ION     NA48113  14.843  16.803  13.184  0.0690 -0.0870  0.3153
30590ION     NA48114  16.453  11.865  10.511  0.0400  0.4756 -0.2628
30591ION     NA48115  16.687   1.536   4.306 -0.1564  0.1908 -0.0664
30592ION     NA48116   9.145  13.494  10.514 -0.1862  0.0079  0.3134
30593ION     NA48117   4.696  16.244  14.168 -0.0252  0.5519 -0.0711
30594ION     NA48118   1.199   6.209   6.035 -0.2026  0.3694 -0.0614
30595ION     NA48119   0.537   1.387  10.400 -0.2956  0.0887 -0.0307
30596ION     NA48120   5.527  15.965   5.330  0.0702 -0.0735 -0.0421
30597ION     NA48121   4.853   2.438   3.922 -0.0930 -0.0146  0.0305
30598ION     NA48122   6.448  13.065  13.835  0.0044 -0.2056 -0.2538
30599ION     NA48123  11.632   3.134   0.168  0.0881 -0.1548  0.0240
30600ION     NA48124  12.931   6.115   5.676  0.2139 -0.0410 -0.0548
30601ION     NA48125   5.748   6.744  13.901  0.0810  0.1258  0.1902
30602ION     NA48126   7.059  11.441   0.604  0.0453  0.0807 -0.3402
30603ION     NA48127   3.566  16.574  11.368  0.1340  0.1036 -0.0561
30604ION     NA48128  17.207   3.379  15.646  0.0925 -0.0386 -0.0694
30605ION     NA48129   2.639  15.164   4.063 -0.1701 -0.0934 -0.1512
30606ION     NA48130   9.986  17.605   4.625  0.3304 -0.3740 -0.1142
30607ION     NA48131  10.010   5.002   9.949 -0.1378 -0.1475  0.0540
30608ION     NA48132  10.304  13.262  13.715  0.0714 -0.0541  0.2054
30609ION     NA48133  17.046   7.976  12.560  0.1075  0.0092  0.0060
30610ION     NA48134  13.172  15.999   5.859 -0.1317 -0.1663  0.2333
30611ION     NA48135   2.492   7.106   5.967  0.2234  0.0920 -0.1556
30612ION     NA48136   2.639   1.231  10.442 -0.1052 -0.0663 -0.1962
30613ION     NA48137   6.897   6.109  15.876  0.0186  0.3432 -0.0720
30614ION     NA48138  17.397   0.165  15.793 -0.0265  0.2112  0.0218
30615ION     NA48139   3.547   8.368  10.100  0.2872 -0.1927  0.1334
30616ION     NA48140   1.031   7.542   5.803 -0.3043 -0.3446  0.1045
30617ION     NA48141   4.457   2.818  10.919 -0.1656 -0.0201 -0.0133
30618ION     NA48142  16.931  11.486   0.397  0.0178 -0.0835 -0.0627
30619ION     NA48143   2.233  13.332  10.540  0.0232 -0.1074  0.0487
30620ION     NA48144  15.189   3.906   1.533 -0.0608 -0.1644  0.2088
30621ION     NA48145   9.596   6.829  12.782 -0.0709  0.1180 -0.0903
30622ION     NA48146   0.532   6.260   1.385 -0.1287  0.0173  0.0239
30623ION     NA48147  17.949  11.207   5.766  0.2176 -0.0753  0.4542
30624ION     NA48148  13.711   9.585  14.955  0.3329  0.1342 -0.0324
30625ION     NA48149   7.684  13.689   5.406 -0.3163 -0.1875  0.2926
30626ION     NA48150  11.305   6.867  10.353  0.2304 -0.1189  0.0778
30627ION     NA48151  15.715   5.639   0.939 -0.0896 -0.1848 -0.0915
30628ION     NA48152   7.757   5.155   0.430 -0.0503  0.1006  0.0824
30629ION     NA48153  17.905   2.900  11.121  0.0845 -0.0439  0.1547
30630ION     NA48154  18.064   8.481  13.391 -0.2277  0.0307 -0.1333
30631ION     NA48155  15.503  10.182   4.955  0.1563  0.1108 -0.1865
30632ION     NA48156  12.541   8.723   1.521 -0.0457 -0.4286 -0.1323
30633ION     NA48157  11.292   0.043   3.217  0.1141  0.2540 -0.0959
30634ION     NA48158  17.284  18.083   0.771 -0.0324 -0.1567  0.1936
30635ION     NA48159  11.845  10.136   1.396 -0.0686 -0.1447  0.0792
30636ION     NA48160  14.205  14.957   6.012 -0.2516 -0.0682  0.1530
30637ION     NA48161   1.181  15.672   5.827 -0.0382  0.1796  0.0463
30638ION     NA48162   1.455   3.970  15.056 -0.1722  0.1239  0.1695
30639ION     NA48163   1.804  17.459   5.549 -0.1585 -0.0474  0.2030
30640ION     NA48164  12.181   6.881  11.078  0.2991 -0.3189  0.0148
30641ION     NA48165   0.612   3.382   5.889  0.1151 -0.1639 -0.1627
30642ION     NA48166  17.686   0.302   5.949 -0.2156  0.1191 -0.0843
30643ION     NA48167  14.722  17.302   5.523  0.2795  0.1244  0.3122
30644ION     NA48168   5.002   5.683  12.880  0.2669 -0.0386 -0.0554
30645ION     NA48169   4.332   0.676  10.434 -0.2121  0.2254  0.0173
30646ION     NA48170  10.699   9.262  12.581 -0.0390 -0.0821  0.0865
30647ION     NA48171  10.374   8.786  15.270 -0.5110  0.0195  0.2159
30648ION     NA48172   5.487  10.203  12.509  0.2888 -0.0720 -0.1145
30649ION     NA48173   5.441  15.408  10.048 -0.1296 -0.3254  0.0919
30650ION     NA48174  13.751  13.203   3.665 -0.0836  0.3402  0.3549
30651ION     NA48175   5.483   6.449  10.010  0.0909 -0.0931 -0.1747
30652ION     NA48176   2.603   4.229  10.413  0.0201 -0.0934  0.1429
30653ION     NA48177   3.813   9.816   5.548  0.5037 -0.0903 -0.3324
30654ION     NA48178  12.506   1.810  10.526  0.0062 -0.0829 -0.3605
30655ION     NA48179  14.258   8.043  12.139  0.0867  0.2518  0.3742
30656ION     NA48180   7.761  10.070   1.602 -0.3617 -0.0650 -0.0547
30657ION     NA48181   2.859  16.047   5.542 -0.1883 -0.1205  0.0261
30658ION     NA48182  15.292  12.178   1.832 -0.2357 -0.2313  0.0476
30659ION     NA48183  14.743  18.087   5.732  0.3004 -0.3073  0.0884
30660ION     NA48184   3.692   4.703  10.388  0.1387 -0.0341  0.1118
30661ION     NA48185   6.450   4.383  12.524  0.0768 -0.2573 -0.1141
30662ION     NA48186   0.441  13.460  14.905 -0.0336  0.0559  0.2307
30663ION     NA48187   0.914  12.244   2.970  0.0901 -0.0531  0.0752
30664ION     NA48188  10.570   9.738   5.880 -0.0344  0.1227  0.1979
30665ION     NA48189   1.650   5.501  14.763 -0.0154  0.2873 -0.0453
30666ION     NA48190  17.145   1.037   5.992  0.3919  0.0720 -0.0247
30667ION     NA48191  12.158  14.260  12.093 -0.0637  0.0265  0.1205
30668ION     NA48192  17.073  14.049   0.005 -0.2093 -0.3307  0.1450
30669ION     NA48193   3.590   6.480  10.251  0.0645  0.0632  0.0701
30670ION     NA48194  17.294  17.227  10.715 -0.2002  0.0612 -0.2647
30671ION     NA48195   7.557   2.718  10.365  0.2916  0.2542 -0.3598
30672ION     NA48196  16.188  15.141  10.564  0.2345  0.3863 -0.1421
30673ION     NA48197  14.919  14.429   6.134  0.2536  0.2062  0.1478
30674ION     NA48198  13.666  13.213   6.095 -0.0675  0.1068 -0.0431
30675ION     NA48199  18.128   9.884   6.042 -0.2895 -0.1444  0.2428
30676ION     NA48200   0.065   2.006   2.263  0.4033  0.1628  0.0191
30677ION     NA48201   2.538  16.098   0.224 -0.0089  0.2304  0.0033
30678ION     NA48202  10.693   3.635   5.419  0.6280 -0.0006 -0.0550
30679ION     NA48203  11.074  16.097  10.610 -0.4805  0.2618  0.0224
30680ION     NA48204  14.892  11.974   5.653 -0.0084  0.1018  0.0303
30681ION     NA48205  12.596   7.636   4.500  0.1142 -0.2344 -0.0517
30682ION     NA48206   7.846  14.482  11.387 -0.1674 -0.0700 -0.0384
30683ION     NA48207   8.536   4.687  14.037 -0.1496  0.0522  0.3264
30684ION     NA48208   5.241  13.789  10.300 -0.1130 -0.0199  0.0364
30685ION     NA48209  17.214   8.451   3.099  0.1131  0.2379  0.4165
30686ION     NA48210  11.663   1.778  10.296  0.0653 -0.0484 -0.2516
30687ION     NA48211  12.999  10.885   4.712 -0.1228 -0.0346  0.0689
30688ION     NA48212   8.149   7.598  10.177 -0.1075  0.2841 -0.0865
30689ION     NA48213  10.216   0.718  14.949 -0.1306 -0.0793  0.1034
30690ION     NA48214  16.341   1.826  13.834  0.1611 -0.1834  0.2033
30691ION     NA48215   0.307   0.582   5.776 -0.1223  0.0351  0.1816
30692ION     NA48216  15.628   4.698   6.000 -0.0977  0.0046 -0.3110
30693ION     NA48217   4.120   4.468   0.420  0.0663  0.1524  0.4003
30694ION     NA48218  17.416   9.278   1.319  0.0281 -0.2032 -0.2146
30695ION     NA48219  15.451   0.397  10.941  0.1639  0.2276 -0.1009
30696ION     NA48220  14.264  10.026   1.444  0.3321  0.0695 -0.0133
30697ION     NA48221   1.916   5.877  10.602 -0.0258 -0.0538 -0.0696
30698ION     NA48222   4.028  15.466  14.241 -0.0016 -0.0485  0.1084
30699ION     NA48223  17.779   9.125  10.702  0.0907 -0.1635 -0.0467
30700ION     NA48224   3.454   2.917  14.300 -0.0250  0.3014  0.2998
30701ION     NA48225  10.555   5.401   2.106 -0.3095 -0.4938  0.4370
30702ION     NA48226  17.046  12.966   5.077  0.3840 -0.0810 -0.1211
30703ION     NA48227   8.752  14.188  15.323  0.0537  0.0277 -0.0766
30704ION     NA48228   3.216   2.695  13.941 -0.0619  0.0382 -0.2589
30705ION     NA48229   5.370  13.837   5.188 -0.1441 -0.4949  0.1641
30706ION     NA48230   2.864  12.159   4.908  0.1088  0.0162 -0.2005
30707ION     NA48231  11.640  14.525  13.241 -0.1667  0.0072  0.1052
30708ION     NA48232  15.083  13.974   6.249  0.0078  0.1943 -0.0441
30709ION     NA48233   3.255   5.983  11.760 -0.1075  0.1085 -0.0076
30710ION     NA48234   4.792   8.795   4.608  0.1563  0.1646 -0.1646
30711ION     NA48235   4.516   6.555  10.217  0.0009  0.1208  0.1184
30712ION     NA48236  17.314   0.864  11.858 -0.0843  0.0863  0.0645
30713ION     NA48237   6.865  16.706  10.256 -0.1000  0.0700 -0.2079
30714ION     NA48238   6.585   7.249   1.655  0.0271 -0.0304 -0.4392
30715ION     NA48239   7.143   6.046   5.160 -0.1316  0.1036  0.0848
30716ION     NA48240  11.650   0.582   5.359  0.2594 -0.1316 -0.3075
30717ION     NA48241  18.052  14.938  15.179  0.0313 -0.1320  0.1174
30718ION     NA48242  16.329  14.895  15.760  0.2354  0.2021  0.1750
30719ION     NA48243   2.468  13.071  15.267  0.1308  0.1645  0.0282
30720ION     NA48244  17.899   1.056  10.572  0.0487 -0.0236  0.1172
30721ION     NA48245   2.304   5.977   5.148 -0.0512 -0.2992 -0.1326
30722ION     NA48246   2.417  10.908   3.258  0.1022  0.0876  0.0475
30723ION     NA48247  10.459   7.421   1.381 -0.1826  0.0204  0.1532
30724ION     NA48248   3.670   1.133  10.384  0.0581  0.3755 -0.2493
30725ION     NA48249  10.972  17.101  10.625  0.3625  0.3195  0.1652
30726ION     NA48250  12.998  17.299   4.771 -0.2827 -0.1892  0.2047
30727ION     NA48251   1.627  15.220  15.342  0.1308  0.0072  0.3907
30728ION     NA48252   1.852   2.355  12.780 -0.3413 -0.3053 -0.4691
30729ION     NA48253  12.028  14.099   3.827 -0.3357 -0.0035  0.0425
30730ION     NA48254   3.868  11.680   5.771  0.0446 -0.0627 -0.1176
30731ION     NA48255   0.671   6.344  16.037  0.1861  0.0526 -0.0471
30732ION     NA48256   1.694  12.662  11.108 -0.2635 -0.1670  0.0195
30733ION     NA48257   7.136  15.982  14.507  0.0998 -0.0583  0.2463
30734ION     NA48258  15.800   5.588   6.161  0.0122  0.1752  0.0049
30735ION     NA48259   4.756   5.222   5.502 -0.0830 -0.0877  0.1205
30736ION     NA48260   8.743   1.005   0.073 -0.3284  0.0604 -0.1032
30737ION     NA48261  16.905   7.883  13.462 -0.1270  0.2631  0.1870
30738ION     NA48262  18.152   4.777   4.065  0.2132  0.0744 -0.0033
30739ION     NA48263  11.045   9.274  13.511  0.2512 -0.1161 -0.0450
30740ION     NA48264   0.240   2.229  14.037  0.1021 -0.1839  0.2140
30741ION     NA48265   3.328   9.320  10.375 -0.1407  0.1028  0.2701
30742ION     NA48266  11.943   2.225   5.493  0.0798 -0.0860 -0.0353
30743ION     NA48267   2.351  11.891  15.814 -0.0265 -0.0575 -0.0860
30744ION     NA48268  13.535  10.566  10.572  0.0422 -0.0292 -0.4599
30745ION     NA48269  11.242  10.250   5.081  0.0065  0.1819  0.0459
30746ION     NA48270   5.250   6.281   2.889 -0.1141 -0.0962 -0.0895
30747ION     NA48271   5.881   9.254  12.849 -0.0403 -0.2937  0.0631
30748ION     NA48272   6.434  11.377  10.128 -0.2245 -0.0296 -0.0649
30749ION     NA48273   7.329   8.548  14.153  0.4869  0.1758 -0.1926
30750ION     NA48274  11.806   4.499   5.339 -0.0808  0.0109  0.0644
30751ION     NA48275   1.422  10.854  10.689 -0.1481 -0.0801  0.2055
30752ION     NA48276   7.907   0.595   5.279  0.1168 -0.1372 -0.1935
30753ION     NA48277  16.719  11.759   5.383 -0.0613  0.0780  0.1144
30754ION     NA48278  12.857  11.593  11.497  0.0089  0.1318 -0.0558
30755ION     NA48279  11.154  10.878   2.312  0.1555  0.1600 -0.3482
30756ION     NA48280   8.935  14.741   5.930 -0.0932  0.1768  0.0388
30757ION     NA48281  16.576   9.684   0.482 -0.0845  0.1591 -0.0840
30758ION     NA48282   2.236   9.813   3.408  0.0849  0.0302 -0.0402
30759ION     NA48283   9.933  15.577   5.532  0.0115 -0.2668 -0.0763
30760ION     NA48284  14.684   8.408   5.907 -0.1283  0.0134 -0.1716
30761ION     NA48285   6.772   3.419   5.454  0.2160 -0.1031 -0.3681
30762ION     NA48286   8.337  15.908   2.527 -0.1049  0.1438 -0.0633
30763ION     NA48287  15.089  12.785   5.513 -0.0987  0.1724 -0.0384
30764ION     NA48288   9.809   7.137   5.426 -0.2995  0.2748  0.0455
30765ION     NA48289   6.713  17.142   3.398 -0.2182 -0.3873 -0.1319
30766ION     NA48290  14.278   0.824  10.795  0.1223 -0.1959 -0.0415
30767ION     NA48291   1.432   3.653  10.406  0.0145 -0.0516 -0.1932
30768ION     NA48292  10.848   1.023  11.537  0.1176 -0.0990 -0.2297
30769ION     NA48293   0.766  13.449  15.810  0.0661 -0.1542 -0.1895
30770ION     NA48294   1.867  18.062  12.374  0.0258  0.1420  0.2307
30771ION     NA48295   6.262   0.023  10.376  0.1204  0.1016 -0.1599
30772ION     NA48296   8.024   0.374  10.497  0.0863  0.0524  0.3255
30773ION     NA48297   7.749   8.777  12.696 -0.3357  0.0020  0.0372
30774ION     NA48298  14.396   7.817   6.155  0.0518  0.2914  0.0920
30775ION     NA48299  10.344  11.723   5.906 -0.0713 -0.0258  0.0065
30776ION     NA48300   7.739   2.423  12.487 -0.0529  0.0587  0.0545
30777ION     NA48301   9.581   0.410  10.441 -0.1547 -0.2644  0.1099
30778ION     NA48302  12.563  17.699   5.538  0.2210  0.1628 -0.2646
30779ION     NA48303  16.323  17.086   5.652  0.0809 -0.1488  0.0736
30780ION     NA48304   9.294  18.088   5.302 -0.1123 -0.0678  0.0617
30781ION     NA48305  14.282  15.618  11.218  0.2206  0.1799 -0.0460
30782ION     NA48306  11.258   5.977  10.259 -0.1358 -0.0660  0.2663
30783ION     NA48307  17.066  17.541   5.367 -0.0613 -0.1762  0.0881
30784ION     NA48308   3.403   1.285   0.988  0.1484  0.1427  0.0515
30785ION     NA48309  14.272  12.541   4.969  0.1492  0.0418  0.4590
30786ION     NA48310  17.748  16.824   5.622 -0.1640 -0.0211 -0.0419
30787ION     NA48311   2.818  10.249   5.563  0.4151 -0.2519  0.0079
30788ION     NA48312  12.242  16.087   5.891  0.3695  0.2551  0.0233
30789ION     NA48313  11.216  10.927  13.965 -0.4003  0.0172  0.1083
30790ION     NA48314   3.987  11.266  13.226 -0.0254  0.1352 -0.0750
30791ION     NA48315   4.836  15.297  10.147 -0.2509  0.4807  0.1695
30792ION     NA48316   4.426   3.744   5.435  0.0927 -0.1733  0.1328
30793ION     NA48317   0.665  11.558   5.836  0.1438  0.2863 -0.0310
30794ION     NA48318   8.300   4.609  15.715  0.3018  0.1110 -0.1189
30795ION     NA48319   0.554  14.861  15.913 -0.0334 -0.1671  0.0551
30796ION     NA48320   7.815  12.441  10.263  0.2469 -0.2842  0.0938
30797ION     NA48321  17.884   4.050   0.770 -0.0066  0.0654  0.0889
30798ION     NA48322   0.765  15.994  10.875 -0.2316  0.1869 -0.1828
30799ION     NA48323  16.747   8.843   2.225  0.0306  0.1048  0.0273
30800ION     NA48324  17.048  10.078  12.742 -0.2338 -0.1248  0.2612
30801ION     NA48325   5.992  17.411  10.574 -0.0374  0.3029 -0.0078
30802ION     NA48326   7.633  17.711   5.389 -0.1144  0.4692  0.1310
30803ION     NA48327  15.888  15.760   0.258 -0.0876  0.0191  0.0249
30804ION     NA48328   3.772   6.239   5.519 -0.1763  0.0391 -0.1525
30805ION     NA48329  12.210   7.748  10.700 -0.2182 -0.1006  0.2213
30806ION     NA48330  16.893  13.622   5.809  0.1285 -0.0687 -0.1506
30807ION     NA48331  15.932   2.703   5.248  0.0751  0.1079  0.3466
30808ION     NA48332  12.475   3.853   3.102 -0.3885 -0.1669 -0.0897
30809ION     NA48333  12.299   9.010   5.838 -0.1769  0.0074 -0.0449
30810ION     NA48334   9.356   5.248  10.812  0.0291  0.1516  0.0193
30811ION     NA48335  15.459   1.167   5.630 -0.1579 -0.2034  0.2966
30812ION     NA48336   8.818  14.945   1.693  0.3478  0.5464  0.0041
30813ION     NA48337   6.193  12.161  13.692 -0.2765  0.4166 -0.0286
30814ION     NA48338   5.481   7.579   5.516 -0.3385  0.0808 -0.1070
30815ION     NA48339  16.714  15.976  14.252  0.0798 -0.0593  0.0068
30816ION     NA48340  14.128  13.988   6.089 -0.2982  0.2480 -0.3854
30817ION     NA48341   0.713  13.482  10.681 -0.1877 -0.1149 -0.1236
30818ION     NA48342   8.523  17.687   5.282 -0.0121  0.1273 -0.1513
30819ION     NA48343  14.414   5.045  10.975  0.2212 -0.3851  0.0042
30820ION     NA48344   3.550  14.326  10.411  0.3710  0.0182 -0.0565
30821ION     NA48345  15.581  10.256   5.966 -0.0019 -0.0550 -0.0281
30822ION     NA48346  10.427   1.651  15.151  0.1918  0.2789 -0.2633
30823ION     NA48347   7.812   2.653   5.503  0.2382 -0.1231 -0.1019
30824ION     NA48348   4.570  15.917   4.595 -0.0071  0.0821  0.0274
30825ION     NA48349   1.224   8.920  11.010 -0.0844 -0.1628  0.0157
30826ION     NA48350   5.105  11.014  13.505 -0.0530  0.0724 -0.1350
30827ION     NA48351  17.070  15.389   5.652 -0.1128  0.0070  0.4800
30828ION     NA48352   2.555  15.223  10.763  0.2734  0.0340 -0.0537
30829ION     NA48353   7.906  16.791  10.376  0.1650 -0.2134 -0.0737
30830ION     NA48354  14.151  11.446  12.732  0.0425 -0.0957  0.1026
30831ION     NA48355  13.118   5.152   5.891 -0.0461 -0.0065  0.0915
30832ION     NA48356  16.671  12.833  10.820  0.3409  0.0865  0.3535
30833ION     NA48357  15.463   8.212   0.424  0.1261 -0.1818 -0.0369
30834ION     NA48358  13.778   5.771   0.020  0.0794 -0.1382 -0.1067
30835ION     NA48359   6.964  15.121  16.007  0.1116  0.1092 -0.1553
30836ION     NA48360  11.656   6.258   0.515 -0.0148 -0.0509  0.0818
30837ION     NA48361   0.794   6.413   4.346  0.1210 -0.1833 -0.0111
30838ION     NA48362   2.588   9.875  10.560  0.1051 -0.0421  0.1690
30839ION     NA48363   6.671  15.557   5.122 -0.0468 -0.0021  0.1021
30840ION     NA48364  16.702  12.436   6.212 -0.1012 -0.2919 -0.0966
30841ION     NA48365  15.655  13.152   1.214  0.2086 -0.2966 -0.1278
30842ION     NA48366  15.225   6.633   5.861  0.3434 -0.2500 -0.4132
30843ION     NA48367   9.800  10.134  12.113 -0.0188 -0.1778 -0.1128
30844ION     NA48368   9.501   2.464  11.778 -0.1753 -0.1096  0.1994
30845ION     NA48369  12.697   7.025   5.884 -0.2248  0.3029  0.0191
30846ION     NA48370   3.192   9.439  10.853 -0.1484  0.3683  0.2945
30847ION     NA48371   7.494   3.933  12.743  0.1093 -0.0678  0.4329
30848ION     NA48372  13.533   6.695   5.736  0.1158  0.0299  0.0404
30849ION     NA48373   6.075   2.694   5.305 -0.0223 -0.4125 -0.1274
30850ION     NA48374  15.885   7.379   4.678  0.0087 -0.0900  0.0057
30851ION     NA48375   3.969  13.938   0.398  0.0922 -0.0502  0.0240
30852ION     NA48376   2.139  15.658   4.730 -0.1164 -0.0773  0.1399
30853ION     NA48377   5.401   9.372   5.556  0.0277  0.1681  0.4080
30854ION     NA48378   2.435   2.078   2.628 -0.0967  0.1111  0.2110
30855ION     NA48379  13.694  16.854  10.694  0.0311  0.3757  0.0757
30856ION     NA48380   9.567   9.765   5.773 -0.3575  0.1192 -0.1377
30857ION     NA48381   9.958  12.936   4.593  0.0233  0.0478  0.1478
30858ION     NA48382  11.796  16.924   5.316 -0.1371  0.0978 -0.0377
30859ION     NA48383  17.180   7.616   5.595  0.3115 -0.1370 -0.2823
30860ION     NA48384   0.050   1.575  12.795  0.0425 -0.1450 -0.0644
30861ION     NA48385  17.708   7.778   6.317  0.3335  0.1320 -0.2549
30862ION     NA48386  10.063  15.182  10.883 -0.0801 -0.1415  0.0212
30863ION     NA48387   2.775  17.986   5.620 -0.1803 -0.1298  0.1948
30864ION     NA48388  12.502   0.838  14.899  0.0685 -0.1108 -0.1505
30865ION     NA48389   2.509   9.365   6.199  0.0477 -0.0380  0.0540
30866ION     NA48390  17.619   8.100   5.466  0.4392 -0.2087 -0.0221
30867ION     NA48391   6.493   3.475  10.384  0.1390  0.0341  0.1586
30868ION     NA48392  13.361   4.637   5.787  0.1668  0.0958 -0.1688
30869ION     NA48393  10.283  17.890  15.730  0.2236  0.0428 -0.0008
30870ION     NA48394   5.619   7.375   1.948 -0.1853 -0.0102  0.2373
30871ION     NA48395  12.502   3.046  10.594 -0.1238 -0.2253 -0.0540
30872ION     NA48396   9.509  12.316   5.618  0.1608  0.0890  0.1099
30873ION     NA48397  13.707  15.656  15.133 -0.0619 -0.0816 -0.2127
30874ION     NA48398   0.457  16.393   5.686 -0.1723  0.3558  0.0982
30875ION     NA48399   1.104   0.933   1.461  0.1581  0.0395 -0.2691
30876ION     NA48400   7.864  11.003   5.724 -0.1695  0.0724  0.0423
30877ION     NA48401  13.103   1.304   4.023 -0.0007 -0.1575  0.0975
30878ION     NA48402   9.943  14.676   5.887 -0.1108  0.0695  0.2184
30879ION     NA48403  16.361  15.763   5.681 -0.1245 -0.1192  0.0339
30880ION     NA48404  13.508  16.426   1.509 -0.2658  0.2770  0.0986
30881ION     NA48405  12.043  10.867  12.284  0.2436  0.0183 -0.1221
30882ION     NA48406  15.551  16.251   5.646 -0.3072  0.0924  0.1134
30883ION     NA48407  11.933   1.619   1.484  0.1422  0.0765 -0.0783
30884ION     NA48408  10.273   2.349  10.182 -0.1377  0.2800 -0.1946
30885ION     NA48409   4.033  15.023  13.013  0.2827  0.1783 -0.1168
30886ION     NA48410  11.773  10.092   5.828 -0.0152 -0.1286 -0.1660
30887ION     NA48411  17.419   4.673  11.210  0.4214 -0.0919  0.0791
30888ION     NA48412  16.685  10.343   5.980  0.0615 -0.0843  0.2774
30889ION     NA48413   3.581   2.178   5.295 -0.1456  0.0938  0.0388
30890ION     NA48414   5.489  11.952  13.292 -0.0442  0.2099  0.0547
30891ION     NA48415  13.612   4.596  13.853 -0.4110 -0.3026  0.0991
30892ION     NA48416  12.046   1.578   4.280 -0.1448  0.1389 -0.1313
30893ION     NA48417  16.427   9.897   2.953  0.2818  0.0011  0.1505
30894ION     NA48418   1.852  17.001   5.648 -0.1641  0.2237  0.3492
30895ION     NA48419  17.453   2.502   5.645  0.2170 -0.1577  0.3059
30896ION     NA48420  16.705  10.023   5.581  0.1305  0.1229  0.1509
30897ION     NA48421   2.557   8.127   5.854 -0.1213  0.1049 -0.0255
30898ION     NA48422   7.013   9.264   5.123  0.0365 -0.1193 -0.2638
30899ION     NA48423  13.839   2.701   2.666 -0.2930  0.1961  0.2034
30900ION     NA48424  17.622   2.835  13.761  0.0103  0.5418 -0.1832
30901ION     NA48425  15.202   2.790  12.231  0.1575 -0.0961  0.1039
30902ION     NA48426   1.282  15.439  10.252 -0.2616  0.1669 -0.1307
30903ION     NA48427   5.014  16.642  15.263  0.0231 -0.1072 -0.1606
30904ION     NA48428  10.093  14.056   0.700 -0.0567  0.0459  0.2400
30905ION     NA48429  12.858   1.518   0.492  0.1804 -0.1116 -0.1313
30906ION     NA48430  10.168   9.604   1.334  0.0471 -0.1701  0.1170
30907ION     NA48431   0.085  10.435   6.161 -0.1231  0.1898 -0.0125
30908ION     NA48432  10.029   7.868  10.537  0.1048 -0.2849  0.3833
30909ION     NA48433  11.227  12.376  14.998  0.0123 -0.0455  0.1707
30910ION     NA48434  10.222   6.174  10.214  0.0806 -0.1824 -0.1263
30911ION     NA48435  18.151   8.684  11.178 -0.0142 -0.2672  0.0050
30912ION     NA48436  15.720   9.545  12.485  0.2191 -0.2530  0.3563
30913ION     NA48437  11.961   8.474  10.755  0.1977  0.4512 -0.1813
30914ION     NA48438  12.708   7.898   6.070  0.0322  0.3828  0.1916
30915ION     NA48439  16.394  15.507   3.861  0.2428  0.0823 -0.0269
30916ION     NA48440   7.129   8.027   5.625  0.1242 -0.1752  0.0373
30917ION     NA48441   2.281  10.909  10.876 -0.2522  0.2510  0.1526
30918ION     NA48442   4.314  10.482   5.380 -0.1530  0.1503 -0.0789
30919ION     NA48443  15.276  17.753  10.753 -0.0221 -0.2470 -0.0148
30920ION     NA48444   9.213   5.200   5.446 -0.1686  0.0883 -0.4322
30921ION     NA48445   4.366   3.661  10.559 -0.0158 -0.2452  0.1486
30922ION     NA48446   7.218  10.852  10.166  0.1206 -0.3592  0.3409
30923ION     NA48447   6.401   2.043  13.905 -0.0544 -0.0811  0.2028
30924ION     NA48448   6.512  15.107  13.892  0.1588 -0.1529  0.3632
30925ION     NA48449  17.420  14.352  10.727  0.1359 -0.0320 -0.0584
30926ION     NA48450   9.520  11.624   4.201  0.0127  0.1109  0.1590
30927ION     NA48451   1.652  14.478  12.919 -0.0886 -0.1749 -0.5438
30928ION     NA48452   5.266   2.279  10.395 -0.2243  0.0892 -0.5917
30929ION     NA48453   8.346  13.849   1.387  0.0228  0.1176 -0.2425
30930ION     NA48454  10.616  11.393  14.914  0.2186 -0.1394 -0.1201
30931ION     NA48455   3.704  10.808  10.269  0.0935 -0.0273 -0.1786
30932ION     NA48456   2.789   4.307  11.835  0.0569  0.0168 -0.2049
30933ION     NA48457  14.867   5.674   5.764 -0.1874 -0.1832 -0.3447
30934ION     NA48458  16.879   3.936   1.512  0.0777  0.0564 -0.1300
30935ION     NA48459  10.587   3.432  14.936  0.1796 -0.1925  0.3667
30936ION     NA48460  14.945   6.300  13.408 -0.0211  0.1276  0.2042
30937ION     NA48461  16.278  14.255   4.795 -0.0814  0.0540  0.4856
30938ION     NA48462  10.358  12.423   5.735  0.0398  0.0695 -0.0079
30939ION     NA48463  12.257   1.247   4.987 -0.2178 -0.1511  0.2236
30940ION     NA48464  13.768   0.452   5.475  0.1214 -0.1582 -0.0007
30941ION     NA48465  17.005  10.997  10.636 -0.1707 -0.0942 -0.5096
30942ION     NA48466  16.738   9.160   3.676  0.0436 -0.1376  0.1276
30943ION     NA48467  11.899   7.138  13.220 -0.1257  0.0232 -0.2753
30944ION     NA48468   9.606  14.296   4.597  0.1608 -0.0740 -0.0179
30945ION     NA48469   7.192   0.872   5.336  0.0001  0.1105 -0.0754
30946ION     NA48470   8.188  15.994   5.752 -0.1373 -0.2558  0.1715
30947ION     NA48471  16.664  15.717   4.775 -0.1934  0.0741 -0.1504
30948ION     NA48472   9.288  12.346  12.974  0.0400  0.1543 -0.0149
30949ION     NA48473   3.859  15.229  10.706  0.2128 -0.2039  0.0051
30950ION     NA48474  16.676   2.405  12.184  0.0144  0.3956  0.2243
30951ION     NA48475   1.404  14.383   1.968 -0.2607  0.2192 -0.1303
30952ION     NA48476   2.814   1.404   4.515  0.0841  0.1511  0.1333
30953ION     NA48477   3.045  10.776   4.240 -0.0820  0.1317 -0.1453
30954ION     NA48478   7.064  12.045   5.370 -0.1026  0.0347  0.1092
30955ION     NA48479  12.892   7.055  10.795  0.0326  0.0316  0.0486
30956ION     NA48480  11.389  13.800   5.764  0.0482  0.0450 -0.1650
30957ION     NA48481  11.878   9.470  10.621  0.1053  0.1144 -0.0655
30958ION     NA48482   4.027   1.681  14.199  0.1254 -0.0140  0.1526
30959ION     NA48483   3.698   2.594  15.523  0.1820  0.1021  0.1062
30960ION     NA48484  14.634   0.811   5.103  0.0459  0.1743 -0.2571
30961ION     NA48485   4.616   8.797   5.712  0.1066 -0.0564  0.2267
30962ION     NA48486  10.266  17.443   2.326 -0.0643  0.2303  0.0527
30963ION     NA48487  17.705  10.041   4.416 -0.1867  0.1486  0.0498
30964ION     NA48488   3.256  17.042  12.754  0.3386 -0.0782  0.0756
30965ION     NA48489   1.165   8.303   6.025  0.2889  0.1910  0.1989
30966ION     NA48490  17.882  17.841   5.620  0.1950  0.3431  0.4073
30967ION     NA48491  17.530  15.997  13.257 -0.1820 -0.1371 -0.0951
30968ION     NA48492   0.433  17.731  13.516 -0.1068  0.2148 -0.1854
30969ION     NA48493   7.813  12.521   5.482  0.3024 -0.1026  0.1100
30970ION     NA48494   8.142   4.395   1.516 -0.2579  0.2200 -0.2518
30971ION     NA48495   9.054   1.706  13.523 -0.2272 -0.0508  0.2535
30972ION     NA48496  14.952   4.152  14.476  0.3726  0.6524 -0.4955
30973ION     NA48497  17.617  13.297   5.635  0.1042 -0.1677 -0.0741
30974ION     NA48498  14.922   9.057   5.800 -0.0608  0.0046 -0.0186
30975ION     NA48499  10.693   0.287  11.017 -0.0641  0.0314  0.1939
30976ION     NA48500   9.013  11.074  10.224 -0.0548 -0.3536 -0.0076
30977ION     NA48501  10.268  16.523  10.422  0.0771 -0.4472  0.1503
30978ION     NA48502   4.309   8.090  14.154 -0.0906 -0.1630  0.1484
30979ION     NA48503   7.948  15.082   1.036 -0.3479  0.2495  0.2238
30980ION     NA48504  18.128  13.314  12.325 -0.0675 -0.0334  0.1172
30981ION     NA48505   5.734   0.263   2.871  0.2530  0.1040  0.1712
30982ION     NA48506  13.447  15.087  10.104 -0.1256 -0.0932 -0.2180
30983ION     NA48507  14.292  16.721   5.305 -0.0806 -0.0379 -0.1298
30984ION     NA48508   5.129  11.987   9.815 -0.0746 -0.1366  0.0228
30985ION     NA48509  14.166   3.837  10.605  0.0658 -0.0751  0.1363
30986ION     NA48510   1.911   0.830  13.327  0.0334 -0.0963  0.2198
30987ION     NA48511  12.373  18.175   3.759  0.3703  0.0034 -0.1861
30988ION     NA48512   6.091   3.622   4.857 -0.1028  0.0896  0.0258
30989ION     NA48513  16.044  11.029   5.905 -0.1498 -0.1253 -0.2273
30990ION     NA48514  12.614  16.681   5.689  0.1611  0.2350  0.1795
30991ION     NA48515  14.793  11.861  10.357 -0.1501 -0.1429  0.1837
30992ION     NA48516   3.211  15.354  13.532  0.0665 -0.0514  0.0804
30993ION     NA48517  13.588   9.371  10.517 -0.1407 -0.1945  0.0318
30994ION     NA48518  13.045  17.974   5.520 -0.3326  0.2236 -0.0392
30995ION     NA48519   6.231  14.227   5.248  0.1610  0.0718  0.1629
30996ION     NA48520   5.858   4.107  10.432 -0.1907 -0.0990  0.0952
30997ION     NA48521   8.437  17.136  13.045 -0.1527 -0.3192  0.2462
30998ION     NA48522   6.431  12.406  10.247  0.1821  0.1195  0.0780
30999ION     NA48523   0.389   2.294  10.874 -0.0260 -0.3559 -0.0290
31000ION     NA48524  12.998  10.060   2.350 -0.1675  0.0039  0.0205
31001ION     NA48525   8.270   3.264  10.392  0.0123 -0.3138 -0.0177
31002ION     NA48526  17.774   7.905  11.034 -0.0125 -0.0715 -0.0150
31003ION     NA48527  16.797   5.922   6.319 -0.1473  0.0927  0.1928
31004ION     NA48528   2.009   5.721  12.928 -0.1727  0.1551 -0.0585
31005ION     NA48529   3.434   5.766   3.722  0.0650 -0.0623  0.2504
31006ION     NA48530   4.892  16.933   5.363 -0.1601 -0.0148 -0.0157
31007ION     NA48531   7.599   4.326   5.407 -0.0019  0.1199  0.0869
31008ION     NA48532  14.140   4.896   5.882  0.1232  0.0429 -0.0391
31009ION     NA48533  17.660  10.294   3.028 -0.0706  0.2712 -0.2103
31010ION     NA48534  15.407  10.889  13.254  0.1066 -0.2503  0.0998
31011ION     NA48535   3.202   0.493  13.919 -0.0153 -0.0745  0.2599
31012ION     NA48536   1.055  14.686   5.795 -0.0817  0.1901 -0.0879
31013ION     NA48537   3.651  17.069  10.502  0.1414 -0.3295  0.0390
31014ION     NA48538  14.155   1.544  14.746 -0.0369  0.0670 -0.1636
31015ION     NA48539  12.867  15.939   3.684  0.0233  0.0251 -0.0297
31016ION     NA48540   0.449   5.831   6.176  0.1491  0.2629 -0.0610
31017ION     NA48541   8.227  17.643   3.142 -0.0557 -0.0904  0.0412
31018ION     NA48542  13.559   8.499   1.723 -0.0466  0.0152 -0.0693
31019ION     NA48543   1.682  17.954   0.940 -0.1112  0.0605  0.1523
31020ION     NA48544   9.352   0.925  10.514 -0.0656 -0.1029 -0.1301
31021ION     NA48545   9.059   3.685   5.524  0.0152 -0.0732  0.0173
31022ION     NA48546  11.858   2.762  10.518 -0.0257  0.1485  0.2992
31023ION     NA48547   1.264   0.403   5.870 -0.0170  0.2771  0.0946
31024ION     NA48548  16.549   6.325  11.008 -0.1282  0.1132  0.2771
31025ION     NA48549   8.302   0.998  14.315 -0.1252  0.4465 -0.1391
31026ION     NA48550  13.846   5.852  11.141  0.2712  0.2413 -0.0672
31027ION     NA48551  10.202  10.158  15.788 -0.1840 -0.0544  0.1458
31028ION     NA48552   6.108   1.787   5.158  0.1047  0.2836  0.0270
31029ION     NA48553   3.021   9.476   0.245 -0.1350 -0.1281  0.2233
31030ION     NA48554   4.931   9.003  11.177 -0.4174 -0.0302 -0.0859
31031ION     NA48555   0.150  14.170  10.538 -0.3224 -0.0421 -0.1108
31032ION     NA48556  12.298  12.550  13.422 -0.2338 -0.0389 -0.0370
31033ION     NA48557   7.624  15.932  10.256  0.1435  0.2674 -0.1701
31034ION     NA48558   1.486  10.919   1.796  0.1795 -0.0295 -0.2772
31035ION     NA48559   4.936   6.689  15.433  0.0427  0.2797  0.0976
31036ION     NA48560   6.205   8.602   1.065 -0.1793 -0.1003 -0.0986
31037ION     NA48561  16.927   4.008  11.160  0.4428  0.3572  0.0520
31038ION     NA48562   6.244  11.020  11.509 -0.0977  0.0543  0.2204
31039ION     NA48563   3.189  12.040   0.577  0.0261  0.2456  0.3062
31040ION     NA48564   0.166  12.824   2.694  0.0825 -0.0541  0.0643
31041ION     NA48565   6.491  18.104   1.047  0.0807  0.0219  0.0446
31042ION     NA48566  15.887   0.906   3.088 -0.5545  0.0882 -0.1494
31043ION     NA48567   4.312  12.912  12.942 -0.1127 -0.0545  0.0960
31044ION     NA48568  14.968  12.789  10.470  0.2585 -0.2321  0.0181
31045ION     NA48569   9.642  11.062   2.413 -0.3903  0.1454 -0.2335
31046ION     NA48570  13.527  13.025  10.265  0.2830 -0.1224 -0.0950
31047ION     NA48571   2.371   5.566  15.726  0.1393  0.0749  0.4061
31048ION     NA48572   3.778   3.281  11.274  0.1374 -0.1533  0.2019
31049ION     NA48573  17.056   3.055  11.138 -0.0476 -0.3794  0.1950
31050ION     NA48574   6.995  13.302  10.188  0.1463  0.2074 -0.1223
31051ION     NA48575  17.257   5.512   0.944 -0.0036 -0.1982 -0.0377
31052ION     NA48576  11.725  10.235  10.841 -0.1133 -0.2571 -0.0829
31053ION     NA48577  11.809  14.136   1.599 -0.0224  0.0011 -0.1656
31054ION     NA48578   2.066   7.549  13.067  0.2615 -0.2463 -0.0368
31055ION     NA48579  14.501   3.386   1.689 -0.1091 -0.1034 -0.1065
31056ION     NA48580   2.930  12.049   1.925 -0.0259  0.3813  0.4041
31057ION     NA48581   4.031  13.291   5.421  0.0278 -0.0931  0.1359
31058ION     NA48582   1.771  12.527  12.667  0.0622  0.1435 -0.1101
31059ION     NA48583  11.301   4.149  15.792  0.2156 -0.0578  0.0057
31060ION     NA48584   1.857  14.770  10.651 -0.3197  0.0586  0.1725
31061ION     NA48585   3.416  14.142   5.498 -0.0967 -0.0898 -0.2529
31062ION     NA48586   8.925  15.401  10.316  0.2865 -0.0588 -0.0971
31063ION     NA48587   1.225   7.010  13.930  0.0062  0.0894  0.3229
31064ION     NA48588  15.078  12.192  12.039 -0.0130  0.1166 -0.0686
31065ION     NA48589   1.948  10.013   6.161 -0.2296 -0.0900 -0.0178
31066ION     NA48590   1.613  12.804   5.572  0.0430  0.2318  0.2788
31067ION     NA48591   2.572  17.069  13.326 -0.0654 -0.3240  0.2616
31068ION     NA48592   9.264  13.115  15.567  0.1063 -0.2725 -0.3844
31069ION     NA48593  15.965   8.635   5.149 -0.0668  0.0311  0.2258
31070ION     NA48594   5.916   2.614  10.470  0.1423 -0.2372 -0.0911
31071ION     NA48595   2.704   0.438   5.456 -0.2680  0.1264 -0.0845
31072ION     NA48596   2.956   2.233  14.696  0.0799  0.2449 -0.1479
31073ION     NA48597  13.185   1.148  10.523  0.0271 -0.1674  0.0497
31074ION     NA48598  15.992  13.732   4.282  0.1801 -0.1106  0.3988
31075ION     NA48599   2.534  12.941  10.768  0.0541 -0.1030 -0.0006
31076ION     NA48600   5.020  12.425  15.804  0.3778 -0.1248 -0.1399
31077ION     NA48601   8.458  10.334  10.561  0.1510 -0.2837  0.0501
31078ION     NA48602  11.366   8.430   0.868  0.3397  0.0706  0.2309
31079ION     NA48603  15.334   9.178  10.726 -0.0672  0.1459  0.2314
31080ION     NA48604  10.970  13.005  10.540 -0.0197 -0.2125 -0.1411
31081ION     NA48605  14.796  10.599   5.971 -0.1585 -0.0436  0.1892
31082ION     NA48606  13.187   2.315   1.497  0.0558  0.0511  0.3832
31083ION     NA48607  11.258   7.100   5.747 -0.2995  0.0213 -0.2331
31084ION     NA48608   4.122   2.729   2.078 -0.0972 -0.0018 -0.1473
31085ION     NA48609  12.821   2.031   5.551 -0.1099 -0.0151 -0.1424
31086ION     NA48610  16.917   7.508   6.013 -0.0610  0.1583  0.0823
31087ION     NA48611   9.945   0.945  11.779 -0.1089  0.0321  0.0393
31088ION     NA48612   1.573   4.118   5.341  0.0104  0.2821 -0.2245
31089ION     NA48613   2.077  11.962   1.764  0.0643 -0.4032 -0.1361
31090ION     NA48614   5.830  16.452  10.118  0.3594 -0.1972  0.0310
31091ION     NA48615  12.283   1.253   5.478 -0.1384  0.2884  0.0217
31092ION     NA48616   8.073  14.579   5.476  0.0394  0.1435  0.1946
31093ION     NA48617  14.767   3.558   5.971  0.0334 -0.3081 -0.1613
31094ION     NA48618  16.645   3.737   5.741 -0.2314  0.0374 -0.0427
31095ION     NA48619   9.708   8.786  10.457 -0.1384 -0.0923  0.0807
31096ION     NA48620  15.522  10.795  10.878  0.1786 -0.0220  0.0361
31097ION     NA48621   3.141   3.681   2.225  0.0552  0.2849 -0.0512
31098ION     NA48622   4.209   7.563   5.924 -0.0363  0.1588  0.1809
31099ION     NA48623   7.089  10.687   5.787  0.0333 -0.1011 -0.1168
31100ION     NA48624   8.562   7.827  10.348  0.0985  0.0199 -0.3417
31101ION     NA48625  17.478   4.679   5.996 -0.2037 -0.1860  0.0473
31102ION     NA48626   5.482   2.326   5.086 -0.3334  0.0940 -0.1028
31103ION     NA48627  12.508  15.247   5.722 -0.2199  0.1129 -0.2030
31104ION     NA48628   6.109  12.366   3.865 -0.1124 -0.0442 -0.1698
31105ION     NA48629   9.333  17.361  14.520  0.1721 -0.0186 -0.0859
31106ION     NA48630   4.728   3.642  12.096 -0.1142 -0.0508  0.0573
31107ION     NA48631   5.855  10.859   5.460  0.1476  0.0856  0.0073
31108ION     NA48632  13.516   2.017  11.118 -0.0317  0.0191 -0.0711
31109ION     NA48633  10.653  15.153   5.646 -0.3714 -0.0932  0.3431
31110ION     NA48634   6.083  13.471   5.460 -0.1434  0.1329 -0.1990
31111ION     NA48635   9.087   9.505  15.451 -0.2395  0.2338 -0.0609
31112ION     NA48636   6.204   1.634  10.404  0.3301  0.0372  0.0551
31113ION     NA48637   2.793  11.110   5.555 -0.2089  0.3928 -0.0191
31114ION     NA48638  17.746   0.018  10.854 -0.1662 -0.0190  0.0715
31115ION     NA48639   2.264   7.366   0.449  0.1830  0.0147 -0.0508
31116ION     NA48640   2.137   3.357  10.657  0.2016 -0.0454  0.1101
31117ION     NA48641  11.527  17.348  13.698  0.1597  0.0385  0.0231
31118ION     NA48642   8.502   8.891   0.875 -0.1579 -0.1607 -0.0672
31119ION     NA48643   8.622  15.459  13.825 -0.1553  0.1991  0.3042
31120ION     NA48644   5.632  10.190   9.891  0.2231 -0.0701 -0.0609
31121ION     NA48645   5.878   7.290  12.704 -0.1624  0.2019  0.0361
31122ION     NA48646  10.356   0.937   5.420 -0.0649  0.3013  0.0779
31123ION     NA48647  11.902  12.704  10.211 -0.2640  0.1079 -0.0141
31124ION     NA48648   2.436   0.515   4.534  0.2026 -0.3233  0.3425
31125ION     NA48649  15.352   8.794   3.323  0.2608  0.0247  0.1937
31126ION     NA48650   6.028  14.461   0.330 -0.1115 -0.2993 -0.2643
31127ION     NA48651  17.954   5.639   3.011  0.1660 -0.2632  0.2894
31128ION     NA48652  17.374   1.727  12.303 -0.4051  0.0000 -0.1801
31129ION     NA48653   7.519  15.231   5.499 -0.1165  0.0087 -0.2539
31130ION     NA48654   2.552   3.437  13.598  0.4676  0.2742  0.0175
31131ION     NA48655   4.269  16.569   1.219  0.0984  0.2056  0.3861
31132ION     NA48656   6.201  15.912   3.991 -0.2487  0.0000 -0.3377
31133ION     NA48657  14.634   9.733  10.799  0.1509 -0.0366 -0.0913
31134ION     NA48658   1.216   6.255  10.772 -0.1900  0.0816  0.2444
31135ION     NA48659  10.810   9.003   5.249 -0.2646 -0.1437  0.0102
31136ION     NA48660   2.886  11.745  12.238 -0.1717 -0.0382 -0.3194
31137ION     NA48661   0.898   2.605  13.379 -0.1538 -0.3557  0.0593
31138ION     NA48662   2.581   9.939  15.257 -0.3398 -0.0273 -0.1918
31139ION     NA48663  14.576   0.259   1.692  0.1237 -0.0094 -0.1842
31140ION     NA48664  14.419   1.248   5.270 -0.1177 -0.0188  0.0762
31141ION     NA48665  11.996  16.810  10.213 -0.0183 -0.1262 -0.2137
31142ION     NA48666  14.486   6.413  15.934 -0.0445  0.3491  0.1046
31143ION     NA48667   0.830   8.503   2.042  0.4756 -0.0181  0.1734
31144ION     NA48668   1.836   4.576   1.103  0.3398 -0.1164  0.0973
31145ION     NA48669  10.574  14.178   5.712 -0.2481 -0.2343 -0.0422
31146ION     NA48670  11.267   3.483  10.294  0.0788  0.2289 -0.1319
  18.19511  18.19511  16.09672
